Title
81305
    1CHL1    C3    1   6.037   1.714  10.262 -0.8713 -0.2411 -0.0142
    1CHL1    H3    2   6.127   1.776  10.281  0.8128 -2.0673 -1.7534
    1CHL1    O3    3   6.010   1.623  10.365 -0.0758 -0.0464  0.1386
    1CHL1   H3'    4   6.014   1.677  10.444 -0.9782 -0.5720  0.5598
    1CHL1    C4    5   5.918   1.805  10.235  0.4514  0.4402 -0.6712
    1CHL1   H4A    6   5.832   1.736  10.218  0.7425  0.0468 -0.5494
    1CHL1   H4B    7   5.903   1.869  10.324 -1.1034 -2.6763  1.3849
    1CHL1    C5    8   5.937   1.900  10.118  0.0406  0.5122  0.2067
    1CHL1    C6    9   5.932   2.033  10.136  0.0735  0.2811  0.0176
    1CHL1    H6   10   5.908   2.063  10.239  0.0077  3.3101 -0.8383
    1CHL1    C7   11   5.961   2.146  10.041 -0.2032 -0.0980 -0.1462
    1CHL1   H7A   12   5.883   2.224  10.032  0.5645  0.5189 -1.6004
    1CHL1   H7B   13   6.058   2.197  10.059 -1.5926  2.9661 -1.0954
    1CHL1    C8   14   5.971   2.080   9.899 -0.5247  0.8602  0.4464
    1CHL1    H8   15   5.864   2.064   9.876 -0.6251 -0.2012  1.5743
    1CHL1   C14   16   6.026   2.173   9.801 -0.2530 -0.5409  0.0029
    1CHL1   H14   17   6.134   2.185   9.823  0.0391 -0.9710 -1.1508
    1CHL1   C15   18   5.958   2.307   9.772  1.0045  0.7586  0.2485
    1CHL1  H15A   19   5.847   2.298   9.780  0.9566  0.8024 -0.3487
    1CHL1  H15B   20   5.987   2.377   9.854  0.5265 -1.0117  1.9827
    1CHL1   C16   21   5.991   2.357   9.632 -0.0454  0.0083 -0.4586
    1CHL1  H16A   22   5.897   2.364   9.574  0.0879 -1.5909 -0.8904
    1CHL1  H16B   23   6.046   2.454   9.636  2.1773 -1.1987 -0.8057
    1CHL1   C17   24   6.075   2.246   9.571 -0.1643  0.5464  0.1956
    1CHL1   H17   25   6.178   2.279   9.597  0.6850 -1.8739 -0.0228
    1CHL1   C13   26   6.041   2.119   9.657 -0.0089 -0.2546  0.1720
    1CHL1   C18   27   5.908   2.062   9.602  0.0927  0.5958 -0.0680
    1CHL1  H18A   28   5.875   1.976   9.665  1.9436  2.2824  3.2869
    1CHL1  H18B   29   5.821   2.130   9.587  0.6428  1.4119  0.4278
    1CHL1  H18C   30   5.939   2.027   9.501 -1.0026  0.7233 -0.4592
    1CHL1   C12   31   6.154   2.012   9.653  0.6262  1.0042 -0.4195
    1CHL1  H12A   32   6.170   1.961   9.555  1.3714  2.1248 -0.8888
    1CHL1  H12B   33   6.245   2.067   9.686 -1.2892  2.8473  1.9880
    1CHL1   C11   34   6.126   1.908   9.763  0.0882 -0.5207 -0.7091
    1CHL1  H11A   35   6.057   1.836   9.714  0.7108 -1.6849  0.1098
    1CHL1  H11B   36   6.220   1.851   9.777  0.7855  1.0933  1.6124
    1CHL1    C9   37   6.066   1.959   9.896  0.4335  0.6017 -0.3020
    1CHL1    H9   38   6.158   1.993   9.948  0.4230  1.7831 -1.0309
    1CHL1   C10   39   5.997   1.845   9.985 -1.1062  0.6573 -0.1107
    1CHL1   C19   40   5.875   1.779   9.905  0.8155 -0.4700  0.1986
    1CHL1  H19A   41   5.910   1.714   9.822  1.2544  0.7880 -0.6290
    1CHL1  H19B   42   5.807   1.717   9.967  1.0694 -0.9840 -0.0345
    1CHL1  H19C   43   5.812   1.861   9.864 -0.3925 -2.0032 -1.0835
    1CHL1    C1   44   6.102   1.729  10.015 -0.1755 -1.0964 -0.3681
    1CHL1   H1A   45   6.130   1.676   9.921  1.1844  0.2907 -0.7648
    1CHL1   H1B   46   6.191   1.773  10.065  1.3926 -3.4100 -0.9956
    1CHL1    C2   47   6.065   1.631  10.131  0.2333  0.5212  0.3560
    1CHL1   H2A   48   6.148   1.560  10.150 -1.8409 -2.0574  0.2037
    1CHL1   H2B   49   5.977   1.567  10.109 -0.5224  1.8922 -0.6882
    1CHL1   C20   50   6.078   2.239   9.420 -0.2208  0.0041  0.0101
    1CHL1   H20   51   5.995   2.178   9.377  0.2347  0.1694 -1.1389
    1CHL1   C21   52   6.200   2.161   9.365 -0.0079  0.2078  0.1968
    1CHL1  H21A   53   6.251   2.194   9.272 -0.7376  1.0243  0.0817
    1CHL1  H21B   54   6.171   2.056   9.342  0.2619  0.2120 -0.1583
    1CHL1  H21C   55   6.280   2.168   9.441  1.9526  0.7086 -1.8445
    1CHL1   C22   56   6.080   2.369   9.347  0.4750 -0.2047 -0.4506
    1CHL1  H22A   57   6.002   2.431   9.397  1.7419 -0.6551  2.1502
    1CHL1  H22B   58   6.177   2.420   9.367  0.8196 -0.1525 -2.2267
    1CHL1   C23   59   6.041   2.368   9.206 -0.2426 -0.2173 -0.4352
    1CHL1  H23A   60   6.122   2.309   9.157  0.4253  0.8357 -0.6194
    1CHL1  H23B   61   5.950   2.306   9.192 -1.5343  1.6241 -0.2028
    1CHL1   C24   62   6.034   2.505   9.133  0.1335 -0.5867 -0.2905
    1CHL1  H24A   63   5.948   2.555   9.181  1.1511  1.2670 -0.3572
    1CHL1  H24B   64   6.119   2.572   9.159 -1.3845  1.1484  0.3009
    1CHL1   C25   65   6.014   2.495   8.979  0.1088 -0.1589  1.0331
    1CHL1   H25   66   6.086   2.437   8.919 -0.1116  0.2986  0.3134
    1CHL1   C26   67   5.889   2.410   8.947 -0.4140 -0.6366 -0.5448
    1CHL1  H26A   68   5.893   2.395   8.837  0.6563 -0.1971 -0.5684
    1CHL1  H26B   69   5.891   2.311   8.999 -1.1936 -1.4920 -2.1185
    1CHL1  H26C   70   5.792   2.460   8.969  0.1179 -0.2928  1.1532
    1CHL1   C27   71   6.000   2.640   8.924  0.7276  0.4593  0.2388
    1CHL1  H27A   72   5.976   2.651   8.815  0.7415 -0.2599  0.1645
    1CHL1  H27B   73   5.909   2.683   8.972  0.3337  2.3277 -2.0390
    1CHL1  H27C   74   6.082   2.706   8.958  1.8009 -0.8892  0.2596
    2CHL1    C3   75   0.161   6.658  10.048 -0.7293  1.3897 -0.3105
    2CHL1    H3   76   0.075   6.716  10.087  0.0078  0.7533  2.3509
    2CHL1    O3   77   0.256   6.618  10.151  0.8223  0.6733 -0.3843
    2CHL1   H3'   78   0.196   6.605  10.225  1.4318 -1.4898 -0.2326
    2CHL1    C4   79   0.107   6.527   9.992 -0.2058 -0.4399 -0.2014
    2CHL1   H4A   80   0.185   6.461   9.951  1.2830  0.4023  1.1968
    2CHL1   H4B   81   0.066   6.473  10.080 -1.7449 -0.9396 -1.2149
    2CHL1    C5   82   0.002   6.545   9.884  0.0541 -0.2119 -0.6863
    2CHL1    C6   83  -0.124   6.493   9.895  0.8971  0.2628  0.4583
    2CHL1    H6   84  -0.154   6.437   9.985  1.4268 -0.1003  0.4078
    2CHL1    C7   85  -0.230   6.520   9.794 -1.3131 -0.8065  0.0031
    2CHL1   H7A   86  -0.290   6.431   9.767 -3.1214  1.5456 -4.2802
    2CHL1   H7B   87  -0.299   6.598   9.834  1.8178  1.7932  0.5966
    2CHL1    C8   88  -0.179   6.573   9.655  0.5577  0.0165  0.0629
    2CHL1    H8   89  -0.142   6.481   9.604  1.9262 -0.8801  2.5662
    2CHL1   C14   90  -0.303   6.630   9.581  0.3591  0.2322 -0.3236
    2CHL1   H14   91  -0.346   6.718   9.632 -0.3508 -0.2591 -0.0678
    2CHL1   C15   92  -0.416   6.535   9.554 -0.2187 -0.1761  0.3855
    2CHL1  H15A   93  -0.377   6.434   9.531  0.8977  0.0436  1.2642
    2CHL1  H15B   94  -0.486   6.524   9.640 -0.2934  0.5496  0.4179
    2CHL1   C16   95  -0.486   6.594   9.430 -0.0538 -0.0632 -0.1587
    2CHL1  H16A   96  -0.478   6.512   9.355  1.9684  0.9156 -1.0410
    2CHL1  H16B   97  -0.594   6.611   9.450 -0.7732 -1.2097 -2.8380
    2CHL1   C17   98  -0.396   6.707   9.386 -0.0299 -0.1938  0.0680
    2CHL1   H17   99  -0.434   6.795   9.442  1.6884  0.7402 -0.1668
    2CHL1   C13  100  -0.258   6.681   9.448 -0.9664  0.2653 -0.6595
    2CHL1   C18  101  -0.180   6.578   9.351 -0.3573 -0.4795  0.3049
    2CHL1  H18A  102  -0.151   6.628   9.256 -1.0812 -0.3713  0.1439
    2CHL1  H18B  103  -0.092   6.534   9.403  1.6125  0.2148 -2.2982
    2CHL1  H18C  104  -0.241   6.485   9.346  1.6344 -1.9495  1.8559
    2CHL1   C12  105  -0.161   6.805   9.465 -0.9188 -0.2903  0.1109
    2CHL1  H12A  106  -0.110   6.851   9.377  0.1036 -1.5458  0.0371
    2CHL1  H12B  107  -0.215   6.883   9.523 -2.1360  0.5035 -2.0583
    2CHL1   C11  108  -0.036   6.758   9.552  0.3291  0.3997  0.0282
    2CHL1  H11A  109   0.025   6.696   9.483  1.2410  1.0482  0.2297
    2CHL1  H11B  110   0.020   6.852   9.573  0.0170  0.4135  0.8382
    2CHL1    C9  111  -0.072   6.679   9.681 -0.1660  0.7680  0.5935
    2CHL1    H9  112  -0.129   6.751   9.743  1.7505  1.5775  1.4480
    2CHL1   C10  113   0.050   6.634   9.768  0.3546  0.1388  0.4961
    2CHL1   C19  114   0.138   6.551   9.678 -0.1269 -0.6167 -0.0936
    2CHL1  H19A  115   0.064   6.478   9.638  0.5134 -0.9271 -0.7243
    2CHL1  H19B  116   0.177   6.610   9.593 -0.8095  0.5131  0.3573
    2CHL1  H19C  117   0.220   6.490   9.721 -0.1384  0.1241  1.0072
    2CHL1    C1  118   0.126   6.760   9.825 -0.3446  0.0823 -0.3016
    2CHL1   H1A  119   0.180   6.812   9.743 -0.3768  2.3833  1.1035
    2CHL1   H1B  120   0.048   6.832   9.859  0.3956  0.9182 -0.3660
    2CHL1    C2  121   0.226   6.736   9.935 -0.0973 -0.2499 -0.0693
    2CHL1   H2A  122   0.263   6.837   9.964 -1.0131 -0.1667  0.8240
    2CHL1   H2B  123   0.315   6.680   9.899 -0.5984 -0.6057 -0.7629
    2CHL1   C20  124  -0.411   6.748   9.241 -0.3581  0.0723 -0.0121
    2CHL1   H20  125  -0.347   6.685   9.175 -2.9193  0.0705 -2.6316
    2CHL1   C21  126  -0.390   6.895   9.222  0.1062 -0.0080 -0.2459
    2CHL1  H21A  127  -0.484   6.954   9.226 -0.1614 -0.4103 -0.5529
    2CHL1  H21B  128  -0.359   6.918   9.118  0.3864 -1.3587 -0.4645
    2CHL1  H21C  129  -0.315   6.936   9.293  0.2927 -0.3963 -0.2154
    2CHL1   C22  130  -0.544   6.714   9.178  0.0924 -0.6961 -0.5100
    2CHL1  H22A  131  -0.566   6.606   9.192 -2.8909 -0.2661 -1.5434
    2CHL1  H22B  132  -0.628   6.774   9.220  0.9654  0.7031 -0.7318
    2CHL1   C23  133  -0.538   6.738   9.022 -0.3051 -0.1416  0.4743
    2CHL1  H23A  134  -0.523   6.848   9.009  1.2311 -0.4510 -0.5486
    2CHL1  H23B  135  -0.452   6.688   8.974  1.9616  0.8296  3.3704
    2CHL1   C24  136  -0.672   6.699   8.947 -0.7828  0.9719 -0.0134
    2CHL1  H24A  137  -0.692   6.591   8.962 -0.0071  0.9871  1.2302
    2CHL1  H24B  138  -0.749   6.743   9.014 -1.3876 -1.3961  0.8842
    2CHL1   C25  139  -0.691   6.740   8.798 -0.5408  0.1903 -0.5967
    2CHL1   H25  140  -0.608   6.691   8.742 -0.8591 -0.2420 -0.6983
    2CHL1   C26  141  -0.819   6.671   8.746 -0.1276 -0.4244  0.5902
    2CHL1  H26A  142  -0.907   6.700   8.808  1.0529 -0.9224  2.5211
    2CHL1  H26B  143  -0.826   6.699   8.639  0.1377 -2.5199 -0.0057
    2CHL1  H26C  144  -0.799   6.562   8.731 -1.3011 -0.6856  0.8564
    2CHL1   C27  145  -0.698   6.893   8.776  0.8079  0.1249  0.0438
    2CHL1  H27A  146  -0.714   6.918   8.669  0.6401  0.0115  0.0407
    2CHL1  H27B  147  -0.782   6.936   8.834  2.5925  0.5246  2.4240
    2CHL1  H27C  148  -0.604   6.946   8.802  0.5945  1.7885 -2.4381
    3CHL1    C3  149   0.440   5.973  10.455 -0.6113  0.5029 -0.3284
    3CHL1    H3  150   0.480   5.871  10.472 -1.1556  0.4477  0.6821
    3CHL1    O3  151   0.417   6.038  10.583  0.0098  0.2556  0.3145
    3CHL1   H3'  152   0.387   6.126  10.559  0.5663  0.3060 -0.1890
    3CHL1    C4  153   0.549   6.062  10.393 -0.1331  0.0223 -0.3938
    3CHL1   H4A  154   0.524   6.171  10.401  0.0076  0.0312 -0.0616
    3CHL1   H4B  155   0.641   6.057  10.454 -0.5844  2.3908  0.5693
    3CHL1    C5  156   0.562   6.038  10.244  0.2692 -0.0731  0.5534
    3CHL1    C6  157   0.684   6.017  10.182  0.6168  0.2006 -1.0993
    3CHL1    H6  158   0.774   6.005  10.244 -0.6396  0.4229  0.8084
    3CHL1    C7  159   0.700   6.029  10.031  0.8214  0.7684 -0.1704
    3CHL1   H7A  160   0.779   6.102  10.003  0.4730  0.1498 -2.9752
    3CHL1   H7B  161   0.732   5.933   9.984  0.8271  0.6582  0.0592
    3CHL1    C8  162   0.575   6.066   9.954  0.9064  0.1864 -0.3616
    3CHL1    H8  163   0.562   6.176   9.952 -0.6896  0.0182  0.7672
    3CHL1   C14  164   0.571   6.023   9.808 -0.4322  0.6200 -0.4066
    3CHL1   H14  165   0.568   5.912   9.804 -1.5112  0.6690 -1.2019
    3CHL1   C15  166   0.695   6.054   9.726  0.4892 -0.3381  0.5127
    3CHL1  H15A  167   0.697   6.165   9.738  0.6896 -0.2031 -0.6986
    3CHL1  H15B  168   0.782   6.000   9.767  2.2630  2.0071 -0.0585
    3CHL1   C16  169   0.659   6.020   9.587 -0.8594  0.7674  0.9414
    3CHL1  H16A  170   0.681   6.113   9.530 -1.1410  3.0539  4.3981
    3CHL1  H16B  171   0.722   5.933   9.557 -2.9398 -0.3346 -0.3939
    3CHL1   C17  172   0.506   5.986   9.579 -0.1253  0.5778  0.6265
    3CHL1   H17  173   0.481   5.879   9.596  1.7361 -0.2689 -1.6594
    3CHL1   C13  174   0.455   6.059   9.712  0.0608 -0.1574 -0.2503
    3CHL1   C18  175   0.440   6.207   9.693  0.1541  0.2744 -0.0810
    3CHL1  H18A  176   0.359   6.228   9.620 -1.1449  0.7344  1.4518
    3CHL1  H18B  177   0.413   6.262   9.786  1.0359  0.8291 -0.1449
    3CHL1  H18C  178   0.526   6.253   9.642  1.2241 -2.5527 -0.9063
    3CHL1   C12  179   0.332   6.002   9.781 -0.4483  0.0901 -0.3407
    3CHL1  H12A  180   0.243   6.015   9.716 -1.2959 -0.8158  0.6316
    3CHL1  H12B  181   0.345   5.892   9.783  0.8853  0.2057 -1.4749
    3CHL1   C11  182   0.321   6.037   9.930 -0.0295 -0.5119  0.3155
    3CHL1  H11A  183   0.301   6.146   9.924  0.8391 -0.1390  3.3527
    3CHL1  H11B  184   0.231   5.995   9.980 -0.7428  1.6864  0.9413
    3CHL1    C9  185   0.447   6.007  10.017  0.1584 -0.4037  0.5906
    3CHL1    H9  186   0.462   5.897  10.004  0.5581 -0.2524 -0.2464
    3CHL1   C10  187   0.429   6.047  10.167  0.4786 -0.0311 -1.3146
    3CHL1   C19  188   0.373   6.196  10.182  0.6735  0.6962  0.4518
    3CHL1  H19A  189   0.435   6.265  10.120  2.9770 -0.5001  1.3510
    3CHL1  H19B  190   0.271   6.198  10.139  2.0851 -1.4288 -3.2024
    3CHL1  H19C  191   0.372   6.229  10.288 -0.1078  0.2254  0.5869
    3CHL1    C1  192   0.330   5.946  10.234  0.9307 -0.0201  0.4733
    3CHL1   H1A  193   0.230   5.956  10.187  0.7858 -0.1715  0.7443
    3CHL1   H1B  194   0.369   5.843  10.220  1.6697 -0.0978  2.8304
    3CHL1    C2  195   0.313   5.965  10.387  0.0713  0.1932 -0.3725
    3CHL1   H2A  196   0.263   5.877  10.433  0.8823 -0.1564 -0.1540
    3CHL1   H2B  197   0.262   6.064  10.396 -1.6623 -0.5697 -1.6127
    3CHL1   C20  198   0.437   6.024   9.447  0.3780 -0.4550  0.0780
    3CHL1   H20  199   0.443   6.134   9.448  0.1700 -0.4424 -0.0703
    3CHL1   C21  200   0.289   5.982   9.442 -0.2549  0.1107  0.4257
    3CHL1  H21A  201   0.271   5.877   9.473  0.4680  0.0933  0.8065
    3CHL1  H21B  202   0.241   6.001   9.343 -2.1850 -3.2206  0.6697
    3CHL1  H21C  203   0.225   6.043   9.508 -1.1989  1.2030 -1.4511
    3CHL1   C22  204   0.526   5.967   9.332  0.0606 -0.2599 -0.2935
    3CHL1  H22A  205   0.617   6.030   9.328  0.5182 -0.5949  3.2021
    3CHL1  H22B  206   0.552   5.864   9.364 -1.4014 -0.6688 -0.3611
    3CHL1   C23  207   0.460   5.966   9.199 -0.1716 -0.4726 -1.0101
    3CHL1  H23A  208   0.374   5.897   9.192 -0.9616  0.5927 -2.0450
    3CHL1  H23B  209   0.405   6.060   9.177 -2.0037 -1.0649  0.8874
    3CHL1   C24  210   0.556   5.937   9.085 -0.0556 -0.8691  0.7732
    3CHL1  H24A  211   0.653   5.986   9.107 -0.2537 -1.2072  2.4939
    3CHL1  H24B  212   0.571   5.827   9.084  1.2904 -0.6961 -0.6519
    3CHL1   C25  213   0.521   5.961   8.943 -0.0144  0.1928  0.1822
    3CHL1   H25  214   0.529   6.068   8.915  0.7786  0.4794  1.4770
    3CHL1   C26  215   0.633   5.899   8.853 -0.9945 -0.2395  0.7828
    3CHL1  H26A  216   0.602   5.908   8.747 -0.8154 -1.1251  0.6585
    3CHL1  H26B  217   0.724   5.961   8.863 -1.6190  0.4643  2.3024
    3CHL1  H26C  218   0.656   5.793   8.876  1.0687  0.4741  2.1639
    3CHL1   C27  219   0.394   5.893   8.906  0.1832  0.2734  0.2041
    3CHL1  H27A  220   0.376   5.937   8.805  2.2225  1.8080  0.4946
    3CHL1  H27B  221   0.391   5.782   8.908 -0.4753  0.2852 -0.0150
    3CHL1  H27C  222   0.311   5.930   8.971 -1.0033  0.6360 -1.4700
    4CHL1    C3  223   0.173   1.177  10.488  0.2617 -0.2144  0.2566
    4CHL1    H3  224   0.070   1.197  10.449  0.5289  1.3613  0.2955
    4CHL1    O3  225   0.165   1.130  10.622  0.1930  0.2712 -0.2127
    4CHL1   H3'  226   0.249   1.135  10.668  2.2219 -3.3751 -3.2041
    4CHL1    C4  227   0.237   1.068  10.405 -0.1077 -0.1857  0.0474
    4CHL1   H4A  228   0.330   1.042  10.460 -0.3211 -0.5926  0.2150
    4CHL1   H4B  229   0.173   0.977  10.411 -2.1654  1.1017 -1.4042
    4CHL1    C5  230   0.272   1.097  10.263 -0.0310  0.6786  0.0971
    4CHL1    C6  231   0.230   1.018  10.166  0.2591 -0.1550  0.1570
    4CHL1    H6  232   0.169   0.932  10.198  0.3631 -1.4753 -3.0886
    4CHL1    C7  233   0.257   1.053  10.018 -0.4399  1.0131  0.4384
    4CHL1   H7A  234   0.295   0.958   9.973 -0.3877 -0.0353  2.5953
    4CHL1   H7B  235   0.164   1.081   9.965  0.1892  2.9535  0.3244
    4CHL1    C8  236   0.363   1.166  10.004  0.0732 -0.0990  0.8138
    4CHL1    H8  237   0.467   1.134  10.029  0.5907 -0.2454 -1.4239
    4CHL1   C14  238   0.367   1.218   9.858 -0.0619 -0.5788  0.1093
    4CHL1   H14  239   0.263   1.252   9.839 -0.7222 -2.7690 -0.4277
    4CHL1   C15  240   0.388   1.118   9.747  1.0411 -0.0058  0.3704
    4CHL1  H15A  241   0.478   1.062   9.778  0.8967 -0.8726 -0.7817
    4CHL1  H15B  242   0.306   1.043   9.750 -1.2585  2.4438  1.7930
    4CHL1   C16  243   0.429   1.196   9.623  0.3808  0.0217  0.1715
    4CHL1  H16A  244   0.523   1.165   9.574 -0.0972 -0.4541 -0.4528
    4CHL1  H16B  245   0.348   1.190   9.547  0.3633  1.6805  0.0338
    4CHL1   C17  246   0.433   1.346   9.670  0.1483 -0.3038 -0.1713
    4CHL1   H17  247   0.338   1.403   9.660 -1.3905 -2.3930  1.9856
    4CHL1   C13  248   0.456   1.337   9.828 -0.5816 -0.5037  0.2075
    4CHL1   C18  249   0.609   1.307   9.855 -0.7246 -0.5136 -0.2513
    4CHL1  H18A  250   0.669   1.400   9.868  0.3415 -1.1334 -0.6720
    4CHL1  H18B  251   0.597   1.247   9.948  0.3646 -1.2325 -0.5670
    4CHL1  H18C  252   0.654   1.245   9.775  2.7171  0.8414  0.5369
    4CHL1   C12  253   0.404   1.456   9.916 -0.4989  0.2478 -0.4175
    4CHL1  H12A  254   0.463   1.548   9.901 -0.2114 -0.2011 -2.0778
    4CHL1  H12B  255   0.297   1.482   9.900  0.0540  1.9249 -1.4284
    4CHL1   C11  256   0.418   1.408  10.061  0.6992 -0.3939 -0.2377
    4CHL1  H11A  257   0.524   1.425  10.089  0.7127  1.7515 -1.5325
    4CHL1  H11B  258   0.357   1.482  10.116  0.2970 -2.0174  1.5679
    4CHL1    C9  259   0.338   1.277  10.096 -0.2546  0.7293  0.0882
    4CHL1    H9  260   0.234   1.311  10.075 -1.1059 -1.2286  0.9094
    4CHL1   C10  261   0.348   1.230  10.245  0.4550  0.3496 -0.3817
    4CHL1   C19  262   0.496   1.238  10.292 -0.8076  0.7934 -0.2768
    4CHL1  H19A  263   0.504   1.201  10.396  1.2503 -0.5886 -0.8921
    4CHL1  H19B  264   0.551   1.165  10.228 -4.5601 -1.5226 -1.0225
    4CHL1  H19C  265   0.541   1.339  10.283 -0.3838  0.6911  0.6610
    4CHL1    C1  266   0.278   1.345  10.331  1.0640 -0.2346 -0.2116
    4CHL1   H1A  267   0.341   1.435  10.316 -1.9491  1.9123 -0.5608
    4CHL1   H1B  268   0.180   1.379  10.289  0.6938 -0.8008  0.1943
    4CHL1    C2  269   0.247   1.307  10.484  0.3232 -0.3175 -0.1291
    4CHL1   H2A  270   0.186   1.390  10.525  0.4207 -1.1441  1.7513
    4CHL1   H2B  271   0.345   1.294  10.536  0.7412 -2.6662 -1.4367
    4CHL1   C20  272   0.535   1.432   9.584  0.0737  0.2224 -0.3649
    4CHL1   H20  273   0.636   1.387   9.593  0.6233  1.3093 -1.0473
    4CHL1   C21  274   0.537   1.577   9.641 -0.0069 -0.4086  0.4295
    4CHL1  H21A  275   0.591   1.575   9.739  1.0294  0.0251 -0.1292
    4CHL1  H21B  276   0.434   1.619   9.648  0.3894  1.3750 -3.2289
    4CHL1  H21C  277   0.592   1.644   9.572 -2.9440  4.1461  2.2514
    4CHL1   C22  278   0.492   1.439   9.438  0.4704 -0.7467 -0.6802
    4CHL1  H22A  279   0.462   1.337   9.406 -2.2195 -0.6655  1.4276
    4CHL1  H22B  280   0.399   1.499   9.424  0.5922 -0.9366 -2.5058
    4CHL1   C23  281   0.609   1.489   9.349  0.7659  0.4663 -0.1320
    4CHL1  H23A  282   0.617   1.600   9.347  1.3514  0.4162 -1.8451
    4CHL1  H23B  283   0.707   1.449   9.382  0.8336 -0.2010 -1.1077
    4CHL1   C24  284   0.608   1.448   9.197  0.0596 -0.1567 -0.7637
    4CHL1  H24A  285   0.604   1.337   9.198 -0.5903 -0.1472 -1.3931
    4CHL1  H24B  286   0.519   1.486   9.141  0.9069  0.8036 -1.4825
    4CHL1   C25  287   0.737   1.496   9.118 -0.0457  0.2794  0.0655
    4CHL1   H25  288   0.738   1.607   9.121  0.5005  0.2790 -0.1668
    4CHL1   C26  289   0.862   1.445   9.179 -0.5502  0.5327 -0.9006
    4CHL1  H26A  290   0.868   1.475   9.285 -0.9547 -0.6709 -0.5243
    4CHL1  H26B  291   0.868   1.334   9.179 -1.5842  0.4734  0.0360
    4CHL1  H26C  292   0.952   1.476   9.121 -0.8894  2.0742 -0.6083
    4CHL1   C27  293   0.744   1.452   8.973 -0.4340 -0.6239  0.2639
    4CHL1  H27A  294   0.647   1.461   8.920 -1.5575  0.1106  2.3896
    4CHL1  H27B  295   0.813   1.524   8.924  0.2779  0.0517  2.2089
    4CHL1  H27C  296   0.778   1.347   8.962  0.2807 -0.1559 -2.1896
    5CHL1    C3  297   1.052   5.558  10.284 -0.0378  0.1522  0.4629
    5CHL1    H3  298   0.956   5.508  10.258  0.6114 -0.4773 -0.8281
    5CHL1    O3  299   1.084   5.541  10.422 -0.6373  0.1985  0.1746
    5CHL1   H3'  300   1.160   5.596  10.441 -0.0073  0.0511 -1.7282
    5CHL1    C4  301   1.167   5.500  10.197  0.1470 -0.2827  1.2361
    5CHL1   H4A  302   1.256   5.563  10.217  0.5395 -0.1915 -0.6999
    5CHL1   H4B  303   1.180   5.395  10.231 -1.1126 -0.5063  1.0767
    5CHL1    C5  304   1.134   5.519  10.056  0.0168 -0.1479  0.4841
    5CHL1    C6  305   1.115   5.415   9.974  0.2423 -0.3378  0.5099
    5CHL1    H6  306   1.140   5.313  10.007 -1.9377 -0.2960  2.3875
    5CHL1    C7  307   1.097   5.434   9.824  1.1982  0.0912  0.2497
    5CHL1   H7A  308   1.171   5.364   9.780  1.2135 -0.6870  1.4725
    5CHL1   H7B  309   0.997   5.400   9.788  1.8628  1.2674 -2.8352
    5CHL1    C8  310   1.113   5.577   9.765 -0.3885  0.2550  0.7214
    5CHL1    H8  311   1.222   5.598   9.759 -0.0602 -1.8932 -1.7795
    5CHL1   C14  312   1.058   5.588   9.625  0.0969  0.5038  0.0866
    5CHL1   H14  313   0.951   5.567   9.644 -0.2260  2.3344  0.3681
    5CHL1   C15  314   1.103   5.494   9.516 -0.3621  0.0292  0.2908
    5CHL1  H15A  315   1.213   5.483   9.523 -0.1063 -2.5590 -4.9449
    5CHL1  H15B  316   1.061   5.394   9.536  2.0723 -0.8820  1.0552
    5CHL1   C16  317   1.057   5.557   9.383 -0.2921 -0.0049 -0.1333
    5CHL1  H16A  318   1.143   5.572   9.314  1.3748  0.3966  1.9882
    5CHL1  H16B  319   0.983   5.499   9.324 -0.6861 -0.2419  0.5916
    5CHL1   C17  320   1.013   5.701   9.424  0.5722  0.1945 -0.5277
    5CHL1   H17  321   0.904   5.682   9.434  0.4667  0.6914 -0.7064
    5CHL1   C13  322   1.063   5.724   9.565  0.1093  0.1103  0.7574
    5CHL1   C18  323   1.212   5.770   9.562  0.2789  0.2273 -0.0669
    5CHL1  H18A  324   1.274   5.702   9.499  0.1247  0.2891 -0.2823
    5CHL1  H18B  325   1.205   5.874   9.524  0.4119 -0.9050 -3.3478
    5CHL1  H18C  326   1.263   5.783   9.660  1.3477 -1.3232 -0.3849
    5CHL1   C12  327   0.982   5.810   9.670  0.6921 -0.4108  0.8362
    5CHL1  H12A  328   0.974   5.910   9.622  1.0659 -0.5692  0.4458
    5CHL1  H12B  329   0.880   5.766   9.668  0.9276 -0.9331 -1.6925
    5CHL1   C11  330   1.040   5.823   9.809 -0.3162  1.0840 -0.1692
    5CHL1  H11A  331   1.129   5.889   9.815  0.8657 -0.5511  0.5334
    5CHL1  H11B  332   0.963   5.871   9.873 -1.1178 -0.3812 -0.0157
    5CHL1    C9  333   1.055   5.678   9.866 -0.1326  0.4083 -0.1413
    5CHL1    H9  334   0.952   5.638   9.875  0.1608 -0.0794  1.2174
    5CHL1   C10  335   1.108   5.673  10.011  0.5089  0.1207  0.1717
    5CHL1   C19  336   1.241   5.749  10.021 -0.0399  0.5999 -0.0301
    5CHL1  H19A  337   1.260   5.772  10.128 -0.6291  1.6062 -0.1406
    5CHL1  H19B  338   1.320   5.676   9.991 -1.3872 -0.9324  0.0985
    5CHL1  H19C  339   1.247   5.835   9.952  0.4777  0.6152  0.0305
    5CHL1    C1  340   1.005   5.731  10.106  0.2222  0.4435 -0.0391
    5CHL1   H1A  341   0.982   5.838  10.095  0.7423  0.8540  2.4219
    5CHL1   H1B  342   0.907   5.681  10.091  0.3445  0.5414 -1.1871
    5CHL1    C2  343   1.034   5.708  10.256 -0.1697 -0.3833  0.4891
    5CHL1   H2A  344   0.944   5.743  10.309 -2.5359 -2.6483 -1.8674
    5CHL1   H2B  345   1.116   5.765  10.304 -1.3146  2.5435 -0.9271
    5CHL1   C20  346   1.017   5.808   9.312 -0.2378  0.8222  0.1812
    5CHL1   H20  347   1.124   5.837   9.317 -0.4024  1.6546 -0.9291
    5CHL1   C21  348   0.937   5.934   9.360  0.4271  0.0520 -0.3481
    5CHL1  H21A  349   0.842   5.899   9.406  1.1713 -0.0213  1.1752
    5CHL1  H21B  350   0.901   5.997   9.276 -3.0138 -0.5621  0.5972
    5CHL1  H21C  351   0.989   5.990   9.442  1.4600  0.5112 -1.3060
    5CHL1   C22  352   0.978   5.761   9.169  0.4888 -0.0992 -0.1073
    5CHL1  H22A  353   1.028   5.665   9.141  0.3711 -0.2600  0.2299
    5CHL1  H22B  354   0.867   5.754   9.163  0.6586 -0.5758 -3.5233
    5CHL1   C23  355   1.030   5.856   9.064 -0.6551  0.1791 -0.0144
    5CHL1  H23A  356   0.972   5.949   9.081  0.6872  0.9254  0.5394
    5CHL1  H23B  357   1.137   5.879   9.080 -0.1666 -1.6833 -0.5225
    5CHL1   C24  358   1.004   5.811   8.917  0.0806 -0.2397 -0.1056
    5CHL1  H24A  359   1.080   5.733   8.892 -1.1806 -0.3789 -3.8589
    5CHL1  H24B  360   0.902   5.768   8.910  0.3620 -0.5466 -2.9886
    5CHL1   C25  361   1.014   5.928   8.813  0.4611 -0.2962 -0.6682
    5CHL1   H25  362   0.944   6.004   8.852  1.5665 -0.4884  1.7598
    5CHL1   C26  363   1.157   5.994   8.812  0.0544 -0.3313  0.3824
    5CHL1  H26A  364   1.186   6.060   8.897  0.9371  1.1012 -1.0203
    5CHL1  H26B  365   1.227   5.907   8.816  0.2002 -0.2981 -1.2894
    5CHL1  H26C  366   1.182   6.052   8.721 -2.5372  0.2253 -0.0089
    5CHL1   C27  367   0.977   5.892   8.669 -0.7567 -0.3767 -0.6826
    5CHL1  H27A  368   0.873   5.854   8.670 -0.5307 -1.0355  2.0151
    5CHL1  H27B  369   0.969   5.979   8.600  0.8741  2.8673  3.0116
    5CHL1  H27C  370   1.044   5.817   8.622  0.0980  0.6835 -1.1798
    6CHL1    C3  371   5.880   4.333  10.469  0.3306 -0.9268  0.4747
    6CHL1    H3  372   5.774   4.361  10.452  0.7081  0.2052 -0.0460
    6CHL1    O3  373   5.933   4.427  10.565 -1.0890 -0.3659 -0.1848
    6CHL1   H3'  374   6.026   4.406  10.580 -1.8609 -2.6725  1.7092
    6CHL1    C4  375   5.900   4.192  10.518 -0.4405  0.8877 -0.2023
    6CHL1   H4A  376   6.006   4.176  10.545 -0.4230  1.7364  0.2743
    6CHL1   H4B  377   5.850   4.190  10.618  0.4452 -0.7416  0.2204
    6CHL1    C5  378   5.870   4.085  10.413  0.2317  0.2831  0.2560
    6CHL1    C6  379   5.782   3.991  10.440  0.5176  0.4008  0.0683
    6CHL1    H6  380   5.731   4.001  10.536  0.0349 -2.1842  0.1182
    6CHL1    C7  381   5.738   3.881  10.353  0.0103 -0.6340  0.1581
    6CHL1   H7A  382   5.738   3.790  10.418  1.3698 -1.6387 -1.2123
    6CHL1   H7B  383   5.634   3.906  10.323 -0.1810 -0.8462  0.6291
    6CHL1    C8  384   5.827   3.865  10.228  0.2780  0.5059  0.9520
    6CHL1    H8  385   5.928   3.824  10.248  1.1222  1.9811 -0.1720
    6CHL1   C14  386   5.763   3.789  10.113  0.8729  0.7073 -0.1667
    6CHL1   H14  387   5.668   3.841  10.090 -1.4501 -3.3675 -0.3407
    6CHL1   C15  388   5.716   3.647  10.154 -0.4475  0.2701  0.4094
    6CHL1  H15A  389   5.805   3.598  10.199 -0.0987 -0.6886 -1.2874
    6CHL1  H15B  390   5.628   3.662  10.220 -0.6996 -1.9727  0.6118
    6CHL1   C16  391   5.696   3.593  10.011  0.1031 -0.1864 -0.0011
    6CHL1  H16A  392   5.750   3.496  10.003  1.2816  0.6217 -2.1326
    6CHL1  H16B  393   5.589   3.574   9.988 -0.3297  2.3446 -0.2038
    6CHL1   C17  394   5.738   3.695   9.908 -0.1770 -0.0146  0.0493
    6CHL1   H17  395   5.655   3.755   9.865  0.4118  1.1349  0.4814
    6CHL1   C13  396   5.837   3.783   9.988  0.6383 -0.4656 -0.1036
    6CHL1   C18  397   5.966   3.715  10.008 -0.3125  0.1493 -0.8773
    6CHL1  H18A  398   5.957   3.615  10.055 -0.3708  0.2703 -0.6262
    6CHL1  H18B  399   6.012   3.704   9.908 -2.4210 -3.0784 -1.5509
    6CHL1  H18C  400   6.027   3.779  10.076  0.5552  0.2927 -1.7674
    6CHL1   C12  401   5.846   3.930   9.938  0.4791 -0.7751 -0.0620
    6CHL1  H12A  402   5.905   3.943   9.845  2.2700 -1.8970  0.8846
    6CHL1  H12B  403   5.745   3.973   9.917  0.2152 -1.1657  0.4040
    6CHL1   C11  404   5.925   4.013  10.037 -0.0941 -0.1188  0.3263
    6CHL1  H11A  405   6.028   3.973  10.050 -0.7043 -1.7793  0.1186
    6CHL1  H11B  406   5.937   4.115   9.993 -0.8050 -0.7906 -1.4332
    6CHL1    C9  407   5.858   4.014  10.174  0.0128  0.0049 -0.1646
    6CHL1    H9  408   5.758   4.062  10.172  0.0896  0.5883  4.1454
    6CHL1   C10  409   5.938   4.107  10.277  0.2319  0.1244 -0.2825
    6CHL1   C19  410   6.092   4.071  10.279 -0.4467  0.3525 -0.5311
    6CHL1  H19A  411   6.149   4.123  10.358  0.4897 -1.6223  0.1272
    6CHL1  H19B  412   6.105   3.960  10.276  2.1121  0.6612 -2.2197
    6CHL1  H19C  413   6.124   4.111  10.180  1.8889  0.1012  0.1083
    6CHL1    C1  414   5.915   4.257  10.231 -0.1870  0.1428 -0.3175
    6CHL1   H1A  415   5.971   4.277  10.137  1.7167  0.6383  0.8874
    6CHL1   H1B  416   5.805   4.255  10.213 -0.5901 -0.0757  2.0289
    6CHL1    C2  417   5.957   4.354  10.339  0.2281  0.2655  0.2355
    6CHL1   H2A  418   5.942   4.458  10.302 -0.0089 -0.5704 -2.0699
    6CHL1   H2B  419   6.066   4.348  10.358 -0.3064 -1.4014  3.0859
    6CHL1   C20  420   5.793   3.635   9.782  0.0155  0.5914 -0.3272
    6CHL1   H20  421   5.881   3.573   9.809  0.8418  1.1688 -1.6577
    6CHL1   C21  422   5.849   3.741   9.687  0.8049  0.7167 -0.7959
    6CHL1  H21A  423   5.940   3.798   9.715 -0.6483  2.3356  0.7720
    6CHL1  H21B  424   5.771   3.818   9.665  1.2649  1.1154 -1.0426
    6CHL1  H21C  425   5.882   3.696   9.591  0.9820  2.1800 -1.4314
    6CHL1   C22  426   5.689   3.537   9.708  0.2333 -0.0931  0.1006
    6CHL1  H22A  427   5.662   3.455   9.778  4.3361 -1.6597 -0.0063
    6CHL1  H22B  428   5.592   3.587   9.688 -0.9770 -2.2303  0.4337
    6CHL1   C23  429   5.739   3.454   9.590  0.4472 -0.1891  0.0571
    6CHL1  H23A  430   5.768   3.528   9.513 -0.0037 -1.0568 -0.9671
    6CHL1  H23B  431   5.827   3.401   9.634  1.0987  1.8545  1.2980
    6CHL1   C24  432   5.630   3.363   9.531 -0.4586 -0.3359 -0.4676
    6CHL1  H24A  433   5.573   3.333   9.622  0.2671  2.9274  1.1338
    6CHL1  H24B  434   5.559   3.428   9.475 -0.1257  1.0790  0.7284
    6CHL1   C25  435   5.678   3.241   9.444  0.1671  0.5119  0.1634
    6CHL1   H25  436   5.773   3.274   9.395  1.1047 -1.7233  0.4382
    6CHL1   C26  437   5.712   3.112   9.526 -0.1426  0.0217 -0.2159
    6CHL1  H26A  438   5.811   3.129   9.573 -0.2985  0.9247 -0.1953
    6CHL1  H26B  439   5.639   3.085   9.606 -1.4806 -0.7528 -1.6625
    6CHL1  H26C  440   5.711   3.025   9.457  0.0833  0.3628 -0.6471
    6CHL1   C27  441   5.578   3.210   9.336  0.1023  0.3217 -0.0821
    6CHL1  H27A  442   5.522   3.299   9.300 -0.4238  0.3172  0.7098
    6CHL1  H27B  443   5.629   3.155   9.254 -0.2667 -1.2146  0.7077
    6CHL1  H27C  444   5.502   3.147   9.386  0.9146 -0.1328  0.5839
    7CHL1    C3  445   1.956   0.281  10.400  0.4463 -0.2565  0.5178
    7CHL1    H3  446   2.032   0.354  10.365 -0.3688  1.3654  2.0628
    7CHL1    O3  447   1.937   0.295  10.539  0.1972 -0.4561  0.1754
    7CHL1   H3'  448   1.896   0.381  10.545  1.1419 -0.0295  0.7402
    7CHL1    C4  449   1.819   0.300  10.330 -0.2946  0.2455  1.3002
    7CHL1   H4A  450   1.750   0.226  10.377 -1.8194 -0.2968 -1.6492
    7CHL1   H4B  451   1.778   0.400  10.355 -0.0777  0.2700  1.5660
    7CHL1    C5  452   1.841   0.273  10.182 -0.1988 -0.8001  0.6287
    7CHL1    C6  453   1.815   0.362  10.082 -0.0142  0.2635 -0.3970
    7CHL1    H6  454   1.766   0.455  10.115  0.5658  1.3143 -2.4216
    7CHL1    C7  455   1.819   0.335   9.932 -0.1213 -0.1023  0.3186
    7CHL1   H7A  456   1.729   0.383   9.885  0.4597 -0.8856 -1.6553
    7CHL1   H7B  457   1.912   0.387   9.899 -0.3714 -0.6010 -1.2408
    7CHL1    C8  458   1.826   0.183   9.893  0.0272  0.5586  0.7211
    7CHL1    H8  459   1.724   0.140   9.905 -0.4150  1.3305 -0.2009
    7CHL1   C14  460   1.864   0.162   9.750  0.1242 -0.3846  0.0285
    7CHL1   H14  461   1.969   0.198   9.751 -0.4023  1.1528  1.4685
    7CHL1   C15  462   1.792   0.227   9.634  0.0706 -0.0196  0.5895
    7CHL1  H15A  463   1.681   0.218   9.641 -0.0940 -3.0616 -3.7227
    7CHL1  H15B  464   1.816   0.333   9.610  1.9853 -0.7029 -0.6532
    7CHL1   C16  465   1.832   0.145   9.507 -1.0701  0.0966 -0.1990
    7CHL1  H16A  466   1.739   0.105   9.460 -1.5158  1.8797 -0.8551
    7CHL1  H16B  467   1.890   0.212   9.441 -1.8440  0.6047 -0.3761
    7CHL1   C17  468   1.915   0.026   9.563  0.1728  0.4759  0.7128
    7CHL1   H17  469   2.022   0.052   9.547 -0.2985  1.7013 -0.5092
    7CHL1   C13  470   1.882   0.016   9.709 -0.2531 -0.1720  0.4929
    7CHL1   C18  471   1.749  -0.057   9.730 -0.0228  0.1380 -0.0491
    7CHL1  H18A  472   1.680  -0.019   9.652  0.7441 -1.0318 -1.3016
    7CHL1  H18B  473   1.760  -0.164   9.705  2.9082  0.8500 -2.1345
    7CHL1  H18C  474   1.720  -0.041   9.836  0.6395 -0.7266  0.2748
    7CHL1   C12  475   1.993  -0.041   9.801  0.3260  0.3714  0.4766
    7CHL1  H12A  476   2.010  -0.149   9.782 -2.4719  0.2021 -1.3246
    7CHL1  H12B  477   2.096  -0.004   9.784  0.1416 -0.5317 -2.8349
    7CHL1   C11  478   1.965  -0.030   9.950  0.3391  0.3760 -0.7633
    7CHL1  H11A  479   1.880  -0.098   9.973  2.7855 -2.1139  1.2435
    7CHL1  H11B  480   2.049  -0.064  10.014 -0.7576  0.9660  1.0472
    7CHL1    C9  481   1.925   0.112   9.996  0.1528 -0.4280  0.4789
    7CHL1    H9  482   2.019   0.170   9.983  1.2359 -1.6629  2.5530
    7CHL1   C10  483   1.891   0.132  10.145  0.8435 -0.2541 -0.2096
    7CHL1   C19  484   1.782   0.036  10.191  0.9751  0.4495 -0.3301
    7CHL1  H19A  485   1.760   0.048  10.299  1.7093  0.4911 -0.1786
    7CHL1  H19B  486   1.685   0.059  10.141  0.0670 -3.5559 -0.5126
    7CHL1  H19C  487   1.799  -0.073  10.183  3.5598  0.9576 -2.9508
    7CHL1    C1  488   2.020   0.103  10.222 -0.6722  0.1816 -0.8144
    7CHL1   H1A  489   2.043  -0.005  10.214 -0.9826  0.0199  0.3015
    7CHL1   H1B  490   2.104   0.165  10.186 -1.4487  2.3270  0.9381
    7CHL1    C2  491   2.012   0.142  10.372  0.6442 -0.1355  0.1592
    7CHL1   H2A  492   2.110   0.112  10.415  0.7847 -0.1890 -0.2002
    7CHL1   H2B  493   1.931   0.074  10.406  0.3360  0.0238 -0.2456
    7CHL1   C20  494   1.886  -0.093   9.463  0.1909 -0.3182 -0.3139
    7CHL1   H20  495   1.779  -0.123   9.463  0.1906 -0.3474  0.8909
    7CHL1   C21  496   1.971  -0.215   9.505 -0.3197 -0.1822  0.4126
    7CHL1  H21A  497   1.940  -0.229   9.611  0.8155  0.4441  0.8391
    7CHL1  H21B  498   2.080  -0.193   9.511 -0.1071 -1.1967  0.3024
    7CHL1  H21C  499   1.941  -0.306   9.449  1.2221 -0.5910  0.2181
    7CHL1   C22  500   1.917  -0.063   9.309  0.2828 -0.2185 -0.3233
    7CHL1  H22A  501   1.868   0.030   9.272 -0.6462 -0.0704  1.2228
    7CHL1  H22B  502   2.026  -0.052   9.324  0.2293  0.6268 -0.5552
    7CHL1   C23  503   1.895  -0.186   9.216 -0.1385 -0.1428 -0.2142
    7CHL1  H23A  504   1.965  -0.268   9.241  3.0649  2.0000 -1.7657
    7CHL1  H23B  505   1.789  -0.219   9.219  0.6619 -2.8446 -1.0316
    7CHL1   C24  506   1.923  -0.156   9.066  0.3153 -0.6768 -0.4777
    7CHL1  H24A  507   1.866  -0.067   9.033  0.5702  0.5764  2.3282
    7CHL1  H24B  508   2.031  -0.131   9.054  0.0853  1.3934  1.6405
    7CHL1   C25  509   1.891  -0.277   8.968 -0.7214 -0.2733  1.2414
    7CHL1   H25  510   1.788  -0.302   9.002 -0.1474 -1.7811  1.8712
    7CHL1   C26  511   1.917  -0.215   8.829 -0.7493 -0.2176 -0.2062
    7CHL1  H26A  512   1.912  -0.299   8.756  0.2854 -1.1953  0.8236
    7CHL1  H26B  513   1.837  -0.148   8.792 -0.7560 -0.5777 -0.8490
    7CHL1  H26C  514   2.010  -0.156   8.824  0.2848 -1.9740 -2.2541
    7CHL1   C27  515   1.983  -0.395   8.989  0.8011  0.5612  0.9126
    7CHL1  H27A  516   2.073  -0.373   9.050  0.5971  0.5516  1.2153
    7CHL1  H27B  517   1.922  -0.470   9.045 -1.2054 -0.9537 -3.0855
    7CHL1  H27C  518   2.022  -0.449   8.900 -0.5126 -1.7218  1.6605
    8CHL1    C3  519   2.577   1.131  10.207  0.2943 -0.2193  0.6644
    8CHL1    H3  520   2.676   1.125  10.158 -0.3020 -1.1057 -0.4665
    8CHL1    O3  521   2.592   1.132  10.345  0.5389  0.2067  0.3053
    8CHL1   H3'  522   2.506   1.137  10.387 -0.1435 -0.7843 -0.9495
    8CHL1    C4  523   2.503   1.258  10.155  0.6261  0.0961  0.3357
    8CHL1   H4A  524   2.403   1.273  10.200  0.2270 -0.1380 -0.4687
    8CHL1   H4B  525   2.566   1.336  10.203 -0.0295  0.9786 -0.2047
    8CHL1    C5  526   2.516   1.253  10.000 -0.4877 -0.0856  0.9003
    8CHL1    C6  527   2.592   1.342   9.932  0.0952  0.3189 -0.6535
    8CHL1    H6  528   2.641   1.421   9.990  0.8364  1.3227 -2.5959
    8CHL1    C7  529   2.617   1.345   9.788 -0.5969 -0.0569 -0.0526
    8CHL1   H7A  530   2.613   1.449   9.750 -2.8199 -0.0934  0.0164
    8CHL1   H7B  531   2.714   1.301   9.757 -0.2656  1.8324 -1.7892
    8CHL1    C8  532   2.507   1.260   9.713 -0.3381  0.2815  0.1821
    8CHL1    H8  533   2.405   1.301   9.729 -0.6812 -0.6070  0.2715
    8CHL1   C14  534   2.542   1.247   9.560 -0.5634  0.1522  0.0019
    8CHL1   H14  535   2.646   1.209   9.550 -0.8937 -0.5784 -0.7815
    8CHL1   C15  536   2.536   1.371   9.475  0.2968  0.4992  0.2207
    8CHL1  H15A  537   2.441   1.427   9.488  0.2270  0.2756  0.7091
    8CHL1  H15B  538   2.622   1.440   9.487  0.7718  0.0896 -0.7407
    8CHL1   C16  539   2.540   1.317   9.325 -0.4969  0.1002  0.7761
    8CHL1  H16A  540   2.462   1.365   9.262  2.2527  0.6192 -2.3932
    8CHL1  H16B  541   2.643   1.333   9.285 -0.3295  0.5108  1.3527
    8CHL1   C17  542   2.513   1.162   9.333  0.4814  0.2567  0.3802
    8CHL1   H17  543   2.616   1.123   9.325 -0.1621 -1.1643 -0.9854
    8CHL1   C13  544   2.458   1.142   9.479  0.4969 -1.4152 -0.0552
    8CHL1   C18  545   2.301   1.185   9.473 -0.0305 -0.5337  0.2433
    8CHL1  H18A  546   2.283   1.220   9.577 -0.5363 -1.8598  0.6040
    8CHL1  H18B  547   2.279   1.270   9.405 -2.8853 -1.4358 -0.0239
    8CHL1  H18C  548   2.233   1.099   9.455 -0.9615 -0.3184  2.4828
    8CHL1   C12  549   2.472   1.001   9.552 -0.5793 -0.6593  0.0831
    8CHL1  H12A  550   2.407   0.934   9.492  1.5445 -1.5640 -1.3056
    8CHL1  H12B  551   2.578   0.968   9.546 -0.4389 -0.3639  0.8701
    8CHL1   C11  552   2.426   1.004   9.693 -0.1336 -0.2292  0.3514
    8CHL1  H11A  553   2.317   1.020   9.701 -0.1232  1.1369 -1.7643
    8CHL1  H11B  554   2.458   0.911   9.744  3.1670 -0.1453 -1.4419
    8CHL1    C9  555   2.492   1.118   9.782 -0.0105 -0.0090  1.1719
    8CHL1    H9  556   2.596   1.080   9.781 -1.2773 -3.7295 -0.4169
    8CHL1   C10  557   2.456   1.127   9.934 -0.6500 -0.2748 -0.1737
    8CHL1   C19  558   2.303   1.140   9.946  0.0247 -0.2500  0.5552
    8CHL1  H19A  559   2.237   1.064   9.900 -3.5147  2.6090  0.7122
    8CHL1  H19B  560   2.275   1.147  10.053  0.5512  2.8042  0.5524
    8CHL1  H19C  561   2.277   1.238   9.900  3.4177  0.3639 -0.2365
    8CHL1    C1  562   2.491   0.992  10.005 -0.3418 -0.9058  0.0897
    8CHL1   H1A  563   2.418   0.916   9.971  0.7727 -1.9466 -0.0236
    8CHL1   H1B  564   2.595   0.964   9.977  0.1552 -0.1504  1.1548
    8CHL1    C2  565   2.497   1.006  10.162  0.4192  0.0804 -0.2579
    8CHL1   H2A  566   2.537   0.908  10.197  3.0964  0.4497 -2.0958
    8CHL1   H2B  567   2.395   1.022  10.202  0.2033 -0.3775 -0.6170
    8CHL1   C20  568   2.433   1.121   9.208 -0.5166 -0.5826  0.2506
    8CHL1   H20  569   2.338   1.180   9.211  0.4966  1.2223 -1.5407
    8CHL1   C21  570   2.397   0.978   9.216 -0.7078 -0.4769  0.6028
    8CHL1  H21A  571   2.486   0.912   9.217 -1.3531 -1.3568  0.2746
    8CHL1  H21B  572   2.333   0.948   9.130 -0.4030 -0.0653  0.2298
    8CHL1  H21C  573   2.338   0.947   9.306  1.6179 -1.9173  1.6739
    8CHL1   C22  574   2.505   1.156   9.074 -0.1517  0.0590  0.1946
    8CHL1  H22A  575   2.549   1.257   9.086  2.5332 -0.7394 -2.4352
    8CHL1  H22B  576   2.586   1.082   9.054 -0.8796 -0.1548 -2.0661
    8CHL1   C23  577   2.400   1.149   8.960  0.4487  0.1960  0.0567
    8CHL1  H23A  578   2.390   1.041   8.932  1.9359 -0.1924  0.9812
    8CHL1  H23B  579   2.301   1.196   8.980 -0.3331 -0.9691 -0.9466
    8CHL1   C24  580   2.445   1.224   8.827 -0.2070  0.1614  0.2490
    8CHL1  H24A  581   2.537   1.183   8.780 -1.2959  0.5131 -2.2490
    8CHL1  H24B  582   2.366   1.197   8.753 -1.9185 -0.6436  2.3182
    8CHL1   C25  583   2.452   1.379   8.832  0.0717  0.0176 -0.2521
    8CHL1   H25  584   2.506   1.407   8.925 -0.1181  1.2459 -0.4977
    8CHL1   C26  585   2.520   1.445   8.711  0.0639 -0.0783  0.1473
    8CHL1  H26A  586   2.576   1.538   8.736 -0.9479  0.3292  0.9682
    8CHL1  H26B  587   2.604   1.375   8.693  0.7051  0.4540  0.9861
    8CHL1  H26C  588   2.451   1.459   8.626  0.0545 -1.6740 -0.1184
    8CHL1   C27  589   2.314   1.441   8.854  0.2306 -0.2336 -0.2801
    8CHL1  H27A  590   2.275   1.416   8.955 -0.8707 -1.5246 -1.0039
    8CHL1  H27B  591   2.338   1.548   8.839  0.6483  0.0660  2.2562
    8CHL1  H27C  592   2.245   1.399   8.778 -0.9691 -0.4075  0.8917
    9CHL1    C3  593   5.068   5.155  10.100  0.6707  0.4633  0.5149
    9CHL1    H3  594   5.103   5.052  10.079  0.2449  0.3913  0.1480
    9CHL1    O3  595   5.060   5.189  10.240  0.2896  0.1194 -0.8013
    9CHL1   H3'  596   5.147   5.164  10.272 -1.0468 -3.4510  0.3093
    9CHL1    C4  597   5.173   5.252  10.045 -0.2623 -0.2479  0.6577
    9CHL1   H4A  598   5.135   5.356  10.057 -1.8088 -0.7068 -0.1232
    9CHL1   H4B  599   5.273   5.242  10.093  0.0266 -2.0991 -0.2684
    9CHL1    C5  600   5.189   5.245   9.890  0.1209 -0.3217  0.1052
    9CHL1    C6  601   5.309   5.220   9.837  0.8577  0.1019 -0.3159
    9CHL1    H6  602   5.391   5.208   9.909 -1.7905 -1.5586  2.5443
    9CHL1    C7  603   5.324   5.209   9.688  0.1330  0.0940  0.4458
    9CHL1   H7A  604   5.397   5.286   9.655 -1.5726  0.9097 -1.5505
    9CHL1   H7B  605   5.343   5.105   9.654  0.5750  0.5532 -0.7596
    9CHL1    C8  606   5.200   5.257   9.604 -0.0259  0.1797 -0.5293
    9CHL1    H8  607   5.204   5.368   9.598  2.8180  0.1296 -0.0426
    9CHL1   C14  608   5.205   5.214   9.455 -0.4757 -0.2472  0.7799
    9CHL1   H14  609   5.190   5.106   9.433 -1.1439 -0.0477  0.2553
    9CHL1   C15  610   5.332   5.245   9.379  0.4948  0.0914  0.3957
    9CHL1  H15A  611   5.352   5.349   9.413 -0.3699 -0.0080  1.2314
    9CHL1  H15B  612   5.416   5.176   9.405  1.4222  1.1148  0.1173
    9CHL1   C16  613   5.289   5.240   9.232 -0.2917  0.6049  0.2590
    9CHL1  H16A  614   5.330   5.331   9.182  0.1189 -1.0243 -2.5069
    9CHL1  H16B  615   5.333   5.149   9.184 -2.1256 -1.2740  2.0432
    9CHL1   C17  616   5.133   5.228   9.223 -0.3340 -0.0562 -0.4345
    9CHL1   H17  617   5.102   5.121   9.222  0.9930 -0.4852  1.4842
    9CHL1   C13  618   5.091   5.271   9.371 -0.2415  0.2499 -0.5211
    9CHL1   C18  619   5.077   5.426   9.371 -0.4085  0.1235  0.9346
    9CHL1  H18A  620   5.173   5.467   9.333 -0.8830  0.3121 -0.0883
    9CHL1  H18B  621   4.986   5.460   9.316  0.2832  0.8489  0.2144
    9CHL1  H18C  622   5.055   5.467   9.472 -0.6306  1.4386  0.3719
    9CHL1   C12  623   4.953   5.204   9.425  0.0837 -0.1786  0.9921
    9CHL1  H12A  624   4.875   5.253   9.363  1.4360  2.3731  1.2290
    9CHL1  H12B  625   4.971   5.095   9.414 -0.9556 -0.1622 -1.0937
    9CHL1   C11  626   4.933   5.236   9.576  0.3692 -0.3683 -0.3046
    9CHL1  H11A  627   4.913   5.345   9.589  0.9998 -0.4786  1.8611
    9CHL1  H11B  628   4.858   5.166   9.618  1.5859 -1.0297  0.8273
    9CHL1    C9  629   5.067   5.212   9.663 -0.6228  0.1271  0.9280
    9CHL1    H9  630   5.077   5.102   9.679  0.9000  0.2697  1.0777
    9CHL1   C10  631   5.055   5.263   9.816 -0.0539 -0.0364  0.9722
    9CHL1   C19  632   5.009   5.407   9.825 -0.1185 -1.3389  0.0623
    9CHL1  H19A  633   5.075   5.469   9.761 -0.5099  0.3438  1.2410
    9CHL1  H19B  634   4.906   5.420   9.784 -0.1399 -0.3743  0.4076
    9CHL1  H19C  635   5.012   5.446   9.929  0.2188 -1.8695  0.2443
    9CHL1    C1  636   4.945   5.172   9.877 -0.2698  0.3357 -0.0540
    9CHL1   H1A  637   4.846   5.188   9.831 -0.6523 -1.1953  0.2045
    9CHL1   H1B  638   4.981   5.070   9.855  0.4807  0.6766 -0.4241
    9CHL1    C2  639   4.933   5.182  10.031 -0.3046  0.0613  0.0409
    9CHL1   H2A  640   4.854   5.109  10.062 -0.2453  0.3058  0.7774
    9CHL1   H2B  641   4.898   5.285  10.054  0.2735  0.1512  0.5181
    9CHL1   C20  642   5.066   5.293   9.105  0.0039 -0.3037 -0.3296
    9CHL1   H20  643   5.073   5.403   9.108  0.6917 -0.2694 -2.7867
    9CHL1   C21  644   4.913   5.262   9.108  0.0714 -0.1359 -0.7652
    9CHL1  H21A  645   4.904   5.161   9.155  1.0331 -0.2950 -0.9035
    9CHL1  H21B  646   4.870   5.273   9.007 -0.1953  2.1003 -0.4285
    9CHL1  H21C  647   4.856   5.334   9.169  1.5207 -0.0116  0.4949
    9CHL1   C22  648   5.133   5.248   8.972 -0.0928  0.0513 -0.0622
    9CHL1  H22A  649   5.237   5.286   8.983  0.4711 -0.7465 -2.3071
    9CHL1  H22B  650   5.139   5.138   8.956  0.7002  0.1683 -0.6444
    9CHL1   C23  651   5.080   5.328   8.859 -0.0366 -0.1104 -0.0792
    9CHL1  H23A  652   4.977   5.293   8.834  0.2860 -0.3854 -1.0580
    9CHL1  H23B  653   5.073   5.431   8.899 -0.8639  0.4893 -1.6964
    9CHL1   C24  654   5.178   5.317   8.733 -0.2996 -0.3034  0.1875
    9CHL1  H24A  655   5.269   5.379   8.748 -0.3671 -0.2604  0.4058
    9CHL1  H24B  656   5.212   5.211   8.725 -1.7870 -0.8435  0.8523
    9CHL1   C25  657   5.093   5.331   8.601 -0.0844  0.2291  0.0746
    9CHL1   H25  658   5.012   5.256   8.606 -0.0534  0.2252  0.5360
    9CHL1   C26  659   5.045   5.481   8.586 -0.2303  0.2235 -0.7032
    9CHL1  H26A  660   5.000   5.524   8.678 -0.2119 -1.7283  0.2486
    9CHL1  H26B  661   5.126   5.547   8.547  0.3490 -1.2003 -1.9528
    9CHL1  H26C  662   4.971   5.483   8.504  1.2107  1.6473 -2.0060
    9CHL1   C27  663   5.167   5.303   8.474 -0.3963  0.4432  0.8362
    9CHL1  H27A  664   5.220   5.205   8.471 -0.5457  0.3320  1.6782
    9CHL1  H27B  665   5.094   5.293   8.391  0.7449 -4.2332  0.2479
    9CHL1  H27C  666   5.242   5.381   8.450 -0.2168 -0.0238 -0.1611
   10CHL1    C3  667   4.150   2.223  10.226 -0.5189 -0.2387 -0.6154
   10CHL1    H3  668   4.108   2.323  10.250  0.1071 -0.2045  0.3823
   10CHL1    O3  669   4.171   2.134  10.334 -0.2025 -0.1015  0.7102
   10CHL1   H3'  670   4.146   2.047  10.301  1.0767 -0.0995 -0.3216
   10CHL1    C4  671   4.062   2.156  10.119  0.1906 -0.3224  0.0997
   10CHL1   H4A  672   4.100   2.053  10.100 -0.7614 -0.7016  0.2605
   10CHL1   H4B  673   3.965   2.164  10.171  0.3218  0.3266  0.2471
   10CHL1    C5  674   4.060   2.233   9.990  0.0796  0.1680  0.1761
   10CHL1    C6  675   3.946   2.267   9.935  0.0862 -0.4242  0.1506
   10CHL1    H6  676   3.847   2.248   9.978 -1.0463 -1.1476 -2.6216
   10CHL1    C7  677   3.942   2.342   9.803 -0.4766 -0.2728  0.4471
   10CHL1   H7A  678   3.855   2.318   9.738 -0.2092 -1.2543  0.4501
   10CHL1   H7B  679   3.937   2.450   9.827  0.6949  0.4608 -2.3308
   10CHL1    C8  680   4.072   2.329   9.713 -0.5350 -0.2131  0.2518
   10CHL1    H8  681   4.085   2.220   9.697 -1.4381 -0.4351  1.0225
   10CHL1   C14  682   4.063   2.406   9.578 -0.8653 -0.0434 -0.3014
   10CHL1   H14  683   4.031   2.509   9.605 -3.1985 -0.4793 -1.2816
   10CHL1   C15  684   3.966   2.346   9.475  0.0502  0.6985 -0.9040
   10CHL1  H15A  685   3.971   2.236   9.481 -1.0806  0.6985  0.3392
   10CHL1  H15B  686   3.858   2.366   9.490 -0.0566 -2.4108  3.2278
   10CHL1   C16  687   4.011   2.408   9.343  0.6263 -0.1832 -0.7137
   10CHL1  H16A  688   4.025   2.320   9.276  0.6270 -1.3818  0.8251
   10CHL1  H16B  689   3.933   2.477   9.303  0.8071  0.6330  0.3178
   10CHL1   C17  690   4.150   2.474   9.372 -0.8504  0.5289 -0.2551
   10CHL1   H17  691   4.128   2.581   9.392 -1.8787  0.6740 -2.1124
   10CHL1   C13  692   4.201   2.408   9.509  0.3549  0.3536  0.0764
   10CHL1   C18  693   4.251   2.264   9.475  0.1301  0.1330 -0.5606
   10CHL1  H18A  694   4.355   2.266   9.435 -0.0589  1.1375 -1.0278
   10CHL1  H18B  695   4.250   2.207   9.570  1.1678  1.2254  0.1303
   10CHL1  H18C  696   4.182   2.212   9.405 -0.4958  0.3319 -0.0855
   10CHL1   C12  697   4.306   2.477   9.595 -0.1393  0.4963 -0.0685
   10CHL1  H12A  698   4.406   2.470   9.547 -0.6184 -1.3762 -0.8459
   10CHL1  H12B  699   4.277   2.584   9.607  0.4540  0.5536  0.8326
   10CHL1   C11  700   4.323   2.417   9.736 -0.5408  0.0614 -0.3589
   10CHL1  H11A  701   4.387   2.326   9.731 -0.4939 -0.1051  2.4746
   10CHL1  H11B  702   4.384   2.491   9.791  1.7860 -1.2224 -1.1471
   10CHL1    C9  703   4.188   2.372   9.803  0.8461  0.0815 -0.6175
   10CHL1    H9  704   4.150   2.464   9.852  0.5300 -0.2434 -0.2511
   10CHL1   C10  705   4.199   2.270   9.928 -0.0884 -0.0014  0.0412
   10CHL1   C19  706   4.273   2.138   9.883 -0.9507 -0.1777 -0.1727
   10CHL1  H19A  707   4.379   2.155   9.854 -0.9388  0.2210  0.1111
   10CHL1  H19B  708   4.281   2.060   9.962  1.6537 -1.0266 -1.1861
   10CHL1  H19C  709   4.227   2.078   9.802 -0.2816 -0.0244 -0.6689
   10CHL1    C1  710   4.288   2.335  10.040  0.4497  0.1814  0.0935
   10CHL1   H1A  711   4.393   2.353  10.009  0.1993  1.3657 -0.0667
   10CHL1   H1B  712   4.254   2.438  10.062 -0.1145  0.6260 -2.6769
   10CHL1    C2  713   4.290   2.257  10.171 -0.5123  0.1267  0.7444
   10CHL1   H2A  714   4.342   2.320  10.247  0.9665  2.7729 -2.3414
   10CHL1   H2B  715   4.354   2.166  10.164 -0.1430  0.4554 -0.1724
   10CHL1   C20  716   4.237   2.457   9.247 -0.4135 -0.1161  0.6342
   10CHL1   H20  717   4.246   2.354   9.205 -0.9560 -0.1982  0.7052
   10CHL1   C21  718   4.376   2.523   9.278 -0.0719  0.6375 -0.4283
   10CHL1  H21A  719   4.436   2.517   9.185 -0.9783 -2.7415 -0.8620
   10CHL1  H21B  720   4.426   2.460   9.354 -0.9902  1.2863  0.7447
   10CHL1  H21C  721   4.359   2.628   9.311  0.7360 -0.2253  2.9018
   10CHL1   C22  722   4.170   2.550   9.132 -0.8925  0.4411  0.3434
   10CHL1  H22A  723   4.071   2.500   9.132  0.1610 -1.7036 -0.3254
   10CHL1  H22B  724   4.161   2.654   9.171 -0.6887  0.3434  0.6615
   10CHL1   C23  725   4.254   2.546   9.006 -0.6147 -0.1405 -0.6507
   10CHL1  H23A  726   4.350   2.598   9.024 -0.5328 -0.0901 -1.2227
   10CHL1  H23B  727   4.268   2.438   8.987  1.3043  0.0611 -0.4424
   10CHL1   C24  728   4.174   2.601   8.890  0.0622 -0.3255 -0.3469
   10CHL1  H24A  729   4.074   2.552   8.881 -1.0278  1.9446 -0.9386
   10CHL1  H24B  730   4.150   2.709   8.899 -1.1835 -0.4206 -2.2336
   10CHL1   C25  731   4.258   2.599   8.759  0.6969 -0.2150 -0.0678
   10CHL1   H25  732   4.345   2.667   8.770 -0.1576  0.7320  1.0302
   10CHL1   C26  733   4.299   2.458   8.722  0.0372  0.1570  0.4450
   10CHL1  H26A  734   4.213   2.390   8.739  1.0033 -0.9769  0.8418
   10CHL1  H26B  735   4.332   2.436   8.618 -0.2354 -0.7743  0.5482
   10CHL1  H26C  736   4.371   2.412   8.792  0.8269 -0.0158 -0.4624
   10CHL1   C27  737   4.177   2.667   8.647  0.0445 -0.0469  0.7766
   10CHL1  H27A  738   4.241   2.669   8.556 -2.4584  1.2705 -1.0310
   10CHL1  H27B  739   4.089   2.608   8.613  2.6416 -2.1556 -2.7345
   10CHL1  H27C  740   4.139   2.765   8.681  1.5704  0.4475  1.0826
   11CHL1    C3  741   6.595   4.606  10.021 -0.0579  0.8696  0.1858
   11CHL1    H3  742   6.651   4.702  10.019  1.8584 -0.2257  0.9925
   11CHL1    O3  743   6.544   4.582  10.148  0.9848 -0.1430  0.1262
   11CHL1   H3'  744   6.599   4.528  10.205 -1.3276 -1.1118  1.4669
   11CHL1    C4  745   6.478   4.622   9.920  0.7386 -0.2465 -0.3822
   11CHL1   H4A  746   6.416   4.530   9.916  1.3397 -0.6684  0.0839
   11CHL1   H4B  747   6.401   4.700   9.940 -0.3012 -1.5233  0.7145
   11CHL1    C5  748   6.531   4.649   9.776  0.2146 -0.3408  0.2806
   11CHL1    C6  749   6.498   4.748   9.693  0.5571 -0.0180 -0.5747
   11CHL1    H6  750   6.422   4.819   9.728  0.4823 -0.1199 -0.5311
   11CHL1    C7  751   6.529   4.757   9.551 -0.3143 -0.1481  0.4083
   11CHL1   H7A  752   6.437   4.781   9.493  0.8085  1.7456 -0.6386
   11CHL1   H7B  753   6.603   4.840   9.543  1.6103 -2.0350 -2.1671
   11CHL1    C8  754   6.597   4.628   9.488 -0.0685 -0.6269 -0.1504
   11CHL1    H8  755   6.513   4.558   9.469 -1.1073  0.8221 -1.0116
   11CHL1   C14  756   6.675   4.661   9.360 -0.2855  0.1712  0.6323
   11CHL1   H14  757   6.743   4.741   9.394  0.4239 -0.3188  0.3804
   11CHL1   C15  758   6.600   4.721   9.241  0.0757 -0.8718  0.1849
   11CHL1  H15A  759   6.513   4.657   9.215 -1.8831  1.7129  0.2094
   11CHL1  H15B  760   6.568   4.824   9.266 -0.4262 -0.9750 -0.0249
   11CHL1   C16  761   6.705   4.724   9.131 -0.6331  0.1716 -0.4354
   11CHL1  H16A  762   6.663   4.707   9.030 -3.2365  2.3397  0.2176
   11CHL1  H16B  763   6.746   4.827   9.127 -0.5998  0.2468  1.4069
   11CHL1   C17  764   6.820   4.624   9.176 -0.2115  0.2077 -0.6995
   11CHL1   H17  765   6.909   4.683   9.204  1.5425 -1.7785 -1.9698
   11CHL1   C13  766   6.759   4.551   9.298 -0.1813  0.0852 -0.4681
   11CHL1   C18  767   6.666   4.439   9.243 -0.2425  0.3851  0.0955
   11CHL1  H18A  768   6.601   4.395   9.322 -0.8077  0.9580 -0.0409
   11CHL1  H18B  769   6.589   4.467   9.167 -0.3926  1.3048  0.5688
   11CHL1  H18C  770   6.713   4.344   9.211 -1.2574 -0.3572  0.7908
   11CHL1   C12  771   6.861   4.496   9.403 -0.5467 -0.0408  0.7307
   11CHL1  H12A  772   6.934   4.427   9.354  0.1380  1.1764  0.0052
   11CHL1  H12B  773   6.920   4.577   9.451 -1.2155  0.6924  0.3247
   11CHL1   C11  774   6.783   4.442   9.520 -0.5552 -0.1322 -0.3008
   11CHL1  H11A  775   6.717   4.355   9.500  0.3371 -0.8606 -0.0877
   11CHL1  H11B  776   6.858   4.410   9.596 -1.7417  0.7921  1.2916
   11CHL1    C9  777   6.692   4.556   9.589  0.4619  0.2867 -0.1197
   11CHL1    H9  778   6.772   4.629   9.612 -0.1207 -0.1660  3.5798
   11CHL1   C10  779   6.624   4.531   9.730  0.0017  0.0241 -0.0619
   11CHL1   C19  780   6.558   4.394   9.714  0.0033 -0.1936 -0.5568
   11CHL1  H19A  781   6.628   4.311   9.689  2.5485  0.6219  3.4240
   11CHL1  H19B  782   6.513   4.367   9.811 -1.7270  0.4804 -1.1495
   11CHL1  H19C  783   6.476   4.395   9.639  0.2064  1.2883 -0.7757
   11CHL1    C1  784   6.739   4.509   9.837 -0.0186 -0.6505  1.0676
   11CHL1   H1A  785   6.795   4.415   9.814 -1.0771 -1.1532  0.5489
   11CHL1   H1B  786   6.808   4.596   9.836  0.5374 -1.0679  1.9642
   11CHL1    C2  787   6.690   4.496   9.983 -0.6418  0.1521 -0.8564
   11CHL1   H2A  788   6.774   4.497  10.055 -0.8075  0.0563 -0.6601
   11CHL1   H2B  789   6.631   4.404  10.003  1.2357 -0.7412  0.7198
   11CHL1   C20  790   6.863   4.547   9.054  0.1489  0.0776 -0.3601
   11CHL1   H20  791   6.767   4.515   9.006  0.1293  1.2442 -1.1321
   11CHL1   C21  792   6.955   4.425   9.077 -0.4776  1.1567  0.2646
   11CHL1  H21A  793   6.901   4.352   9.141  0.4119  0.0199 -0.2583
   11CHL1  H21B  794   7.042   4.460   9.136  1.0000 -1.7583 -0.0786
   11CHL1  H21C  795   7.009   4.385   8.989 -1.4309  0.2367  0.0799
   11CHL1   C22  796   6.929   4.631   8.940 -0.1235 -0.3458  0.2868
   11CHL1  H22A  797   6.905   4.739   8.930  0.8267 -0.3308 -2.0499
   11CHL1  H22B  798   7.038   4.642   8.959 -0.0310 -1.6648  0.5503
   11CHL1   C23  799   6.917   4.578   8.796 -0.4950 -0.2078  0.0030
   11CHL1  H23A  800   6.914   4.467   8.796 -0.5853 -0.2061  0.6437
   11CHL1  H23B  801   6.822   4.611   8.748  0.5400  1.2672 -1.0358
   11CHL1   C24  802   7.026   4.628   8.699 -0.0844  0.1174  0.0556
   11CHL1  H24A  803   7.020   4.739   8.696 -0.7480  0.1079  0.6274
   11CHL1  H24B  804   7.122   4.598   8.746  1.2677  0.9102 -2.1575
   11CHL1   C25  805   7.021   4.568   8.558 -0.3734 -0.3106  0.3038
   11CHL1   H25  806   7.011   4.458   8.568 -1.7918 -0.2564 -0.4330
   11CHL1   C26  807   6.895   4.616   8.482  0.5865  0.4682  0.8526
   11CHL1  H26A  808   6.899   4.580   8.377 -0.4968 -1.2241  1.3707
   11CHL1  H26B  809   6.805   4.562   8.519  0.3749  1.3933  1.7058
   11CHL1  H26C  810   6.873   4.725   8.479 -3.4097 -0.2703 -1.0466
   11CHL1   C27  811   7.144   4.622   8.474  0.0478 -0.8386 -0.3542
   11CHL1  H27A  812   7.243   4.598   8.518  0.6066  0.6351 -0.7926
   11CHL1  H27B  813   7.148   4.572   8.375  2.4407 -0.7440 -0.3416
   11CHL1  H27C  814   7.124   4.729   8.453  1.4738 -0.4056  0.4467
   12CHL1    C3  815   3.316   1.266  10.291 -0.0780 -0.1501  0.0124
   12CHL1    H3  816   3.304   1.176  10.355 -0.5356 -0.0434  0.0768
   12CHL1    O3  817   3.381   1.357  10.379  0.0634 -0.2491  0.4110
   12CHL1   H3'  818   3.322   1.363  10.455  0.1171  2.2440  0.3178
   12CHL1    C4  819   3.420   1.220  10.192 -0.2805 -0.2752 -0.5783
   12CHL1   H4A  820   3.473   1.311  10.155  1.2339 -0.8377  0.1603
   12CHL1   H4B  821   3.508   1.171  10.238  0.1740  0.6559 -0.4425
   12CHL1    C5  822   3.355   1.139  10.075 -0.1888  0.2722 -0.5775
   12CHL1    C6  823   3.401   1.020  10.031 -0.1756 -0.3099 -0.3013
   12CHL1    H6  824   3.487   0.983  10.089  0.4971  1.5750 -0.0791
   12CHL1    C7  825   3.371   0.952   9.902 -0.1757  0.3027 -0.3620
   12CHL1   H7A  826   3.462   0.926   9.843 -0.2735 -2.0684  0.4552
   12CHL1   H7B  827   3.314   0.856   9.911 -1.5338  0.9671 -1.5859
   12CHL1    C8  828   3.279   1.051   9.814 -0.5966  0.1502 -0.1329
   12CHL1    H8  829   3.338   1.139   9.780  2.6926 -2.3418 -1.1007
   12CHL1   C14  830   3.223   0.981   9.692 -0.2358 -0.5300  0.3947
   12CHL1   H14  831   3.168   0.895   9.736 -0.7849  0.2737  1.2971
   12CHL1   C15  832   3.318   0.904   9.585 -0.0135 -0.4494  1.0699
   12CHL1  H15A  833   3.394   0.969   9.537 -1.5402  0.3701 -0.2659
   12CHL1  H15B  834   3.381   0.830   9.640 -0.8553  1.2277  4.4243
   12CHL1   C16  835   3.214   0.861   9.482  0.2207 -0.7813  0.2390
   12CHL1  H16A  836   3.259   0.883   9.383 -1.9650 -2.4023 -1.1636
   12CHL1  H16B  837   3.186   0.754   9.494 -1.1277 -0.4422  0.1710
   12CHL1   C17  838   3.082   0.936   9.513  0.5169 -1.0810 -0.0327
   12CHL1   H17  839   3.015   0.865   9.568 -1.8181  0.0633 -1.3037
   12CHL1   C13  840   3.115   1.053   9.613  0.4856  0.3637  0.5327
   12CHL1   C18  841   3.179   1.172   9.551 -0.3513  0.3868 -0.2869
   12CHL1  H18A  842   3.217   1.245   9.625 -0.8201 -1.9109  2.2863
   12CHL1  H18B  843   3.263   1.133   9.490 -0.6265  1.1526 -1.1755
   12CHL1  H18C  844   3.104   1.227   9.489 -1.5550 -1.7923 -0.8065
   12CHL1   C12  845   2.995   1.085   9.707 -0.8208  0.4802 -0.5991
   12CHL1  H12A  846   2.934   1.155   9.647 -2.3672  0.0318  0.4013
   12CHL1  H12B  847   2.931   0.999   9.736 -0.6111  0.8058  0.8950
   12CHL1   C11  848   3.042   1.167   9.827 -0.0011  0.9691  0.3816
   12CHL1  H11A  849   3.062   1.271   9.792 -0.4908  0.7178 -0.6556
   12CHL1  H11B  850   2.957   1.173   9.898  0.7550  1.5286  1.2541
   12CHL1    C9  851   3.164   1.107   9.905  0.4646 -0.0345  0.5369
   12CHL1    H9  852   3.124   1.022   9.964  0.1180  0.4669  1.0326
   12CHL1   C10  853   3.230   1.202  10.008  0.8660 -0.2009 -0.6548
   12CHL1   C19  854   3.269   1.340   9.937  0.2779  0.0480 -0.2678
   12CHL1  H19A  855   3.283   1.331   9.827 -1.6219 -1.0591 -0.4484
   12CHL1  H19B  856   3.176   1.400   9.947  1.4743  1.7772  0.7073
   12CHL1  H19C  857   3.356   1.397   9.976 -0.3645  0.9371 -0.0913
   12CHL1    C1  858   3.127   1.239  10.126 -0.3784  0.4492  0.1932
   12CHL1   H1A  859   3.039   1.293  10.085 -1.4335 -0.6442  0.9875
   12CHL1   H1B  860   3.088   1.142  10.163 -0.5959 -0.0821 -1.4031
   12CHL1    C2  861   3.187   1.325  10.241 -0.0528 -0.8830 -0.2558
   12CHL1   H2A  862   3.108   1.318  10.319 -0.9292 -2.4139 -1.2448
   12CHL1   H2B  863   3.204   1.431  10.212 -0.0637 -1.6928 -3.4149
   12CHL1   C20  864   3.001   0.981   9.389 -0.1785  0.1649 -0.3104
   12CHL1   H20  865   2.958   1.081   9.413 -0.2101  0.1072 -0.1265
   12CHL1   C21  866   2.877   0.893   9.365  0.5553 -0.2200 -0.7701
   12CHL1  H21A  867   2.826   0.907   9.267  0.4883 -0.3687 -0.7573
   12CHL1  H21B  868   2.802   0.911   9.445  0.2332  0.5138 -1.2302
   12CHL1  H21C  869   2.904   0.785   9.369  0.2655 -0.2684  0.0612
   12CHL1   C22  870   3.082   1.022   9.263  0.6015 -0.1071  0.8260
   12CHL1  H22A  871   3.174   1.081   9.286  0.2218  0.8779 -0.1165
   12CHL1  H22B  872   3.116   0.924   9.224 -0.5570 -0.6969  1.2826
   12CHL1   C23  873   2.996   1.094   9.162  0.1497 -0.3881  0.5125
   12CHL1  H23A  874   2.912   1.035   9.120  0.4862 -1.2340  0.9980
   12CHL1  H23B  875   2.948   1.179   9.215  2.5307  1.1951  0.2085
   12CHL1   C24  876   3.083   1.151   9.050 -1.0055  0.0662 -0.6359
   12CHL1  H24A  877   3.181   1.194   9.080 -1.0069 -1.0274  0.9621
   12CHL1  H24B  878   3.113   1.059   8.994 -2.0858 -1.0429  0.5618
   12CHL1   C25  879   3.012   1.268   8.985 -0.0589  0.8289 -0.0881
   12CHL1   H25  880   2.997   1.346   9.063 -1.4279  0.0298  0.4718
   12CHL1   C26  881   3.077   1.331   8.861  0.2589  0.4732  0.1502
   12CHL1  H26A  882   3.011   1.407   8.812 -1.2685  0.4941  2.1595
   12CHL1  H26B  883   3.170   1.379   8.897 -1.1434  3.7061 -0.3403
   12CHL1  H26C  884   3.102   1.250   8.790 -1.4031 -0.5908  0.7505
   12CHL1   C27  885   2.875   1.220   8.937 -0.3597  0.5036 -0.4439
   12CHL1  H27A  886   2.803   1.221   9.021 -2.8456 -3.2504 -2.4184
   12CHL1  H27B  887   2.836   1.279   8.851 -0.5470  1.5247  0.3341
   12CHL1  H27C  888   2.888   1.114   8.908 -0.4935  0.9004 -2.0363
   13CHL1    C3  889   1.731   3.474   9.723  0.2137 -0.1884 -0.7272
   13CHL1    H3  890   1.801   3.559   9.703  0.4555 -0.7570 -2.3538
   13CHL1    O3  891   1.713   3.465   9.864 -0.9372 -0.2355 -0.0389
   13CHL1   H3'  892   1.650   3.393   9.875  2.1174 -3.2221 -1.0935
   13CHL1    C4  893   1.595   3.485   9.657  0.7751 -0.0565  0.4061
   13CHL1   H4A  894   1.528   3.402   9.690  1.2064 -0.0907  1.2235
   13CHL1   H4B  895   1.543   3.573   9.700  0.7444  0.2395 -0.2292
   13CHL1    C5  896   1.602   3.495   9.508  0.0433 -0.2544 -0.7123
   13CHL1    C6  897   1.549   3.599   9.445  0.7095 -0.3046  0.1553
   13CHL1    H6  898   1.501   3.684   9.495 -0.8546 -1.5360  0.7811
   13CHL1    C7  899   1.542   3.609   9.293  0.4821 -0.8773  0.3063
   13CHL1   H7A  900   1.442   3.635   9.251 -0.0041 -2.4459  0.4781
   13CHL1   H7B  901   1.601   3.699   9.266  2.2122 -2.2440 -0.6027
   13CHL1    C8  902   1.593   3.480   9.229 -0.4943  0.2502 -0.2308
   13CHL1    H8  903   1.507   3.410   9.233 -1.4382  1.4521  0.9176
   13CHL1   C14  904   1.634   3.515   9.085 -0.2385  0.4241  0.0386
   13CHL1   H14  905   1.711   3.595   9.091 -1.1888  1.2540  1.4600
   13CHL1   C15  906   1.529   3.582   8.990 -0.2537 -0.2278 -0.1023
   13CHL1  H15A  907   1.427   3.540   8.998 -0.8196  1.1319 -0.0583
   13CHL1  H15B  908   1.504   3.688   9.011  1.0631  0.1448 -0.3895
   13CHL1   C16  909   1.593   3.550   8.846 -0.0736 -0.2676  0.4419
   13CHL1  H16A  910   1.512   3.499   8.790 -1.1825  0.6415  1.1845
   13CHL1  H16B  911   1.619   3.644   8.793 -2.7705 -0.0454 -0.5801
   13CHL1   C17  912   1.718   3.472   8.869 -0.3666 -0.0972 -0.9836
   13CHL1   H17  913   1.796   3.546   8.897 -0.3691 -0.4420 -0.0662
   13CHL1   C13  914   1.695   3.397   9.002 -0.1449 -0.3070 -0.2172
   13CHL1   C18  915   1.583   3.289   8.989  0.2990  0.8164  0.7611
   13CHL1  H18A  916   1.620   3.199   8.935  0.9158  2.7365 -2.1032
   13CHL1  H18B  917   1.548   3.268   9.092 -0.3924 -1.2994  0.1375
   13CHL1  H18C  918   1.494   3.318   8.929  0.3390 -1.5385 -0.5282
   13CHL1   C12  919   1.819   3.343   9.075 -0.1836 -0.5623 -0.2369
   13CHL1  H12A  920   1.855   3.251   9.025 -0.1508 -0.4324 -0.4525
   13CHL1  H12B  921   1.896   3.423   9.077 -4.2321  3.5683 -0.9689
   13CHL1   C11  922   1.792   3.306   9.219 -0.4973 -0.5527 -0.1150
   13CHL1  H11A  923   1.734   3.211   9.223  0.3535 -1.0375  1.1314
   13CHL1  H11B  924   1.892   3.298   9.266 -0.2987  1.2293 -0.1791
   13CHL1    C9  925   1.714   3.420   9.298 -0.8558  0.4388  0.4090
   13CHL1    H9  926   1.790   3.501   9.294 -0.1472 -0.1496  1.4802
   13CHL1   C10  927   1.682   3.391   9.446  0.1136  0.2411 -0.2293
   13CHL1   C19  928   1.595   3.257   9.450 -0.4338  0.5033 -0.4156
   13CHL1  H19A  929   1.560   3.227   9.551  1.2730  0.4925  0.2000
   13CHL1  H19B  930   1.507   3.264   9.384  0.0513  0.8146 -1.0374
   13CHL1  H19C  931   1.649   3.167   9.414 -0.1372 -0.7031  2.8441
   13CHL1    C1  932   1.815   3.358   9.518  0.0780  0.4231  0.3125
   13CHL1   H1A  933   1.847   3.260   9.476  1.5796  1.4109 -0.8980
   13CHL1   H1B  934   1.895   3.428   9.487  1.6176 -1.4189  0.0013
   13CHL1    C2  935   1.805   3.350   9.674  0.2229 -0.8910 -0.2403
   13CHL1   H2A  936   1.909   3.336   9.710 -0.2835  1.1972  2.1429
   13CHL1   H2B  937   1.736   3.268   9.704 -1.7248  0.4868 -0.8236
   13CHL1   C20  938   1.771   3.400   8.744 -0.1120  0.4809 -0.1786
   13CHL1   H20  939   1.839   3.324   8.790  1.5524  3.5485  2.6786
   13CHL1   C21  940   1.849   3.502   8.664 -0.4571 -0.1204 -0.9857
   13CHL1  H21A  941   1.793   3.597   8.648 -0.9052  0.0103  1.1922
   13CHL1  H21B  942   1.880   3.457   8.567  0.5702 -1.8720  0.1514
   13CHL1  H21C  943   1.939   3.540   8.717 -2.2708  0.8948  1.4250
   13CHL1   C22  944   1.667   3.325   8.660  0.2644 -0.5707 -0.3078
   13CHL1  H22A  945   1.602   3.260   8.722  0.3122  0.0572  0.3999
   13CHL1  H22B  946   1.596   3.393   8.606 -1.5517 -1.0546  1.4093
   13CHL1   C23  947   1.738   3.232   8.560  0.3380 -0.2447 -0.4312
   13CHL1  H23A  948   1.760   3.283   8.464 -0.9121 -1.0465 -1.1566
   13CHL1  H23B  949   1.842   3.216   8.597 -0.1717 -0.0780  1.1216
   13CHL1   C24  950   1.677   3.090   8.551 -0.2735  0.6106 -0.0979
   13CHL1  H24A  951   1.751   3.029   8.497 -1.1601  0.0881 -0.7285
   13CHL1  H24B  952   1.674   3.057   8.657 -1.3083 -1.3306 -0.7024
   13CHL1   C25  953   1.543   3.085   8.474  0.0854 -0.9392 -0.4271
   13CHL1   H25  954   1.471   3.148   8.530  0.6919  1.6428 -2.4408
   13CHL1   C26  955   1.553   3.129   8.329 -0.3967  0.5196  0.0094
   13CHL1  H26A  956   1.568   3.239   8.320 -1.8920  0.9785  2.6392
   13CHL1  H26B  957   1.629   3.072   8.271  0.1827  1.0716  0.2159
   13CHL1  H26C  958   1.461   3.099   8.275  0.9692 -1.2085 -1.4252
   13CHL1   C27  959   1.479   2.946   8.494  0.2747 -0.0785 -0.7139
   13CHL1  H27A  960   1.375   2.940   8.456 -0.3445 -0.2798  0.9604
   13CHL1  H27B  961   1.548   2.874   8.444  1.5727  1.0924 -0.6370
   13CHL1  H27C  962   1.474   2.921   8.603 -1.2648 -2.6718 -1.3328
   14CHL1    C3  963   2.113   6.359  10.285 -1.0699  0.7928  1.0369
   14CHL1    H3  964   2.142   6.453  10.233  0.5072 -0.5048 -0.4711
   14CHL1    O3  965   2.108   6.399  10.422 -0.2502 -0.3711  0.3833
   14CHL1   H3'  966   2.016   6.375  10.436 -0.6505  1.5520  1.2164
   14CHL1    C4  967   1.981   6.302  10.237  0.2412  0.5596 -0.0713
   14CHL1   H4A  968   1.970   6.206  10.291  1.4070  1.0145  1.0203
   14CHL1   H4B  969   1.908   6.383  10.260 -0.9702 -0.4802 -0.2373
   14CHL1    C5  970   1.988   6.273  10.092 -0.8924  0.3358 -0.1392
   14CHL1    C6  971   1.904   6.332  10.002 -0.0457 -0.0178 -1.0929
   14CHL1    H6  972   1.831   6.403  10.044 -0.5328 -2.0581  1.6276
   14CHL1    C7  973   1.901   6.295   9.861  0.8518 -0.1674 -0.7321
   14CHL1   H7A  974   1.798   6.284   9.819 -0.1793  0.9650  1.4056
   14CHL1   H7B  975   1.946   6.381   9.807 -3.3622  0.3093 -3.7402
   14CHL1    C8  976   1.985   6.177   9.813 -0.9254  0.2600 -0.1007
   14CHL1    H8  977   1.932   6.086   9.850  0.7259 -0.8473 -0.3911
   14CHL1   C14  978   2.008   6.194   9.662  0.2885  0.8996 -0.2512
   14CHL1   H14  979   2.062   6.292   9.662  2.0481  0.0229  3.2723
   14CHL1   C15  980   1.885   6.211   9.571  0.8724 -0.1682  0.7065
   14CHL1  H15A  981   1.800   6.152   9.613 -0.1585  0.5438 -0.3391
   14CHL1  H15B  982   1.843   6.314   9.569  0.3490 -0.3739  0.9052
   14CHL1   C16  983   1.942   6.170   9.434  0.5371 -0.0874  0.6850
   14CHL1  H16A  984   1.870   6.095   9.393  0.2016  0.5696  0.0598
   14CHL1  H16B  985   1.944   6.264   9.374  0.9945 -2.1071 -2.6030
   14CHL1   C17  986   2.082   6.112   9.461 -0.5368  0.4331  0.0608
   14CHL1   H17  987   2.157   6.193   9.444 -0.1491  0.1681  0.5004
   14CHL1   C13  988   2.086   6.078   9.609  0.4742 -0.3202 -0.2187
   14CHL1   C18  989   2.018   5.941   9.628  0.2937  0.0529 -0.3028
   14CHL1  H18A  990   1.930   5.943   9.560  2.1343  1.6924 -2.7127
   14CHL1  H18B  991   2.086   5.864   9.586 -0.8154  0.3467 -2.7076
   14CHL1  H18C  992   1.983   5.930   9.733  2.2334 -0.8329  0.2761
   14CHL1   C12  993   2.224   6.087   9.681  1.0102  0.1101  0.1340
   14CHL1  H12A  994   2.287   6.001   9.649 -1.1596 -0.7563 -1.9541
   14CHL1  H12B  995   2.273   6.181   9.647 -0.1455  0.7244  0.1240
   14CHL1   C11  996   2.219   6.081   9.831 -0.0555 -0.4165 -0.0626
   14CHL1  H11A  997   2.178   5.978   9.843  3.5351 -1.8942  0.2931
   14CHL1  H11B  998   2.316   6.088   9.886 -0.2053  0.9356  0.0460
   14CHL1    C9  999   2.112   6.185   9.891 -0.3816 -0.5101  0.2798
   14CHL1    H9 1000   2.155   6.286   9.878  0.5674 -0.5904  2.5427
   14CHL1   C10 1001   2.092   6.170  10.046  0.1299  0.2457 -0.1853
   14CHL1   C19 1002   2.056   6.020  10.090  0.7550  0.4549 -0.0510
   14CHL1  H19A 1003   2.062   6.024  10.201  0.6174 -3.8387  0.2096
   14CHL1  H19B 1004   1.951   6.005  10.059  1.2550 -0.3840 -1.4511
   14CHL1  H19C 1005   2.118   5.944  10.036  0.0991 -0.4533  0.4544
   14CHL1    C1 1006   2.226   6.206  10.114 -0.0916  1.0995 -0.2537
   14CHL1   H1A 1007   2.308   6.132  10.099  0.0239  1.4555 -1.4768
   14CHL1   H1B 1008   2.278   6.293  10.067 -0.3643  1.6454  0.4556
   14CHL1    C2 1009   2.221   6.252  10.264 -0.0684 -0.3386 -0.0100
   14CHL1   H2A 1010   2.320   6.289  10.296 -0.7641  2.9235 -1.4169
   14CHL1   H2B 1011   2.192   6.161  10.321 -0.5374  0.4675  1.0410
   14CHL1   C20 1012   2.126   6.001   9.362  0.2018 -0.1135  0.3967
   14CHL1   H20 1013   2.046   5.924   9.368  0.1793 -0.1051  0.1895
   14CHL1   C21 1014   2.268   5.934   9.379  0.0622 -0.1696 -0.8142
   14CHL1  H21A 1015   2.280   5.892   9.482  3.6611  1.2785 -0.5766
   14CHL1  H21B 1016   2.351   6.004   9.358  1.6725 -1.2787  1.5748
   14CHL1  H21C 1017   2.271   5.852   9.305 -0.5616  0.9908 -2.1361
   14CHL1   C22 1018   2.117   6.045   9.208  0.3784  0.3793  0.4088
   14CHL1  H22A 1019   2.046   6.127   9.185  0.7155  0.1963 -1.3129
   14CHL1  H22B 1020   2.215   6.089   9.179 -0.0156  0.4230 -0.8589
   14CHL1   C23 1021   2.096   5.928   9.112  0.2517 -0.5887 -0.1680
   14CHL1  H23A 1022   2.140   5.832   9.146 -1.6857 -0.6304  2.4366
   14CHL1  H23B 1023   1.994   5.883   9.101  0.2483 -0.8050  0.6934
   14CHL1   C24 1024   2.142   5.957   8.967  0.3242  0.5405  0.0910
   14CHL1  H24A 1025   2.085   6.039   8.916  0.7110  0.7205 -0.0496
   14CHL1  H24B 1026   2.250   5.983   8.963 -0.1709  2.4405 -1.7501
   14CHL1   C25 1027   2.132   5.831   8.881 -0.6288 -0.0599  0.0698
   14CHL1   H25 1028   2.167   5.747   8.945  2.4725  0.5001 -0.8452
   14CHL1   C26 1029   1.985   5.799   8.831 -0.3818  0.2723  0.6705
   14CHL1  H26A 1030   1.963   5.883   8.763 -0.8311 -1.1204 -0.9286
   14CHL1  H26B 1031   1.976   5.699   8.783 -2.3890  1.2912 -1.1902
   14CHL1  H26C 1032   1.914   5.805   8.916 -0.3313 -1.2616  0.8303
   14CHL1   C27 1033   2.230   5.839   8.759 -0.5093 -0.9478 -0.5625
   14CHL1  H27A 1034   2.182   5.907   8.685 -0.7033 -0.5577 -0.0832
   14CHL1  H27B 1035   2.337   5.860   8.779 -0.0174  0.0083 -3.8609
   14CHL1  H27C 1036   2.222   5.735   8.720 -1.7807 -0.0116 -2.9129
   15CHL1    C3 1037   1.231   4.770   9.975 -0.4154 -0.0672 -0.5739
   15CHL1    H3 1038   1.262   4.673   9.932 -0.8870 -0.9021  0.9436
   15CHL1    O3 1039   1.199   4.752  10.112  0.0985 -0.0463  0.3757
   15CHL1   H3' 1040   1.287   4.749  10.150 -0.0169 -1.2202  0.5749
   15CHL1    C4 1041   1.345   4.872   9.972  0.2971 -0.8071 -0.5726
   15CHL1   H4A 1042   1.317   4.963  10.029 -0.8078 -0.2713 -1.9625
   15CHL1   H4B 1043   1.440   4.844  10.023  0.7574  1.0079 -0.4101
   15CHL1    C5 1044   1.378   4.917   9.828  0.3203 -0.5444 -0.4065
   15CHL1    C6 1045   1.503   4.910   9.779 -0.4611 -0.7249 -0.2987
   15CHL1    H6 1046   1.584   4.868   9.841 -0.4511 -3.4902 -2.1044
   15CHL1    C7 1047   1.555   4.954   9.646  0.2871 -0.1628  1.2706
   15CHL1   H7A 1048   1.630   5.035   9.662 -0.5782  0.7986  0.4954
   15CHL1   H7B 1049   1.593   4.866   9.590  1.6715  0.2454  1.5539
   15CHL1    C8 1050   1.438   5.014   9.563  0.1502  0.1805 -0.7883
   15CHL1    H8 1051   1.430   5.120   9.594 -3.1248  0.0019 -0.8378
   15CHL1   C14 1052   1.482   5.019   9.419 -0.0344  0.0195  0.5815
   15CHL1   H14 1053   1.488   4.911   9.394 -0.7291  0.1684 -0.2639
   15CHL1   C15 1054   1.614   5.077   9.378 -0.3358 -0.7518  0.1099
   15CHL1  H15A 1055   1.645   5.169   9.430 -2.0200  1.5769 -2.8459
   15CHL1  H15B 1056   1.686   4.994   9.396 -0.3728 -1.0483 -1.0819
   15CHL1   C16 1057   1.606   5.105   9.228 -0.2586  0.4411 -0.1058
   15CHL1  H16A 1058   1.632   5.213   9.216 -1.3097  0.7340  0.1885
   15CHL1  H16B 1059   1.680   5.036   9.182  0.0513  0.8555 -0.2400
   15CHL1   C17 1060   1.457   5.076   9.192 -0.6689  0.0326  0.6987
   15CHL1   H17 1061   1.448   4.970   9.159 -0.4257  0.5546 -1.0898
   15CHL1   C13 1062   1.380   5.082   9.324 -0.4479  0.4725 -0.0551
   15CHL1   C18 1063   1.350   5.229   9.363 -0.8892 -1.0100  0.4770
   15CHL1  H18A 1064   1.332   5.238   9.473  0.5519  0.1674  0.6326
   15CHL1  H18B 1065   1.443   5.288   9.351 -1.6214  0.0902  0.1516
   15CHL1  H18C 1066   1.264   5.272   9.308 -0.3698 -1.5985 -0.7964
   15CHL1   C12 1067   1.248   4.995   9.345  0.3777 -0.0179  0.1064
   15CHL1  H12A 1068   1.172   5.044   9.280  0.5568  0.6104  0.3637
   15CHL1  H12B 1069   1.265   4.889   9.320  1.5589  0.2115 -0.0936
   15CHL1   C11 1070   1.193   4.992   9.482 -0.6686 -0.4148  0.5037
   15CHL1  H11A 1071   1.146   5.087   9.517  1.2391  0.2515  1.2975
   15CHL1  H11B 1072   1.109   4.919   9.491 -0.8888 -0.0989  1.0675
   15CHL1    C9 1073   1.301   4.952   9.580  0.3362  0.1980 -0.4766
   15CHL1    H9 1074   1.318   4.844   9.559  3.4470  1.0109 -2.5771
   15CHL1   C10 1075   1.256   4.941   9.729 -0.0338 -0.5064  0.2940
   15CHL1   C19 1076   1.203   5.079   9.777 -0.0815  0.1249  0.7994
   15CHL1  H19A 1077   1.180   5.083   9.886 -1.9465 -0.3584  0.4394
   15CHL1  H19B 1078   1.271   5.163   9.750 -0.3099 -0.9276 -3.4541
   15CHL1  H19C 1079   1.107   5.108   9.729  1.1110  0.4322 -1.4293
   15CHL1    C1 1080   1.138   4.838   9.745  0.0551  0.1540 -0.3733
   15CHL1   H1A 1081   1.040   4.853   9.694 -0.1432 -1.1792 -0.4001
   15CHL1   H1B 1082   1.181   4.745   9.704  3.4256  1.1579  0.7298
   15CHL1    C2 1083   1.103   4.805   9.892  0.3373  0.2907  0.1017
   15CHL1   H2A 1084   1.019   4.732   9.896 -0.9940  1.7976  0.2610
   15CHL1   H2B 1085   1.060   4.897   9.937 -0.4054 -0.6758  1.3963
   15CHL1   C20 1086   1.402   5.163   9.071  0.6502 -0.1867  0.5375
   15CHL1   H20 1087   1.418   5.270   9.097  0.0634  0.4711 -1.7119
   15CHL1   C21 1088   1.253   5.143   9.042 -0.7686 -0.0953  0.2592
   15CHL1  H21A 1089   1.231   5.205   8.953 -0.2555  0.8886  0.7980
   15CHL1  H21B 1090   1.190   5.186   9.123  0.2791  1.0530  0.4834
   15CHL1  H21C 1091   1.236   5.034   9.028  2.1915 -0.4017 -1.4713
   15CHL1   C22 1092   1.488   5.141   8.946 -0.5043  0.0923 -0.4105
   15CHL1  H22A 1093   1.583   5.189   8.976 -1.5217  0.1072  2.9352
   15CHL1  H22B 1094   1.511   5.035   8.922  1.5803  0.5142 -0.4051
   15CHL1   C23 1095   1.425   5.192   8.809  0.5892  0.0415  0.2588
   15CHL1  H23A 1096   1.342   5.121   8.792  0.3664  0.1657  0.7964
   15CHL1  H23B 1097   1.382   5.294   8.824  1.0530  0.2294  0.3323
   15CHL1   C24 1098   1.522   5.210   8.694  0.1966 -0.3421 -0.4104
   15CHL1  H24A 1099   1.589   5.296   8.715 -0.8219  0.6969 -1.3316
   15CHL1  H24B 1100   1.573   5.111   8.691  0.2669 -0.5148  4.2151
   15CHL1   C25 1101   1.458   5.231   8.547  0.3575 -0.8132 -0.2502
   15CHL1   H25 1102   1.424   5.336   8.548  0.4611 -0.7825  0.5934
   15CHL1   C26 1103   1.574   5.223   8.447 -0.5389 -0.0545  0.2520
   15CHL1  H26A 1104   1.635   5.131   8.457 -1.1358 -0.7913 -2.3587
   15CHL1  H26B 1105   1.535   5.224   8.343 -0.0659 -0.1666  0.0745
   15CHL1  H26C 1106   1.648   5.305   8.463 -0.2910  0.3424 -2.6887
   15CHL1   C27 1107   1.345   5.136   8.512 -0.1933 -0.2432 -0.0852
   15CHL1  H27A 1108   1.339   5.102   8.407 -0.1146  0.0941 -0.1997
   15CHL1  H27B 1109   1.341   5.049   8.582  0.0201 -2.0597 -2.2740
   15CHL1  H27C 1110   1.246   5.180   8.536  0.0023  0.4009 -0.4663
   16CHL1    C3 1111   2.580   5.965  10.285  0.2870 -0.3640 -0.8283
   16CHL1    H3 1112   2.514   6.039  10.237  2.6587  2.3599 -0.0099
   16CHL1    O3 1113   2.558   5.956  10.422  0.1700 -0.0788  0.0514
   16CHL1   H3' 1114   2.620   5.887  10.448  1.5833  1.0816 -0.1470
   16CHL1    C4 1115   2.546   5.830  10.223  0.7359 -0.3600 -0.1411
   16CHL1   H4A 1116   2.620   5.759  10.266  0.4316 -0.3203  0.4414
   16CHL1   H4B 1117   2.443   5.798  10.250  0.9319  0.1029  1.1359
   16CHL1    C5 1118   2.564   5.828  10.071 -0.3093  0.2309  0.1630
   16CHL1    C6 1119   2.469   5.786   9.984  0.1982 -0.8042  0.2290
   16CHL1    H6 1120   2.377   5.741  10.023 -0.1765  0.2784  0.6174
   16CHL1    C7 1121   2.478   5.788   9.838  0.3043 -0.0363  0.6028
   16CHL1   H7A 1122   2.441   5.696   9.788 -0.0027 -0.9106  2.3810
   16CHL1   H7B 1123   2.413   5.868   9.797  0.9796  0.0760 -0.2582
   16CHL1    C8 1124   2.622   5.813   9.787 -0.3475  0.2373  0.0011
   16CHL1    H8 1125   2.679   5.719   9.801 -0.2392  0.4200  0.8198
   16CHL1   C14 1126   2.625   5.846   9.639 -0.4355 -0.4887  0.2374
   16CHL1   H14 1127   2.567   5.940   9.627  0.9154  0.3338  0.0741
   16CHL1   C15 1128   2.551   5.750   9.544  0.2575  0.0420  0.2060
   16CHL1  H15A 1129   2.562   5.640   9.559  0.1111  0.1947  1.4893
   16CHL1  H15B 1130   2.444   5.776   9.531  0.2796  0.8111  1.4086
   16CHL1   C16 1131   2.626   5.779   9.409  0.0111 -0.4417 -0.2653
   16CHL1  H16A 1132   2.671   5.689   9.362 -2.7110 -0.9988 -1.8767
   16CHL1  H16B 1133   2.548   5.805   9.335 -0.5767 -0.4618  0.3458
   16CHL1   C17 1134   2.731   5.884   9.431 -1.0597  0.2157 -0.5744
   16CHL1   H17 1135   2.684   5.981   9.406 -0.7935  0.2658 -0.8896
   16CHL1   C13 1136   2.768   5.873   9.581 -0.3102  0.0636  0.4499
   16CHL1   C18 1137   2.860   5.747   9.599  0.2689 -0.5548 -0.4979
   16CHL1  H18A 1138   2.957   5.761   9.546  0.0653  2.9823 -0.0861
   16CHL1  H18B 1139   2.886   5.736   9.707  1.2501 -1.3902 -0.8138
   16CHL1  H18C 1140   2.803   5.660   9.561 -0.9544 -0.3126  0.7333
   16CHL1   C12 1141   2.823   5.990   9.657  0.7231 -0.2604  0.5527
   16CHL1  H12A 1142   2.929   6.005   9.627  1.1229 -2.8261  0.5574
   16CHL1  H12B 1143   2.761   6.080   9.638 -1.0024 -1.1980  1.5777
   16CHL1   C11 1144   2.827   5.965   9.809  0.2581 -0.4082  0.3672
   16CHL1  H11A 1145   2.895   5.879   9.826 -0.2131 -0.5342  1.6669
   16CHL1  H11B 1146   2.866   6.056   9.861  2.1715 -0.8918 -0.1676
   16CHL1    C9 1147   2.690   5.926   9.871  0.0770 -0.2434 -0.0169
   16CHL1    H9 1148   2.629   6.018   9.863 -0.2762 -0.5194 -0.5536
   16CHL1   C10 1149   2.698   5.885  10.022 -0.1713  0.7097 -0.1700
   16CHL1   C19 1150   2.803   5.774  10.040  0.4977  0.3764  0.3516
   16CHL1  H19A 1151   2.907   5.804  10.015  0.5056  0.1713  0.1384
   16CHL1  H19B 1152   2.806   5.756  10.149  2.0406 -0.6600  0.1543
   16CHL1  H19C 1153   2.777   5.686   9.977  1.4617 -0.9543  1.8000
   16CHL1    C1 1154   2.746   6.009  10.109  0.8182 -0.2061  0.3529
   16CHL1   H1A 1155   2.852   6.038  10.092  0.0090  1.5549 -2.1659
   16CHL1   H1B 1156   2.689   6.102  10.085 -1.5522 -1.7783 -0.2431
   16CHL1    C2 1157   2.729   5.998  10.265  0.1296  0.2878  0.4166
   16CHL1   H2A 1158   2.758   6.092  10.317  2.0547  0.4455 -0.8786
   16CHL1   H2B 1159   2.785   5.907  10.296  1.2691  0.0075 -2.3186
   16CHL1   C20 1160   2.852   5.876   9.331 -0.1429  0.6591  0.0196
   16CHL1   H20 1161   2.917   5.789   9.357 -2.7893 -1.1399  0.8465
   16CHL1   C21 1162   2.941   5.998   9.329  0.0050 -0.0936 -0.7251
   16CHL1  H21A 1163   3.006   6.007   9.240  1.2801  1.3408  0.3236
   16CHL1  H21B 1164   3.010   6.003   9.416  1.1323 -0.8500 -1.5693
   16CHL1  H21C 1165   2.882   6.092   9.331  0.6422  0.3397 -2.1641
   16CHL1   C22 1166   2.815   5.837   9.179 -0.7526 -0.7211 -0.3604
   16CHL1  H22A 1167   2.906   5.818   9.118  0.7782  0.2999  1.5123
   16CHL1  H22B 1168   2.766   5.738   9.180  0.5148 -1.3546 -0.6082
   16CHL1   C23 1169   2.718   5.945   9.114  0.1473  0.2011  0.3286
   16CHL1  H23A 1170   2.626   5.960   9.173 -0.3550  0.3828 -0.4925
   16CHL1  H23B 1171   2.781   6.036   9.124  2.0639 -0.9010 -1.1832
   16CHL1   C24 1172   2.684   5.912   8.964 -0.6910  0.0594 -0.4122
   16CHL1  H24A 1173   2.644   5.809   8.961  3.5272 -1.7371  0.9972
   16CHL1  H24B 1174   2.609   5.982   8.921 -0.4677 -0.8578 -2.3474
   16CHL1   C25 1175   2.812   5.904   8.881  0.4902 -0.4720 -0.0624
   16CHL1   H25 1176   2.903   5.866   8.932  1.3764  1.6360  0.0035
   16CHL1   C26 1177   2.796   5.819   8.752  0.4659 -0.2693  0.3341
   16CHL1  H26A 1178   2.733   5.874   8.679 -0.6869 -0.5246  1.1226
   16CHL1  H26B 1179   2.896   5.811   8.706  0.4667 -0.1593  0.3201
   16CHL1  H26C 1180   2.742   5.724   8.775 -0.5808 -0.2730 -2.0803
   16CHL1   C27 1181   2.856   6.053   8.840  0.1461 -0.1980 -0.0042
   16CHL1  H27A 1182   2.904   6.060   8.740  1.1634 -1.1849  0.4023
   16CHL1  H27B 1183   2.763   6.113   8.837  0.1960 -0.1478 -0.7197
   16CHL1  H27C 1184   2.919   6.084   8.926 -0.7798 -3.7830  2.0774
   17CHL1    C3 1185   5.087   3.159  10.419  0.0425  0.1683 -0.3133
   17CHL1    H3 1186   4.998   3.093  10.413 -0.3436  0.3649  2.4735
   17CHL1    O3 1187   5.112   3.180  10.564  0.2516  0.0036  0.2608
   17CHL1   H3' 1188   5.053   3.254  10.582  0.7003 -0.3173  3.1552
   17CHL1    C4 1189   5.213   3.082  10.367 -0.0124  1.0294  0.3454
   17CHL1   H4A 1190   5.297   3.152  10.387  1.7190 -0.7303 -0.6552
   17CHL1   H4B 1191   5.241   2.996  10.431 -0.5837 -1.1511 -2.2460
   17CHL1    C5 1192   5.216   3.058  10.215  0.6044  0.7829 -0.3421
   17CHL1    C6 1193   5.242   2.940  10.162 -0.4602  0.1792 -0.5166
   17CHL1    H6 1194   5.263   2.858  10.233 -0.6588 -0.3309 -1.0368
   17CHL1    C7 1195   5.241   2.906  10.014  0.2129 -0.6051  0.2303
   17CHL1   H7A 1196   5.332   2.844  10.000  0.4491 -0.2975  0.4019
   17CHL1   H7B 1197   5.154   2.841   9.991 -0.2228  0.1122 -0.1428
   17CHL1    C8 1198   5.232   3.042   9.935 -0.3596  0.8560 -0.1716
   17CHL1    H8 1199   5.332   3.090   9.937  0.4335 -0.8083  0.6678
   17CHL1   C14 1200   5.198   3.010   9.785  0.3869  0.0607 -1.0822
   17CHL1   H14 1201   5.100   2.959   9.791  0.3375  0.2117 -0.5710
   17CHL1   C15 1202   5.284   2.900   9.712 -0.2942 -0.6761  0.0380
   17CHL1  H15A 1203   5.391   2.922   9.735 -0.6054  0.0716  0.7998
   17CHL1  H15B 1204   5.253   2.801   9.751 -0.9924  0.0702  1.4174
   17CHL1   C16 1205   5.248   2.929   9.561  0.0405  0.0533 -0.2190
   17CHL1  H16A 1206   5.347   2.945   9.514 -0.5935  0.5541 -1.4183
   17CHL1  H16B 1207   5.198   2.835   9.531 -2.5342  1.2177  0.2190
   17CHL1   C17 1208   5.170   3.061   9.553  0.1238 -1.1000  0.3745
   17CHL1   H17 1209   5.062   3.032   9.558 -0.8105  2.5079  2.9347
   17CHL1   C13 1210   5.187   3.125   9.691  0.0410 -0.7986  0.0314
   17CHL1   C18 1211   5.312   3.215   9.686  0.0163  0.3299  0.2301
   17CHL1  H18A 1212   5.285   3.319   9.657 -0.5899  0.5375  1.4992
   17CHL1  H18B 1213   5.372   3.220   9.779 -0.4159  2.7150  0.4067
   17CHL1  H18C 1214   5.383   3.174   9.611  0.6436  0.7542  0.5872
   17CHL1   C12 1215   5.068   3.208   9.748  0.4760  0.4471 -0.8303
   17CHL1  H12A 1216   5.042   3.301   9.693  0.8893  0.3786 -1.1480
   17CHL1  H12B 1217   4.978   3.145   9.730  1.2983  0.0122 -3.6954
   17CHL1   C11 1218   5.101   3.261   9.892  0.0711 -0.2724  0.4045
   17CHL1  H11A 1219   5.182   3.337   9.886  0.9670 -1.2870 -0.8179
   17CHL1  H11B 1220   5.008   3.310   9.927 -0.4067  0.0296 -1.2617
   17CHL1    C9 1221   5.137   3.145   9.992 -0.2871  0.2325  0.0692
   17CHL1    H9 1222   5.039   3.093  10.002 -0.7829  1.0035 -0.6770
   17CHL1   C10 1223   5.175   3.186  10.140  0.1989  0.2481  0.5272
   17CHL1   C19 1224   5.301   3.276  10.138 -0.4291  0.7919  0.1538
   17CHL1  H19A 1225   5.284   3.384  10.119  0.9014  1.3236  1.8607
   17CHL1  H19B 1226   5.371   3.262  10.223  0.3880 -0.0023 -0.6349
   17CHL1  H19C 1227   5.366   3.242  10.054 -0.0435  1.6950  0.0816
   17CHL1    C1 1228   5.057   3.259  10.201 -0.1871  0.1671  0.5820
   17CHL1   H1A 1229   5.037   3.353  10.145 -0.1215 -0.7460 -1.0072
   17CHL1   H1B 1230   4.960   3.209  10.180  0.0059 -1.0834  2.5635
   17CHL1    C2 1231   5.065   3.296  10.348 -0.1786  0.9740  0.1633
   17CHL1   H2A 1232   4.973   3.350  10.380 -1.2962  1.1303 -3.0971
   17CHL1   H2B 1233   5.141   3.372  10.375 -1.1171  2.0501 -0.1437
   17CHL1   C20 1234   5.193   3.132   9.416  0.0473  0.0132 -0.1711
   17CHL1   H20 1235   5.300   3.155   9.398 -0.0672 -0.8480 -1.9941
   17CHL1   C21 1236   5.115   3.265   9.408  0.1718 -0.6054 -0.6208
   17CHL1  H21A 1237   5.123   3.322   9.313 -0.0583  0.2474 -0.1372
   17CHL1  H21B 1238   5.153   3.338   9.482 -0.9243 -2.2517  1.6065
   17CHL1  H21C 1239   5.009   3.235   9.421  0.4531 -1.5714 -0.5026
   17CHL1   C22 1240   5.151   3.035   9.299 -0.5954  0.0411 -0.2367
   17CHL1  H22A 1241   5.209   2.941   9.304  1.5966  1.3299 -0.8211
   17CHL1  H22B 1242   5.043   3.013   9.286 -0.8118  1.2455 -0.5893
   17CHL1   C23 1243   5.178   3.097   9.162  0.2086 -0.4307 -0.5610
   17CHL1  H23A 1244   5.102   3.174   9.138  1.9575  0.8173 -2.3109
   17CHL1  H23B 1245   5.277   3.147   9.172 -1.2477  2.9894 -2.5167
   17CHL1   C24 1246   5.165   2.997   9.048  0.0880  1.0352 -0.3916
   17CHL1  H24A 1247   5.213   2.898   9.065 -0.5115  0.8397  0.1773
   17CHL1  H24B 1248   5.061   2.966   9.025  0.3852 -0.8057  0.6828
   17CHL1   C25 1249   5.231   3.055   8.920  0.3522  0.2571  0.2754
   17CHL1   H25 1250   5.210   3.164   8.915 -0.2834  0.1938  1.4202
   17CHL1   C26 1251   5.381   3.045   8.926 -0.6871 -0.0159 -0.5469
   17CHL1  H26A 1252   5.427   3.106   9.006 -0.5050  0.2089 -0.8251
   17CHL1  H26B 1253   5.410   2.939   8.943 -0.3759  0.0646 -0.5905
   17CHL1  H26C 1254   5.417   3.077   8.826  1.1202 -0.1525  0.0468
   17CHL1   C27 1255   5.161   2.977   8.807 -0.3697  0.3194  0.2200
   17CHL1  H27A 1256   5.051   2.996   8.816 -0.1699  1.1648  1.0079
   17CHL1  H27B 1257   5.202   3.013   8.711  1.5484 -1.6693  0.2598
   17CHL1  H27C 1258   5.191   2.870   8.815  2.3377  1.0044 -0.5288
   18CHL1    C3 1259   3.883   1.754  10.053 -0.3201 -0.3364 -0.7414
   18CHL1    H3 1260   3.855   1.648  10.072  1.6130 -0.5632  1.0108
   18CHL1    O3 1261   3.878   1.819  10.181  0.0756 -0.1897 -0.1546
   18CHL1   H3' 1262   3.785   1.837  10.194 -0.3967 -2.9728  0.6067
   18CHL1    C4 1263   4.024   1.760  10.004  0.3029 -0.1523  0.4842
   18CHL1   H4A 1264   4.064   1.864  10.002 -1.1223  0.3837 -1.1863
   18CHL1   H4B 1265   4.091   1.707  10.076 -0.1339 -1.0217  0.2512
   18CHL1    C5 1266   4.045   1.706   9.869  0.2622  0.0938 -0.1824
   18CHL1    C6 1267   4.130   1.606   9.834 -0.2620  0.0015 -0.1004
   18CHL1    H6 1268   4.203   1.553   9.897 -0.3835 -1.5207 -1.2145
   18CHL1    C7 1269   4.144   1.563   9.696 -0.4887  0.1473  0.1753
   18CHL1   H7A 1270   4.253   1.575   9.677 -0.9626 -0.7952 -3.6644
   18CHL1   H7B 1271   4.112   1.456   9.692 -0.5514  0.1099  1.4528
   18CHL1    C8 1272   4.077   1.646   9.583  0.5408 -0.0459  1.1527
   18CHL1    H8 1273   4.125   1.745   9.564 -1.1032  0.2576 -1.5616
   18CHL1   C14 1274   4.068   1.555   9.458  0.1500  0.4506 -0.4396
   18CHL1   H14 1275   4.006   1.467   9.484 -3.2137  3.1589  1.1258
   18CHL1   C15 1276   4.195   1.486   9.396 -0.6289 -0.2346  0.1900
   18CHL1  H15A 1277   4.272   1.567   9.395 -0.7478 -0.1148  0.5925
   18CHL1  H15B 1278   4.221   1.411   9.473 -1.8785  2.1787  3.0672
   18CHL1   C16 1279   4.135   1.449   9.260 -0.2738  0.5033 -0.3338
   18CHL1  H16A 1280   4.204   1.484   9.181  2.8648  0.9974  2.5005
   18CHL1  H16B 1281   4.118   1.339   9.256  2.6420  0.0927 -3.6146
   18CHL1   C17 1282   4.003   1.524   9.232 -0.6004  0.4232 -0.3447
   18CHL1   H17 1283   3.921   1.452   9.253 -1.2783  0.5913 -2.2759
   18CHL1   C13 1284   3.992   1.624   9.343 -0.7535 -0.6249 -0.0630
   18CHL1   C18 1285   4.065   1.754   9.297 -0.0533 -0.1287 -0.0339
   18CHL1  H18A 1286   4.166   1.734   9.255  0.5033 -1.3095  1.7941
   18CHL1  H18B 1287   4.007   1.808   9.220 -0.1627 -1.2115 -0.7211
   18CHL1  H18C 1288   4.097   1.827   9.374 -0.2054  0.3553 -0.4301
   18CHL1   C12 1289   3.854   1.674   9.387  0.3431  0.5345 -0.1536
   18CHL1  H12A 1290   3.802   1.735   9.310 -1.0758  0.9359  1.1104
   18CHL1  H12B 1291   3.792   1.583   9.396  0.5594  0.4180  0.1630
   18CHL1   C11 1292   3.865   1.764   9.514  0.5286 -0.1530  0.0934
   18CHL1  H11A 1293   3.928   1.853   9.492 -1.2625  1.0325 -0.3457
   18CHL1  H11B 1294   3.762   1.791   9.545  1.4485  0.4014  2.8194
   18CHL1    C9 1295   3.935   1.689   9.633 -0.6651  0.1552  0.5074
   18CHL1    H9 1296   3.882   1.592   9.648 -0.6948  0.2987  1.3979
   18CHL1   C10 1297   3.942   1.766   9.768  0.7234 -0.8376 -0.1421
   18CHL1   C19 1298   3.988   1.913   9.732 -0.7200 -0.3415 -0.2720
   18CHL1  H19A 1299   3.900   1.973   9.702 -0.9611 -0.6413 -0.1591
   18CHL1  H19B 1300   4.032   1.968   9.818 -1.4684  3.7907 -2.3896
   18CHL1  H19C 1301   4.061   1.910   9.648  0.7601 -3.0497  1.0345
   18CHL1    C1 1302   3.798   1.758   9.820 -0.2518 -0.2105 -0.6131
   18CHL1   H1A 1303   3.741   1.822   9.749 -0.0964 -1.8998 -2.2815
   18CHL1   H1B 1304   3.760   1.654   9.813 -3.1205  0.6055  1.6933
   18CHL1    C2 1305   3.779   1.813   9.961 -0.0825 -0.0661 -0.1013
   18CHL1   H2A 1306   3.673   1.804   9.993 -0.2316  0.9182 -0.3086
   18CHL1   H2B 1307   3.803   1.921   9.953 -1.6326  0.4947  2.3140
   18CHL1   C20 1308   3.967   1.567   9.085  0.2624  0.3407  0.7162
   18CHL1   H20 1309   4.023   1.657   9.052 -0.7191  1.1163  1.1333
   18CHL1   C21 1310   3.817   1.607   9.073 -0.1986  0.3567 -0.0328
   18CHL1  H21A 1311   3.753   1.521   9.101  0.7648  0.3532  2.2741
   18CHL1  H21B 1312   3.788   1.621   8.967 -1.1967 -0.9722  0.0540
   18CHL1  H21C 1313   3.797   1.698   9.134  1.4902  1.3301 -0.9008
   18CHL1   C22 1314   4.002   1.450   8.986 -0.4637 -1.0111  0.5000
   18CHL1  H22A 1315   4.108   1.428   9.014 -0.0701  0.3235  0.1081
   18CHL1  H22B 1316   3.942   1.357   8.991 -0.1574 -1.4666 -2.8016
   18CHL1   C23 1317   3.993   1.491   8.833  0.0496 -0.0950 -0.8301
   18CHL1  H23A 1318   4.033   1.397   8.788  0.4287 -1.5306  2.3800
   18CHL1  H23B 1319   3.892   1.522   8.800  0.2015  1.1470 -0.1391
   18CHL1   C24 1320   4.092   1.608   8.799  0.9293  0.7646 -0.5075
   18CHL1  H24A 1321   4.053   1.702   8.842 -1.1775 -0.2932 -0.0451
   18CHL1  H24B 1322   4.183   1.587   8.859  0.8394  0.3311 -0.5243
   18CHL1   C25 1323   4.148   1.601   8.650 -1.2726 -0.1270  0.4212
   18CHL1   H25 1324   4.199   1.503   8.640  0.9655  0.6141  3.9474
   18CHL1   C26 1325   4.033   1.625   8.554  0.5407  0.0981 -0.1563
   18CHL1  H26A 1326   4.077   1.641   8.453 -1.1678 -0.2654 -0.9672
   18CHL1  H26B 1327   3.962   1.540   8.559  0.0761  0.6190  2.9624
   18CHL1  H26C 1328   3.976   1.718   8.573  1.6122  0.6224  0.5739
   18CHL1   C27 1329   4.253   1.719   8.641 -0.6337  0.1483 -0.1051
   18CHL1  H27A 1330   4.290   1.746   8.540 -1.4649  2.5095  0.2059
   18CHL1  H27B 1331   4.205   1.813   8.674  0.9724  1.1838 -0.6485
   18CHL1  H27C 1332   4.330   1.680   8.712 -1.7109  1.4967  1.8560
   19CHL1    C3 1333   1.662   4.557  10.071  0.3090  0.0134 -0.0914
   19CHL1    H3 1334   1.602   4.650  10.064  0.2370 -0.1138 -1.1212
   19CHL1    O3 1335   1.655   4.510  10.205 -0.5159  0.0199  0.2567
   19CHL1   H3' 1336   1.639   4.415  10.203 -1.0363  0.1248 -3.2500
   19CHL1    C4 1337   1.580   4.452   9.998  0.4523 -0.5900 -0.5364
   19CHL1   H4A 1338   1.624   4.352  10.015  2.2363  0.2195 -0.2797
   19CHL1   H4B 1339   1.477   4.450  10.042  0.5815 -3.2959 -0.3061
   19CHL1    C5 1340   1.567   4.476   9.850  0.6439 -0.5506  0.4630
   19CHL1    C6 1341   1.444   4.485   9.797 -0.5468 -0.6514 -0.7777
   19CHL1    H6 1342   1.349   4.468   9.849  0.6166 -2.1141  0.9361
   19CHL1    C7 1343   1.415   4.517   9.652  0.6832  0.2076 -0.5100
   19CHL1   H7A 1344   1.337   4.455   9.604  0.1504  1.7756 -1.7294
   19CHL1   H7B 1345   1.381   4.623   9.653  0.6387  0.1911 -0.2836
   19CHL1    C8 1346   1.545   4.513   9.565 -0.4549 -0.0155  0.6181
   19CHL1    H8 1347   1.552   4.407   9.533  1.6245  0.6004 -1.1270
   19CHL1   C14 1348   1.526   4.588   9.440  0.3176  0.9313  0.4311
   19CHL1   H14 1349   1.498   4.689   9.476  0.4392  1.9457 -2.2448
   19CHL1   C15 1350   1.403   4.557   9.350 -0.6804  0.2500  0.3654
   19CHL1  H15A 1351   1.398   4.447   9.337 -0.6684  0.3577 -0.6508
   19CHL1  H15B 1352   1.306   4.594   9.389 -1.1104  0.8964 -1.2395
   19CHL1   C16 1353   1.434   4.631   9.214  0.3531 -0.1763 -0.4441
   19CHL1  H16A 1354   1.416   4.562   9.129  1.9122  0.5422 -1.3722
   19CHL1  H16B 1355   1.364   4.716   9.197 -0.5353 -1.2175 -2.1054
   19CHL1   C17 1356   1.585   4.674   9.227 -0.2231  0.7542 -0.0979
   19CHL1   H17 1357   1.584   4.776   9.270  2.3254  1.3516 -1.4210
   19CHL1   C13 1358   1.648   4.595   9.344  0.1583 -0.2059  0.8613
   19CHL1   C18 1359   1.696   4.454   9.296  0.4628  0.0523  0.6544
   19CHL1  H18A 1360   1.640   4.400   9.217  1.5236 -1.0107  0.6294
   19CHL1  H18B 1361   1.791   4.479   9.244  0.4346  1.2691  1.1608
   19CHL1  H18C 1362   1.718   4.382   9.378 -1.0480 -0.1009  0.9519
   19CHL1   C12 1363   1.764   4.668   9.418  0.1533 -0.2575  0.1321
   19CHL1  H12A 1364   1.849   4.663   9.346  0.5091 -0.1559  0.5428
   19CHL1  H12B 1365   1.741   4.774   9.440  5.3081  0.8807  0.7595
   19CHL1   C11 1366   1.797   4.592   9.548 -0.3012 -0.5320 -0.1017
   19CHL1  H11A 1367   1.839   4.494   9.518  2.2479 -0.1917  2.1347
   19CHL1  H11B 1368   1.885   4.648   9.586 -0.8597  2.0672 -2.5187
   19CHL1    C9 1369   1.672   4.570   9.636  0.4324 -0.4415 -0.8397
   19CHL1    H9 1370   1.639   4.674   9.658  2.2745  0.4886 -2.3279
   19CHL1   C10 1371   1.699   4.506   9.772  0.2992  0.5005  0.1270
   19CHL1   C19 1372   1.767   4.373   9.749 -0.8126 -0.5665  0.0259
   19CHL1  H19A 1373   1.796   4.330   9.847 -2.0354  0.7326  0.9757
   19CHL1  H19B 1374   1.705   4.298   9.695  1.5140 -0.8321 -2.3823
   19CHL1  H19C 1375   1.865   4.396   9.702 -0.9992  0.7007  0.2421
   19CHL1    C1 1376   1.792   4.598   9.858  0.2475 -0.8621  0.4756
   19CHL1   H1A 1377   1.896   4.607   9.818 -1.1858 -1.7823 -3.6732
   19CHL1   H1B 1378   1.753   4.701   9.852 -0.9392 -1.3508 -0.2891
   19CHL1    C2 1379   1.800   4.569  10.009  0.3197  0.4650 -0.5509
   19CHL1   H2A 1380   1.863   4.643  10.062  1.4694 -0.9508  0.1059
   19CHL1   H2B 1381   1.859   4.475  10.015  0.5925  0.6046 -1.0734
   19CHL1   C20 1382   1.643   4.672   9.082  1.2630 -0.3318 -1.0495
   19CHL1   H20 1383   1.648   4.569   9.043  0.4248 -0.3678 -1.0617
   19CHL1   C21 1384   1.786   4.723   9.089 -0.0920 -0.2403 -0.1067
   19CHL1  H21A 1385   1.848   4.638   9.123  0.5446  0.3693  0.2716
   19CHL1  H21B 1386   1.791   4.809   9.160 -0.4888  0.1925 -0.5977
   19CHL1  H21C 1387   1.827   4.749   8.989 -0.7976 -0.5321 -0.4702
   19CHL1   C22 1388   1.565   4.761   8.978 -0.0198  0.5917  0.1821
   19CHL1  H22A 1389   1.455   4.765   8.996 -0.2478 -1.5477 -0.6516
   19CHL1  H22B 1390   1.604   4.864   8.993 -0.7347  0.8303  0.4625
   19CHL1   C23 1391   1.595   4.703   8.843  0.3477 -0.4122  0.5978
   19CHL1  H23A 1392   1.706   4.705   8.837  0.3562  0.5418  0.9815
   19CHL1  H23B 1393   1.571   4.595   8.839 -0.8828 -0.0726 -2.6031
   19CHL1   C24 1394   1.510   4.773   8.731 -0.0964 -0.4090  0.3100
   19CHL1  H24A 1395   1.400   4.767   8.741 -0.2198  0.1076 -0.6872
   19CHL1  H24B 1396   1.535   4.880   8.714 -0.4240 -0.6034 -1.4967
   19CHL1   C25 1397   1.534   4.697   8.596 -0.5361 -0.9448  0.2752
   19CHL1   H25 1398   1.508   4.590   8.612 -2.8583 -0.8204 -2.3380
   19CHL1   C26 1399   1.436   4.748   8.488 -0.1824  0.4113  0.8187
   19CHL1  H26A 1400   1.449   4.706   8.386  2.1429 -2.1456  2.1087
   19CHL1  H26B 1401   1.331   4.721   8.512 -1.1960  1.9267 -1.7221
   19CHL1  H26C 1402   1.442   4.859   8.494 -0.1968  0.4514  0.0712
   19CHL1   C27 1403   1.677   4.714   8.543 -0.2948 -0.2905 -0.4352
   19CHL1  H27A 1404   1.679   4.680   8.438  3.0377  0.8715 -0.7966
   19CHL1  H27B 1405   1.693   4.824   8.546 -1.0866 -0.1778 -0.1431
   19CHL1  H27C 1406   1.762   4.665   8.594  0.7934  1.5419 -0.4399
   20CHL1    C3 1407   3.308   5.381  10.412 -0.5315  0.6145 -0.0375
   20CHL1    H3 1408   3.210   5.347  10.372 -0.5024  0.5732 -0.0737
   20CHL1    O3 1409   3.294   5.401  10.556  0.0310  0.6134  0.5671
   20CHL1   H3' 1410   3.383   5.388  10.589  0.3078  1.4010  0.1659
   20CHL1    C4 1411   3.421   5.294  10.371 -0.7883 -0.1548  0.0121
   20CHL1   H4A 1412   3.515   5.322  10.422 -1.3508  0.0656  0.9576
   20CHL1   H4B 1413   3.403   5.197  10.423 -0.9138  0.0058  0.2681
   20CHL1    C5 1414   3.440   5.283  10.224 -0.1185 -0.6165 -0.4898
   20CHL1    C6 1415   3.435   5.166  10.154  0.3056 -0.2002  0.4705
   20CHL1    H6 1416   3.432   5.065  10.198 -2.3774  0.0239  0.9124
   20CHL1    C7 1417   3.439   5.166  10.004  0.0287 -0.6963 -0.2933
   20CHL1   H7A 1418   3.485   5.070   9.972  1.7234  0.2594 -0.7642
   20CHL1   H7B 1419   3.337   5.179   9.962 -0.1464 -0.1206  0.2922
   20CHL1    C8 1420   3.523   5.288   9.946  0.1707 -0.3027 -0.3679
   20CHL1    H8 1421   3.630   5.290   9.976 -0.3645  1.0066  1.5822
   20CHL1   C14 1422   3.515   5.291   9.793  0.1970  0.6834 -0.6940
   20CHL1   H14 1423   3.408   5.302   9.768  0.3281  1.3879 -0.9507
   20CHL1   C15 1424   3.568   5.167   9.721  0.0763  0.0303  0.3321
   20CHL1  H15A 1425   3.663   5.131   9.767  1.1871  0.3437 -1.6353
   20CHL1  H15B 1426   3.497   5.081   9.720  1.5990 -1.2696 -0.9783
   20CHL1   C16 1427   3.600   5.220   9.585 -0.1360 -0.4946 -0.2381
   20CHL1  H16A 1428   3.706   5.195   9.563  0.4045  1.9453 -0.5305
   20CHL1  H16B 1429   3.536   5.169   9.510 -0.6696 -2.2386  1.3630
   20CHL1   C17 1430   3.568   5.369   9.568 -0.0303  0.8748  0.1269
   20CHL1   H17 1431   3.458   5.373   9.554  0.0541  0.1148 -0.7531
   20CHL1   C13 1432   3.578   5.410   9.722  0.0850 -0.0505  0.0915
   20CHL1   C18 1433   3.727   5.425   9.751  0.5611 -0.2823 -0.9847
   20CHL1  H18A 1434   3.780   5.333   9.719 -0.1274 -0.6433 -1.1061
   20CHL1  H18B 1435   3.780   5.512   9.706  1.4852 -0.3368 -0.0277
   20CHL1  H18C 1436   3.737   5.440   9.861  2.2214  2.0709 -1.4220
   20CHL1   C12 1437   3.511   5.537   9.767  0.0875  0.0570 -0.0565
   20CHL1  H12A 1438   3.561   5.627   9.727 -0.8583  0.6057 -0.0170
   20CHL1  H12B 1439   3.405   5.536   9.734 -0.1775 -0.1952  0.7811
   20CHL1   C11 1440   3.512   5.539   9.923  0.1935 -0.2196  0.0529
   20CHL1  H11A 1441   3.613   5.568   9.958 -0.6839  1.4465  1.2965
   20CHL1  H11B 1442   3.444   5.622   9.950 -1.0612 -1.5687  1.1165
   20CHL1    C9 1443   3.460   5.409   9.996  0.2157 -0.4994 -0.5177
   20CHL1    H9 1444   3.356   5.400   9.959 -0.2859 -1.0136  1.0007
   20CHL1   C10 1445   3.463   5.422  10.149 -0.5978 -0.9490 -0.6187
   20CHL1   C19 1446   3.602   5.466  10.206 -0.4120  0.6535 -0.7949
   20CHL1  H19A 1447   3.610   5.469  10.317 -1.1322 -1.2157 -0.6804
   20CHL1  H19B 1448   3.678   5.396  10.167 -0.8365  0.9918 -2.2931
   20CHL1  H19C 1449   3.623   5.572  10.180 -0.5238  0.9902  0.4451
   20CHL1    C1 1450   3.343   5.520  10.195  0.3490  0.6437 -0.4676
   20CHL1   H1A 1451   3.379   5.618  10.159  3.0689 -0.0219  0.3093
   20CHL1   H1B 1452   3.247   5.494  10.146  1.5134 -1.6819 -1.6220
   20CHL1    C2 1453   3.330   5.526  10.349  0.2097  0.5626  0.1272
   20CHL1   H2A 1454   3.244   5.597  10.355 -1.6961 -1.4569 -2.1699
   20CHL1   H2B 1455   3.413   5.573  10.406  1.8525 -0.5719 -1.2784
   20CHL1   C20 1456   3.655   5.439   9.467  0.4217  0.4078  0.5250
   20CHL1   H20 1457   3.761   5.455   9.494  1.2155 -1.2623 -1.5077
   20CHL1   C21 1458   3.595   5.577   9.445  0.1077 -0.3350 -0.3884
   20CHL1  H21A 1459   3.488   5.567   9.415 -0.4197 -0.0308  1.3005
   20CHL1  H21B 1460   3.648   5.628   9.363  2.6828 -1.4617  0.5360
   20CHL1  H21C 1461   3.599   5.642   9.536 -0.6020 -1.1885  0.2664
   20CHL1   C22 1462   3.672   5.368   9.323 -0.0300  0.6595 -0.2648
   20CHL1  H22A 1463   3.731   5.280   9.356 -0.4522  0.2573 -0.5954
   20CHL1  H22B 1464   3.568   5.339   9.298  0.0976 -0.0567  0.0267
   20CHL1   C23 1465   3.743   5.440   9.210 -0.5388  0.8251  0.3534
   20CHL1  H23A 1466   3.705   5.536   9.170 -1.2754  0.8600  1.1201
   20CHL1  H23B 1467   3.846   5.464   9.241 -0.4324 -0.1605  0.7837
   20CHL1   C24 1468   3.761   5.339   9.090  0.1054 -0.1477 -0.3269
   20CHL1  H24A 1469   3.820   5.258   9.137 -0.4637  0.1404  0.9149
   20CHL1  H24B 1470   3.660   5.305   9.059 -0.0304  0.1698 -0.2305
   20CHL1   C25 1471   3.833   5.404   8.970  0.1897  0.3157 -0.1884
   20CHL1   H25 1472   3.936   5.432   9.003  0.8774 -1.8035 -0.4601
   20CHL1   C26 1473   3.848   5.304   8.851 -0.1168  0.5526  0.3111
   20CHL1  H26A 1474   3.873   5.201   8.886  0.2176 -0.9434 -4.0186
   20CHL1  H26B 1475   3.748   5.298   8.803  0.5075  2.9039 -1.4116
   20CHL1  H26C 1476   3.930   5.338   8.784 -0.9892 -0.5723 -1.3750
   20CHL1   C27 1477   3.761   5.533   8.920 -0.3737  0.1599  0.0337
   20CHL1  H27A 1478   3.657   5.502   8.898 -0.5766  0.2328  0.8773
   20CHL1  H27B 1479   3.763   5.618   8.992  2.8034  0.0036  0.2084
   20CHL1  H27C 1480   3.803   5.564   8.822  1.6063  0.6946  1.0011
   21CHL1    C3 1481   2.993   2.143  10.271  0.4747  0.4344 -0.0151
   21CHL1    H3 1482   3.099   2.171  10.288  0.4050  0.5062  0.2923
   21CHL1    O3 1483   2.929   2.143  10.400  0.4523  0.1682 -0.2206
   21CHL1   H3' 1484   2.893   2.055  10.410 -0.4625  0.8275  2.6961
   21CHL1    C4 1485   2.919   2.256  10.188  0.3417  0.3156  0.1997
   21CHL1   H4A 1486   2.811   2.230  10.193  0.2324  0.9429  1.3349
   21CHL1   H4B 1487   2.920   2.351  10.246 -2.1875  0.1878  0.4788
   21CHL1    C5 1488   2.973   2.261  10.049 -0.5294 -0.5313 -0.3564
   21CHL1    C6 1489   3.015   2.376   9.999  0.4015  0.1514  0.5575
   21CHL1    H6 1490   3.009   2.463  10.065  0.4722 -0.0986  0.8959
   21CHL1    C7 1491   3.058   2.391   9.853 -0.1674  0.4706 -0.5508
   21CHL1   H7A 1492   3.033   2.488   9.804  2.6579  0.6978 -1.6560
   21CHL1   H7B 1493   3.169   2.396   9.846 -0.1960  0.9751 -0.6730
   21CHL1    C8 1494   3.003   2.280   9.754  0.2353  0.3452 -0.0753
   21CHL1    H8 1495   2.895   2.299   9.735  0.0511  0.3166  0.9080
   21CHL1   C14 1496   3.071   2.289   9.625 -0.0127  0.1020  0.1087
   21CHL1   H14 1497   3.178   2.291   9.654 -0.2917 -0.2028  1.1751
   21CHL1   C15 1498   3.050   2.408   9.532  0.4807  0.6460 -0.1674
   21CHL1  H15A 1499   2.941   2.429   9.530  0.5038  1.0313  1.4960
   21CHL1  H15B 1500   3.104   2.497   9.570 -0.7088  0.6857  1.5074
   21CHL1   C16 1501   3.100   2.362   9.394  0.2358 -0.1272  1.1315
   21CHL1  H16A 1502   3.021   2.391   9.320  1.8797  1.1644 -0.1681
   21CHL1  H16B 1503   3.191   2.413   9.356  1.0978 -1.9170  0.7490
   21CHL1   C17 1504   3.126   2.208   9.397 -0.5340 -0.0934  0.6445
   21CHL1   H17 1505   3.231   2.212   9.432  0.1195 -1.6027 -1.0832
   21CHL1   C13 1506   3.053   2.162   9.528  0.2715 -0.1871 -0.0107
   21CHL1   C18 1507   2.902   2.148   9.496  0.2173 -0.4075  0.0658
   21CHL1  H18A 1508   2.891   2.052   9.442 -0.4693  0.8018 -2.0318
   21CHL1  H18B 1509   2.840   2.160   9.587  2.5216 -0.0761  1.6337
   21CHL1  H18C 1510   2.880   2.228   9.422  1.3528  0.4542  0.6282
   21CHL1   C12 1511   3.099   2.034   9.603  0.5871  0.3646 -0.3915
   21CHL1  H12A 1512   3.060   1.945   9.550 -1.0713  1.5286 -1.1845
   21CHL1  H12B 1513   3.209   2.029   9.613  0.4204 -0.4836  1.1717
   21CHL1   C11 1514   3.022   2.029   9.736 -0.2550  0.3076  1.3930
   21CHL1  H11A 1515   2.913   2.017   9.720 -0.0985  0.9850 -0.2521
   21CHL1  H11B 1516   3.062   1.935   9.780 -1.9749 -0.1743  1.9788
   21CHL1    C9 1517   3.040   2.149   9.832 -0.3560 -0.7617 -0.1494
   21CHL1    H9 1518   3.149   2.162   9.845 -0.3778  0.7626 -1.3015
   21CHL1   C10 1519   2.968   2.129   9.966  0.2800  0.3581  0.3348
   21CHL1   C19 1520   2.816   2.102   9.939 -0.1061  0.2370  0.3508
   21CHL1  H19A 1521   2.807   2.000   9.895 -0.1766  0.7975 -0.9681
   21CHL1  H19B 1522   2.763   2.102  10.036  2.4108 -2.5463  1.8214
   21CHL1  H19C 1523   2.763   2.177   9.877 -1.9801  0.0045  1.6318
   21CHL1    C1 1524   3.036   2.028  10.046 -0.2069 -0.0065  0.0826
   21CHL1   H1A 1525   3.016   1.934   9.990  1.4977 -0.3157 -0.0327
   21CHL1   H1B 1526   3.146   2.042  10.056 -0.5088  2.7106 -0.0765
   21CHL1    C2 1527   2.978   2.006  10.192 -0.5046 -0.0981 -0.2424
   21CHL1   H2A 1528   3.034   1.934  10.256 -0.1183 -0.4914 -1.0179
   21CHL1   H2B 1529   2.872   1.977  10.184 -0.5129 -0.1668  0.1050
   21CHL1   C20 1530   3.119   2.122   9.275 -0.0318  0.0489  1.3453
   21CHL1   H20 1531   3.012   2.090   9.274 -0.6576  2.1047  0.1146
   21CHL1   C21 1532   3.209   2.000   9.284  0.0444 -0.0267  0.5106
   21CHL1  H21A 1533   3.192   1.929   9.201 -0.0485  1.5579 -0.8666
   21CHL1  H21B 1534   3.185   1.925   9.362  0.7815  1.0212  1.7868
   21CHL1  H21C 1535   3.318   2.022   9.289 -0.4947  3.2480 -0.7846
   21CHL1   C22 1536   3.145   2.194   9.141 -0.0770  0.6121  0.2496
   21CHL1  H22A 1537   3.057   2.262   9.129  0.1030  1.0334  1.2392
   21CHL1  H22B 1538   3.230   2.265   9.142  0.8366 -0.3701 -2.6977
   21CHL1   C23 1539   3.150   2.095   9.021 -0.1323 -0.4488 -0.1515
   21CHL1  H23A 1540   3.245   2.037   9.019 -0.1209 -0.4255 -0.2447
   21CHL1  H23B 1541   3.062   2.028   9.036  0.0906 -1.0715 -1.6216
   21CHL1   C24 1542   3.116   2.150   8.884 -0.7006  0.1058  0.2125
   21CHL1  H24A 1543   3.123   2.080   8.797 -1.6976 -0.1634  0.3505
   21CHL1  H24B 1544   3.009   2.177   8.890 -0.3816  1.2297  1.1235
   21CHL1   C25 1545   3.183   2.278   8.831  0.3786  0.0418  0.3673
   21CHL1   H25 1546   3.197   2.345   8.918  2.0934 -0.1769  0.2644
   21CHL1   C26 1547   3.318   2.255   8.760  0.2072  0.7740  0.4536
   21CHL1  H26A 1548   3.304   2.207   8.661  0.2235 -0.6675  1.1279
   21CHL1  H26B 1549   3.373   2.350   8.744  0.5325  0.3892 -0.7323
   21CHL1  H26C 1550   3.378   2.185   8.823 -0.1707 -0.7976 -0.9078
   21CHL1   C27 1551   3.083   2.363   8.742 -0.3985 -0.4623 -0.7025
   21CHL1  H27A 1552   3.003   2.399   8.810  0.3832  1.5437 -0.8016
   21CHL1  H27B 1553   3.127   2.451   8.690  0.3847 -0.8187 -0.6530
   21CHL1  H27C 1554   3.032   2.297   8.668  1.5869 -1.9313 -0.8157
   22CHL1    C3 1555   2.976   3.087   9.782  0.0217  0.3301  0.3632
   22CHL1    H3 1556   2.883   3.032   9.757  1.1215 -0.0351 -3.3002
   22CHL1    O3 1557   2.971   3.121   9.916 -0.2440  0.5009 -0.0375
   22CHL1   H3' 1558   3.063   3.109   9.939 -0.0865 -0.7515 -1.2519
   22CHL1    C4 1559   3.095   2.997   9.754  0.1897 -0.2488 -0.3972
   22CHL1   H4A 1560   3.190   3.042   9.788  1.7019 -4.9700  2.0469
   22CHL1   H4B 1561   3.086   2.907   9.817  0.5471 -0.6633 -0.9348
   22CHL1    C5 1562   3.097   2.961   9.606 -0.2647 -0.0246 -0.1142
   22CHL1    C6 1563   3.094   2.831   9.574  0.0654 -0.0166 -0.3473
   22CHL1    H6 1564   3.114   2.760   9.656 -0.1156  0.3838  0.0494
   22CHL1    C7 1565   3.078   2.780   9.436 -0.1846  0.0256 -0.5126
   22CHL1   H7A 1566   3.133   2.684   9.424 -0.6007 -0.1592 -0.9484
   22CHL1   H7B 1567   2.970   2.758   9.419 -0.4229  3.0813 -3.6590
   22CHL1    C8 1568   3.119   2.886   9.327  1.0828  0.6939  1.2356
   22CHL1    H8 1569   3.230   2.891   9.326  0.9860  3.6137  0.1780
   22CHL1   C14 1570   3.061   2.845   9.192  0.5150 -0.0005 -0.3366
   22CHL1   H14 1571   2.951   2.835   9.199  0.5385 -0.5151 -0.6513
   22CHL1   C15 1572   3.098   2.699   9.150 -0.1329  0.1382  0.2378
   22CHL1  H15A 1573   3.205   2.693   9.178  0.1417 -0.8323 -0.9899
   22CHL1  H15B 1574   3.038   2.618   9.197  0.9914 -0.1952  1.1164
   22CHL1   C16 1575   3.084   2.709   9.001 -0.2589 -0.3233  1.0946
   22CHL1  H16A 1576   3.174   2.669   8.950 -0.6224  1.8606 -1.4254
   22CHL1  H16B 1577   3.000   2.642   8.974  0.8514 -0.7796 -1.3488
   22CHL1   C17 1578   3.049   2.858   8.967 -0.0225 -0.0650  0.4039
   22CHL1   H17 1579   2.939   2.863   8.985 -0.0273 -1.2950  0.8034
   22CHL1   C13 1580   3.110   2.939   9.078 -0.0761 -0.1523  0.5580
   22CHL1   C18 1581   3.260   2.956   9.056 -0.3557  0.1155 -0.1792
   22CHL1  H18A 1582   3.289   3.044   8.995 -1.1814  0.9420  0.6088
   22CHL1  H18B 1583   3.312   2.980   9.151 -1.9594  1.5627  0.3547
   22CHL1  H18C 1584   3.302   2.859   9.021 -3.5219 -1.7620  0.9865
   22CHL1   C12 1585   3.053   3.080   9.106 -0.2481 -0.5838 -0.1730
   22CHL1  H12A 1586   3.094   3.151   9.031  0.7839 -0.4937  0.4526
   22CHL1  H12B 1587   2.943   3.088   9.112 -0.0648  0.9792  2.1968
   22CHL1   C11 1588   3.102   3.126   9.246  0.3568 -0.1155 -0.2767
   22CHL1  H11A 1589   3.212   3.145   9.243  0.4726 -0.6881  0.1252
   22CHL1  H11B 1590   3.055   3.221   9.279  1.7630  0.1419  1.0296
   22CHL1    C9 1591   3.071   3.021   9.359 -1.3077 -0.8257  0.0430
   22CHL1    H9 1592   2.960   3.007   9.355 -1.4492  0.7793 -2.0135
   22CHL1   C10 1593   3.100   3.069   9.505  0.0523  0.2071 -1.0524
   22CHL1   C19 1594   3.247   3.131   9.513 -0.6341  0.0469  0.0978
   22CHL1  H19A 1595   3.277   3.175   9.611 -2.0400 -2.3069  1.6332
   22CHL1  H19B 1596   3.333   3.064   9.493  1.6883  3.3358 -1.5891
   22CHL1  H19C 1597   3.252   3.216   9.442  2.1963 -0.9165 -0.9295
   22CHL1    C1 1598   2.992   3.178   9.546 -0.0632  0.1387  0.7869
   22CHL1   H1A 1599   3.012   3.269   9.486 -1.4242  0.5768  0.9911
   22CHL1   H1B 1600   2.888   3.156   9.513  0.0523  0.3211  0.2997
   22CHL1    C2 1601   2.982   3.212   9.693  0.3177 -0.5330  0.1845
   22CHL1   H2A 1602   2.897   3.277   9.721  1.1837  1.0225 -0.7248
   22CHL1   H2B 1603   3.074   3.271   9.711 -0.2537  0.6246 -0.6503
   22CHL1   C20 1604   3.075   2.893   8.821  0.9626  0.0557  0.5582
   22CHL1   H20 1605   3.178   2.931   8.805  0.0147  1.5037 -2.4587
   22CHL1   C21 1606   2.978   3.018   8.783 -0.1679 -0.1556  0.3803
   22CHL1  H21A 1607   2.875   3.003   8.823 -1.6559 -2.7528 -4.1075
   22CHL1  H21B 1608   2.970   3.024   8.673  2.2394 -0.5827  0.1509
   22CHL1  H21C 1609   3.019   3.107   8.835 -0.5290  0.2406 -0.0090
   22CHL1   C22 1610   3.052   2.785   8.711 -0.0277  0.7648 -0.3354
   22CHL1  H22A 1611   3.086   2.685   8.746 -1.0298 -0.5965 -3.1083
   22CHL1  H22B 1612   2.946   2.774   8.681  0.4889 -0.0078 -1.9753
   22CHL1   C23 1613   3.131   2.830   8.582 -0.8907 -0.2668 -0.4384
   22CHL1  H23A 1614   3.132   2.941   8.573 -0.1383 -0.1844  0.5554
   22CHL1  H23B 1615   3.238   2.807   8.601 -0.7683  1.6740  1.4542
   22CHL1   C24 1616   3.073   2.767   8.452 -0.5685  0.1474  0.2603
   22CHL1  H24A 1617   3.094   2.658   8.444 -2.9016 -0.2140 -1.7690
   22CHL1  H24B 1618   2.963   2.778   8.466 -0.1223  1.5423  2.8589
   22CHL1   C25 1619   3.123   2.822   8.312 -0.0242 -0.3091 -0.8199
   22CHL1   H25 1620   3.096   2.930   8.321 -0.1406 -0.5232  1.6167
   22CHL1   C26 1621   3.275   2.813   8.286  0.4045  0.5594 -0.3290
   22CHL1  H26A 1622   3.292   2.870   8.191 -0.1754 -1.0371 -1.4101
   22CHL1  H26B 1623   3.332   2.872   8.361 -0.1325  0.1479  0.3958
   22CHL1  H26C 1624   3.303   2.706   8.277 -1.1379  0.0410  0.9090
   22CHL1   C27 1625   3.048   2.771   8.191  0.0380 -0.2618  0.5257
   22CHL1  H27A 1626   2.940   2.791   8.210  0.3394  2.1679 -0.1254
   22CHL1  H27B 1627   3.074   2.833   8.102 -1.6963  1.5296  1.2242
   22CHL1  H27C 1628   3.051   2.662   8.170  1.9002 -0.2698  0.7310
   23CHL1    C3 1629   6.539   2.977  10.278  0.6907  0.2825 -0.3672
   23CHL1    H3 1630   6.482   3.072  10.276  0.7552  0.3145 -0.9557
   23CHL1    O3 1631   6.515   2.908  10.400 -0.4408 -0.1923 -0.6651
   23CHL1   H3' 1632   6.511   2.816  10.373 -2.5403 -0.5270  0.7031
   23CHL1    C4 1633   6.498   2.881  10.166 -0.4120 -0.0096 -0.0365
   23CHL1   H4A 1634   6.506   2.772  10.187 -3.2172 -0.5574 -1.5162
   23CHL1   H4B 1635   6.387   2.881  10.163 -0.3785  1.2539 -2.6233
   23CHL1    C5 1636   6.546   2.916  10.032  0.0209 -0.5371 -0.0656
   23CHL1    C6 1637   6.463   2.927   9.925  0.1605 -0.6560 -0.5830
   23CHL1    H6 1638   6.355   2.907   9.934  0.5208 -1.7004  2.1750
   23CHL1    C7 1639   6.507   2.949   9.781  0.5511  0.0376  0.3065
   23CHL1   H7A 1640   6.461   2.870   9.719  0.6053  0.5757 -0.4355
   23CHL1   H7B 1641   6.475   3.050   9.747 -1.5255 -1.1565 -1.3191
   23CHL1    C8 1642   6.660   2.947   9.758  0.1177 -0.4367  0.8221
   23CHL1    H8 1643   6.693   2.843   9.742  0.3131 -0.2364 -0.0954
   23CHL1   C14 1644   6.695   3.013   9.628  0.1338 -0.0148  0.1923
   23CHL1   H14 1645   6.665   3.119   9.644  0.1007  0.0437 -0.2529
   23CHL1   C15 1646   6.627   2.973   9.498  0.2218  0.1824 -0.4893
   23CHL1  H15A 1647   6.651   2.866   9.480  0.7478  0.0372  0.9528
   23CHL1  H15B 1648   6.522   3.009   9.496 -0.1628 -0.9149 -0.4163
   23CHL1   C16 1649   6.715   3.041   9.387 -0.9974 -0.6650 -0.3967
   23CHL1  H16A 1650   6.742   2.978   9.299 -2.2909 -0.2871 -1.0674
   23CHL1  H16B 1651   6.651   3.124   9.351 -0.0840 -0.4126 -1.4934
   23CHL1   C17 1652   6.843   3.092   9.461 -0.4170  0.1372 -0.0336
   23CHL1   H17 1653   6.821   3.195   9.496  2.7592  0.3346  1.5594
   23CHL1   C13 1654   6.842   3.018   9.599  0.0792 -1.0124 -0.1926
   23CHL1   C18 1655   6.906   2.880   9.578  0.2164 -0.1062 -0.2953
   23CHL1  H18A 1656   7.015   2.893   9.566  0.3930 -0.8588  0.4538
   23CHL1  H18B 1657   6.891   2.818   9.669 -0.8876  1.8420  0.9046
   23CHL1  H18C 1658   6.889   2.834   9.479 -1.6118  0.7583 -0.4191
   23CHL1   C12 1659   6.901   3.104   9.713 -0.6831  0.4163  0.2160
   23CHL1  H12A 1660   7.008   3.132   9.701 -0.7184  0.4889  0.0602
   23CHL1  H12B 1661   6.857   3.206   9.714  2.0094  1.6608 -2.3283
   23CHL1   C11 1662   6.876   3.036   9.854 -0.2740  0.1246  0.4963
   23CHL1  H11A 1663   6.939   2.945   9.848  0.8369  0.8553  1.0246
   23CHL1  H11B 1664   6.912   3.113   9.925  0.6737 -0.1111  0.2765
   23CHL1    C9 1665   6.726   3.008   9.881  0.4940  0.2919 -0.6365
   23CHL1    H9 1666   6.678   3.108   9.891 -2.2150 -1.1502  1.4700
   23CHL1   C10 1667   6.700   2.940  10.018 -0.9406 -0.6902  0.0796
   23CHL1   C19 1668   6.774   2.805  10.029  0.0055 -0.0318 -0.4475
   23CHL1  H19A 1669   6.885   2.811  10.032  0.0076  1.1310 -2.4647
   23CHL1  H19B 1670   6.760   2.753  10.127 -0.2433  1.6739  0.4344
   23CHL1  H19C 1671   6.747   2.730   9.951 -2.8833  0.4621  0.0250
   23CHL1    C1 1672   6.736   3.041  10.129  0.5033  0.2715 -0.9560
   23CHL1   H1A 1673   6.844   3.058  10.151  0.3195  1.7361 -1.0802
   23CHL1   H1B 1674   6.694   3.141  10.105 -0.1762 -0.1099 -1.3624
   23CHL1    C2 1675   6.691   2.995  10.270  0.0563 -0.2111  0.0709
   23CHL1   H2A 1676   6.730   3.071  10.341 -0.5203  0.2925 -0.1480
   23CHL1   H2B 1677   6.745   2.900  10.292 -0.0519 -0.8159 -2.1521
   23CHL1   C20 1678   6.969   3.090   9.372 -0.1794  0.5756 -0.0637
   23CHL1   H20 1679   6.989   2.986   9.338  0.7017  1.0377 -0.9710
   23CHL1   C21 1680   7.098   3.144   9.445  0.6421  0.3642 -0.0439
   23CHL1  H21A 1681   7.121   3.080   9.532  3.6512  0.7951 -0.4698
   23CHL1  H21B 1682   7.069   3.244   9.485  0.2653 -0.0228  0.6538
   23CHL1  H21C 1683   7.188   3.161   9.382  1.7407 -0.2519  1.3356
   23CHL1   C22 1684   6.946   3.178   9.252  0.1187  0.0790  0.6369
   23CHL1  H22A 1685   6.861   3.138   9.192  0.1416 -1.8868  1.8813
   23CHL1  H22B 1686   6.922   3.281   9.287 -1.3834 -0.0085 -0.1172
   23CHL1   C23 1687   7.049   3.185   9.136 -0.0234 -0.4449 -0.1913
   23CHL1  H23A 1688   7.140   3.219   9.188  0.2524 -1.6277  0.1275
   23CHL1  H23B 1689   7.083   3.083   9.104  0.9281  0.2285 -1.3924
   23CHL1   C24 1690   7.004   3.286   9.030  0.1169 -0.0189 -0.5615
   23CHL1  H24A 1691   6.905   3.263   8.985 -0.3035  2.1934 -0.8055
   23CHL1  H24B 1692   6.980   3.383   9.079  1.1889 -0.3388  0.6090
   23CHL1   C25 1693   7.103   3.312   8.913 -0.5047  0.6383 -0.3429
   23CHL1   H25 1694   7.204   3.327   8.956 -0.9865  1.1513  0.6330
   23CHL1   C26 1695   7.095   3.191   8.815 -0.3399  0.1153  0.1994
   23CHL1  H26A 1696   7.156   3.216   8.725 -0.9534 -1.2347 -0.6015
   23CHL1  H26B 1697   7.143   3.105   8.865  2.5770  1.6195  0.1140
   23CHL1  H26C 1698   6.994   3.167   8.776  0.1992 -0.3967 -0.9198
   23CHL1   C27 1699   7.081   3.459   8.855 -0.3543 -0.9971 -0.0199
   23CHL1  H27A 1700   7.087   3.532   8.939  2.5346 -0.6739 -0.4720
   23CHL1  H27B 1701   7.154   3.485   8.776 -0.5098  0.5886  0.3445
   23CHL1  H27C 1702   6.983   3.465   8.802 -0.2330  0.4836 -0.0812
   24CHL1    C3 1703   0.357   4.913  10.294 -0.7875 -0.2454 -0.4186
   24CHL1    H3 1704   0.427   4.998  10.280 -1.9795  0.9759  0.8768
   24CHL1    O3 1705   0.332   4.879  10.430  0.5897 -0.5495  0.0691
   24CHL1   H3' 1706   0.351   4.785  10.438  2.3171 -0.1652  0.8998
   24CHL1    C4 1707   0.232   4.981  10.240 -0.3727  0.5045 -0.0079
   24CHL1   H4A 1708   0.143   4.917  10.257  2.7273 -4.1470 -0.5300
   24CHL1   H4B 1709   0.215   5.076  10.296 -1.6678  0.7450 -0.7853
   24CHL1    C5 1710   0.244   5.008  10.092  0.4031  0.2163  0.5216
   24CHL1    C6 1711   0.236   5.129  10.044 -0.0353  0.5256 -0.3639
   24CHL1    H6 1712   0.213   5.213  10.111 -1.0736 -0.9618  1.1765
   24CHL1    C7 1713   0.248   5.167   9.903  0.0791  0.3726  0.2314
   24CHL1   H7A 1714   0.167   5.234   9.868  1.3271  1.2875 -0.9502
   24CHL1   H7B 1715   0.335   5.231   9.877  2.1596 -1.8727  1.4461
   24CHL1    C8 1716   0.243   5.038   9.811  0.6515  0.2364 -0.3624
   24CHL1    H8 1717   0.136   5.013   9.798  0.2002  1.8510  0.1460
   24CHL1   C14 1718   0.310   5.073   9.669 -0.0144  0.4363 -0.5038
   24CHL1   H14 1719   0.419   5.080   9.690 -0.5158  2.0393  1.7610
   24CHL1   C15 1720   0.262   5.200   9.599  0.3240 -0.2017  0.0527
   24CHL1  H15A 1721   0.152   5.201   9.613  0.4707 -0.1393  1.2208
   24CHL1  H15B 1722   0.308   5.291   9.643 -0.8818  0.4819 -0.0673
   24CHL1   C16 1723   0.293   5.173   9.443 -0.5115  0.1926 -0.5240
   24CHL1  H16A 1724   0.196   5.163   9.391 -0.1862  1.3351 -1.3701
   24CHL1  H16B 1725   0.356   5.250   9.392  2.6929 -1.1434  1.2328
   24CHL1   C17 1726   0.354   5.032   9.442 -0.2093 -0.1216  0.4317
   24CHL1   H17 1727   0.460   5.054   9.467  0.0908 -2.3934  1.2900
   24CHL1   C13 1728   0.308   4.957   9.567 -0.3696  0.5451  0.0618
   24CHL1   C18 1729   0.161   4.916   9.539 -0.1616 -0.1075  0.0569
   24CHL1  H18A 1730   0.103   4.892   9.631 -1.2586  0.8156 -0.3754
   24CHL1  H18B 1731   0.111   5.000   9.486 -1.9157 -1.7258 -0.9334
   24CHL1  H18C 1732   0.162   4.831   9.468 -1.8451 -0.8783  0.9195
   24CHL1   C12 1733   0.383   4.840   9.629  0.0524  0.3899 -0.2899
   24CHL1  H12A 1734   0.371   4.746   9.571 -2.7699 -0.8524  2.1724
   24CHL1  H12B 1735   0.491   4.865   9.637  0.4343 -0.3519 -2.6851
   24CHL1   C11 1736   0.332   4.799   9.768  0.4408 -0.4497 -0.3239
   24CHL1  H11A 1737   0.230   4.760   9.745  0.0933 -0.5140  1.2739
   24CHL1  H11B 1738   0.389   4.709   9.799 -2.6903 -1.9002  1.4371
   24CHL1    C9 1739   0.324   4.917   9.866 -0.2968 -0.6760 -0.4731
   24CHL1    H9 1740   0.426   4.959   9.882 -1.4731  2.3189 -0.6018
   24CHL1   C10 1741   0.285   4.883  10.007  0.9153  0.2391  0.4207
   24CHL1   C19 1742   0.155   4.795  10.014 -0.0516  0.2161 -0.3487
   24CHL1  H19A 1743   0.186   4.701   9.965 -2.6791 -0.8492 -0.0619
   24CHL1  H19B 1744   0.122   4.770  10.117 -1.6455 -1.3332 -1.2105
   24CHL1  H19C 1745   0.070   4.833   9.953 -0.2471 -0.5744 -0.5708
   24CHL1    C1 1746   0.401   4.802  10.072  0.4707  0.6069 -0.5782
   24CHL1   H1A 1747   0.405   4.704  10.020 -0.8490  0.0746  0.3033
   24CHL1   H1B 1748   0.504   4.838  10.049  0.7267  1.2038  1.3696
   24CHL1    C2 1749   0.389   4.785  10.224 -0.3164 -0.1793  0.0395
   24CHL1   H2A 1750   0.488   4.742  10.250 -0.9378 -0.6420  1.6754
   24CHL1   H2B 1751   0.305   4.718  10.251 -0.4118 -0.9962 -2.1817
   24CHL1   C20 1752   0.350   4.965   9.304 -0.1975  0.4538  1.0968
   24CHL1   H20 1753   0.246   4.962   9.263  0.4700 -1.4749 -0.5303
   24CHL1   C21 1754   0.403   4.821   9.312  0.1762 -0.2648  0.2468
   24CHL1  H21A 1755   0.330   4.750   9.357 -0.3523 -0.7834 -1.4015
   24CHL1  H21B 1756   0.497   4.831   9.370 -0.7384 -2.0015  2.1043
   24CHL1  H21C 1757   0.415   4.783   9.208 -2.2963  2.3990 -1.1025
   24CHL1   C22 1758   0.439   5.043   9.202  0.1521  0.4915  0.1495
   24CHL1  H22A 1759   0.415   5.151   9.217 -1.8351 -0.1638  1.9019
   24CHL1  H22B 1760   0.542   5.009   9.227  0.4883  2.3502  1.3930
   24CHL1   C23 1761   0.401   5.007   9.053 -0.5969 -0.2186 -0.1102
   24CHL1  H23A 1762   0.391   4.896   9.048 -1.2398 -0.1528 -0.3857
   24CHL1  H23B 1763   0.308   5.066   9.034  0.1706  1.0978  0.1951
   24CHL1   C24 1764   0.506   5.047   8.954  0.5599  0.9150 -0.0511
   24CHL1  H24A 1765   0.524   5.156   8.964 -2.6515  1.5942 -1.1610
   24CHL1  H24B 1766   0.605   5.007   8.987 -0.9075 -1.4032  1.7541
   24CHL1   C25 1767   0.490   5.015   8.806 -0.2347  0.1827  0.0453
   24CHL1   H25 1768   0.392   5.055   8.773 -0.9017 -1.5126 -0.0490
   24CHL1   C26 1769   0.599   5.078   8.719  1.0279  0.4846  0.4179
   24CHL1  H26A 1770   0.697   5.032   8.743  2.1934  1.3124 -2.4896
   24CHL1  H26B 1771   0.584   5.057   8.611  0.2858 -0.2502  0.6674
   24CHL1  H26C 1772   0.596   5.189   8.727  0.1226  0.4545  0.4747
   24CHL1   C27 1773   0.499   4.863   8.781 -0.6025  0.1773  0.4534
   24CHL1  H27A 1774   0.512   4.844   8.672 -1.5379  3.8405 -0.3737
   24CHL1  H27B 1775   0.594   4.831   8.829 -1.0228 -0.6398  0.7401
   24CHL1  H27C 1776   0.407   4.811   8.814 -0.2440 -1.3625 -0.8989
   25CHL1    C3 1777   2.444   6.607  10.326 -0.3619 -0.0563  0.2654
   25CHL1    H3 1778   2.375   6.524  10.353 -0.9284  0.6288  0.9347
   25CHL1    O3 1779   2.493   6.659  10.449 -0.3085  0.4240  0.4525
   25CHL1   H3' 1780   2.569   6.714  10.431  1.4815 -1.5576  1.7476
   25CHL1    C4 1781   2.565   6.556  10.258  1.0533  0.2007 -0.1484
   25CHL1   H4A 1782   2.638   6.640  10.254  0.8589  0.5063  2.1120
   25CHL1   H4B 1783   2.607   6.478  10.324  2.0622 -0.9039 -2.0358
   25CHL1    C5 1784   2.529   6.500  10.120  0.3330  0.1125 -0.1263
   25CHL1    C6 1785   2.559   6.378  10.091 -0.5848 -0.3825 -0.4386
   25CHL1    H6 1786   2.615   6.323  10.167 -2.9706 -1.2846  0.7331
   25CHL1    C7 1787   2.542   6.319   9.957 -0.2727 -0.1717 -0.0053
   25CHL1   H7A 1788   2.635   6.264   9.934 -0.7178 -0.4987 -1.0118
   25CHL1   H7B 1789   2.460   6.245   9.965  0.1396 -0.8072 -1.5182
   25CHL1    C8 1790   2.508   6.428   9.851  0.4902 -0.6072  0.6850
   25CHL1    H8 1791   2.598   6.488   9.824 -0.6217  0.2192 -1.2993
   25CHL1   C14 1792   2.470   6.371   9.720  0.4341  0.8176 -0.3888
   25CHL1   H14 1793   2.376   6.316   9.741  0.9662 -0.1798 -0.5941
   25CHL1   C15 1794   2.555   6.258   9.664 -0.1637  0.1219 -0.6220
   25CHL1  H15A 1795   2.662   6.283   9.682 -0.5627  1.0151  0.5572
   25CHL1  H15B 1796   2.537   6.162   9.717  0.4023  0.9900  1.1916
   25CHL1   C16 1797   2.518   6.247   9.512 -0.2658  0.5514  0.5878
   25CHL1  H16A 1798   2.612   6.254   9.453 -1.0352  0.9887 -0.6050
   25CHL1  H16B 1799   2.461   6.160   9.473 -0.5099  0.5987  0.8312
   25CHL1   C17 1800   2.427   6.366   9.479  0.4710  0.3583 -0.4480
   25CHL1   H17 1801   2.324   6.325   9.493  0.4029  0.9643  0.9628
   25CHL1   C13 1802   2.447   6.464   9.602  0.4701 -0.7273 -0.2015
   25CHL1   C18 1803   2.573   6.547   9.578 -0.3562 -0.0193 -0.1474
   25CHL1  H18A 1804   2.609   6.610   9.662  0.2900  2.4057 -2.1719
   25CHL1  H18B 1805   2.665   6.485   9.565 -1.2200 -1.5161  0.7892
   25CHL1  H18C 1806   2.555   6.610   9.488 -0.8631  0.0550  0.0060
   25CHL1   C12 1807   2.330   6.554   9.643 -0.7066  0.0287  0.7873
   25CHL1  H12A 1808   2.322   6.633   9.565 -0.1804  0.7701  1.4685
   25CHL1  H12B 1809   2.237   6.495   9.656 -0.3126 -0.2364  2.5331
   25CHL1   C11 1810   2.363   6.632   9.776  0.8580  0.0538 -0.1157
   25CHL1  H11A 1811   2.452   6.696   9.756  0.6692  0.3264 -0.0841
   25CHL1  H11B 1812   2.277   6.692   9.812  0.7434 -0.7601  1.0073
   25CHL1    C9 1813   2.403   6.532   9.897  1.2949  0.4277  0.8339
   25CHL1    H9 1814   2.316   6.469   9.925  2.2758 -1.7243 -0.7970
   25CHL1   C10 1815   2.456   6.603  10.025  0.5205  0.3507 -0.1735
   25CHL1   C19 1816   2.554   6.721   9.993 -0.5450 -0.0192 -0.0002
   25CHL1  H19A 1817   2.616   6.755  10.078 -0.8572  0.6779 -0.0458
   25CHL1  H19B 1818   2.622   6.689   9.911 -1.5391 -0.7028 -0.5734
   25CHL1  H19C 1819   2.495   6.807   9.953  2.2905  1.2196 -1.6395
   25CHL1    C1 1820   2.342   6.670  10.095  0.4419  0.5106 -1.0599
   25CHL1   H1A 1821   2.307   6.754  10.031  2.0811  1.9801 -0.0743
   25CHL1   H1B 1822   2.267   6.589  10.093  1.6572 -0.7380  1.2950
   25CHL1    C2 1823   2.376   6.718  10.243  0.0920  0.4518  0.1878
   25CHL1   H2A 1824   2.290   6.762  10.298 -1.9888  0.6109 -3.0348
   25CHL1   H2B 1825   2.448   6.802  10.238  1.3900 -0.5748  1.2880
   25CHL1   C20 1826   2.426   6.423   9.333 -0.3087  0.4258  0.6345
   25CHL1   H20 1827   2.504   6.502   9.321 -0.6823  0.5567 -1.1208
   25CHL1   C21 1828   2.286   6.504   9.319 -0.2716  0.6548  0.9038
   25CHL1  H21A 1829   2.200   6.442   9.352  1.1715 -1.1620  1.2993
   25CHL1  H21B 1830   2.272   6.505   9.209  0.1123  1.0706  0.8526
   25CHL1  H21C 1831   2.293   6.608   9.360  1.9762  1.5221 -1.5497
   25CHL1   C22 1832   2.445   6.324   9.218  0.1475  0.0291  0.2960
   25CHL1  H22A 1833   2.548   6.285   9.233 -0.5254 -2.3263 -0.8944
   25CHL1  H22B 1834   2.385   6.235   9.248  0.1254  0.5623  1.8587
   25CHL1   C23 1835   2.426   6.372   9.077 -0.0191 -0.4837  0.3936
   25CHL1  H23A 1836   2.320   6.395   9.053 -0.5171 -0.3312  2.6019
   25CHL1  H23B 1837   2.487   6.465   9.064 -0.2015 -0.1839  1.5718
   25CHL1   C24 1838   2.464   6.266   8.978 -0.3124 -0.0821 -0.3399
   25CHL1  H24A 1839   2.560   6.229   9.018 -0.0118  0.9891 -0.0559
   25CHL1  H24B 1840   2.379   6.195   8.987 -1.8883  1.9924  1.5832
   25CHL1   C25 1841   2.469   6.301   8.830 -0.1296 -0.2789 -0.0904
   25CHL1   H25 1842   2.379   6.363   8.812  2.2632  3.3734 -0.0003
   25CHL1   C26 1843   2.584   6.392   8.787  0.1753  0.0911 -0.1292
   25CHL1  H26A 1844   2.590   6.392   8.676 -0.5226 -1.2908 -0.1800
   25CHL1  H26B 1845   2.575   6.498   8.818 -1.3465 -0.2034  0.5094
   25CHL1  H26C 1846   2.683   6.360   8.826 -0.5676  0.5387  2.1952
   25CHL1   C27 1847   2.464   6.176   8.741 -0.2153  0.8550  0.0857
   25CHL1  H27A 1848   2.402   6.097   8.788  0.0195  0.1026 -0.8442
   25CHL1  H27B 1849   2.424   6.199   8.640 -1.7059 -0.3546  0.3971
   25CHL1  H27C 1850   2.561   6.126   8.720 -0.6820  0.6545 -1.6503
   26CHL1    C3 1851   3.512   2.582  10.089 -0.1508 -0.7415  0.2149
   26CHL1    H3 1852   3.558   2.480  10.083  0.6742 -0.3402 -0.3526
   26CHL1    O3 1853   3.492   2.606  10.226  0.4592 -0.3156  0.2028
   26CHL1   H3' 1854   3.473   2.700  10.237 -0.1283 -0.4543  0.3934
   26CHL1    C4 1855   3.601   2.690  10.024 -0.7713 -0.1194 -1.1041
   26CHL1   H4A 1856   3.549   2.787  10.043  1.9700  1.4653 -1.2832
   26CHL1   H4B 1857   3.698   2.698  10.078  0.8541  1.1631 -4.0842
   26CHL1    C5 1858   3.623   2.683   9.871 -0.6344  1.2643 -0.0708
   26CHL1    C6 1859   3.749   2.689   9.822  1.1692 -0.5246 -0.5024
   26CHL1    H6 1860   3.831   2.706   9.893 -0.9363  0.1102  1.9041
   26CHL1    C7 1861   3.770   2.691   9.676 -0.0911  0.1935  0.0143
   26CHL1   H7A 1862   3.839   2.775   9.654  1.2061 -0.8986 -0.1151
   26CHL1   H7B 1863   3.827   2.600   9.648  2.4207  1.9019 -0.6500
   26CHL1    C8 1864   3.640   2.696   9.578  0.2411 -0.3972 -0.2554
   26CHL1    H8 1865   3.607   2.802   9.568  0.2820 -0.4535 -1.0436
   26CHL1   C14 1866   3.672   2.640   9.437  1.5397  0.4753 -0.1642
   26CHL1   H14 1867   3.706   2.536   9.455  0.9684  0.2962 -0.1068
   26CHL1   C15 1868   3.781   2.706   9.360 -0.1162  0.3793 -0.1226
   26CHL1  H15A 1869   3.774   2.814   9.384 -1.4455  0.1047  0.7796
   26CHL1  H15B 1870   3.875   2.663   9.400 -0.0001 -2.2425 -3.0057
   26CHL1   C16 1871   3.744   2.679   9.212  0.7065  0.4779  0.3551
   26CHL1  H16A 1872   3.724   2.777   9.164  0.3887 -0.3539 -1.2612
   26CHL1  H16B 1873   3.818   2.624   9.150  1.2873  0.5403  0.9902
   26CHL1   C17 1874   3.616   2.589   9.222 -0.3316  0.2008 -0.6394
   26CHL1   H17 1875   3.659   2.487   9.228 -2.0036 -0.4341  1.6691
   26CHL1   C13 1876   3.547   2.628   9.348  0.4620 -0.0287 -0.7747
   26CHL1   C18 1877   3.486   2.769   9.328  0.1504  0.3116  0.1694
   26CHL1  H18A 1878   3.471   2.841   9.412 -2.5685  1.2378 -1.0584
   26CHL1  H18B 1879   3.543   2.832   9.256  1.5855 -1.1483 -0.0121
   26CHL1  H18C 1880   3.389   2.752   9.276  0.2098  0.6098 -0.0406
   26CHL1   C12 1881   3.444   2.532   9.416  0.0145  1.0524 -0.1146
   26CHL1  H12A 1882   3.350   2.553   9.360  0.5816 -0.2018 -1.5738
   26CHL1  H12B 1883   3.461   2.423   9.418 -1.3894  0.7782 -1.8933
   26CHL1   C11 1884   3.409   2.574   9.559 -0.0622 -0.1086  0.7115
   26CHL1  H11A 1885   3.338   2.659   9.549  0.8632  0.4326 -1.5662
   26CHL1  H11B 1886   3.343   2.498   9.605 -0.3936  1.4974  2.9906
   26CHL1    C9 1887   3.529   2.603   9.645 -0.6845 -0.9569  1.2784
   26CHL1    H9 1888   3.582   2.506   9.654 -1.1546 -1.3008  0.4207
   26CHL1   C10 1889   3.498   2.653   9.788 -0.3974 -0.0791  0.1816
   26CHL1   C19 1890   3.415   2.782   9.777 -0.1092 -1.0186 -0.2368
   26CHL1  H19A 1891   3.470   2.863   9.725  0.1298 -0.3770  0.9960
   26CHL1  H19B 1892   3.325   2.778   9.712  0.0112 -3.4983 -0.2916
   26CHL1  H19C 1893   3.382   2.815   9.878 -0.0126  0.7567 -0.7784
   26CHL1    C1 1894   3.396   2.553   9.851 -0.6218 -0.1873 -0.5835
   26CHL1   H1A 1895   3.296   2.563   9.803 -0.5149  2.4147 -0.3499
   26CHL1   H1B 1896   3.441   2.452   9.847  0.1811  0.1286  0.3810
   26CHL1    C2 1897   3.380   2.579  10.010  0.0922  0.0707 -0.6814
   26CHL1   H2A 1898   3.317   2.496  10.048 -0.4733  1.1115  0.6716
   26CHL1   H2B 1899   3.324   2.673  10.027 -0.8064 -0.5684 -0.0590
   26CHL1   C20 1900   3.520   2.581   9.095 -0.0381 -0.1423  0.0642
   26CHL1   H20 1901   3.454   2.670   9.091 -2.3786 -1.7640  1.3269
   26CHL1   C21 1902   3.433   2.455   9.103  0.1963  0.0406 -0.4179
   26CHL1  H21A 1903   3.355   2.482   9.177 -0.1622 -1.0265 -0.4022
   26CHL1  H21B 1904   3.483   2.358   9.124  0.7557  0.7029  1.3352
   26CHL1  H21C 1905   3.363   2.440   9.017 -0.7878 -0.5153  0.4664
   26CHL1   C22 1906   3.603   2.572   8.968  0.6206 -0.1595  0.2156
   26CHL1  H22A 1907   3.669   2.660   8.984  1.0346 -0.2376 -1.0845
   26CHL1  H22B 1908   3.651   2.473   8.963 -1.3533 -1.1063 -0.5643
   26CHL1   C23 1909   3.521   2.606   8.839 -0.2077  1.0557  0.5649
   26CHL1  H23A 1910   3.457   2.519   8.814 -1.9860  2.0943  1.4341
   26CHL1  H23B 1911   3.463   2.700   8.846 -0.2619  0.9160  2.2270
   26CHL1   C24 1912   3.619   2.629   8.722 -0.0593  1.1238  0.0260
   26CHL1  H24A 1913   3.697   2.706   8.742  1.2713 -0.8209  2.6861
   26CHL1  H24B 1914   3.673   2.533   8.708 -1.1034  0.1806  2.1930
   26CHL1   C25 1915   3.544   2.668   8.592  0.3984 -0.7709  0.1404
   26CHL1   H25 1916   3.472   2.750   8.614  0.8301 -1.0172  2.6114
   26CHL1   C26 1917   3.653   2.710   8.488  0.9842  0.2212 -0.1413
   26CHL1  H26A 1918   3.739   2.640   8.489  1.5234  0.8517 -1.2300
   26CHL1  H26B 1919   3.614   2.715   8.384  0.1155  0.4355  0.1868
   26CHL1  H26C 1920   3.701   2.806   8.513  1.8452  0.2161 -1.7254
   26CHL1   C27 1921   3.457   2.555   8.534 -0.0624  0.3949 -0.7927
   26CHL1  H27A 1922   3.365   2.550   8.597  0.7030  0.9843  0.3862
   26CHL1  H27B 1923   3.434   2.575   8.428  0.4441  0.5664 -0.8704
   26CHL1  H27C 1924   3.501   2.455   8.555 -0.6706  0.7102  2.3339
   27CHL1    C3 1925   3.084   6.496  10.355  0.4658 -0.9171  0.5694
   27CHL1    H3 1926   3.165   6.571  10.345 -0.9482  0.5938  0.2359
   27CHL1    O3 1927   3.045   6.488  10.489  0.5176  0.7796 -0.3268
   27CHL1   H3' 1928   2.963   6.438  10.495  0.5348  0.9428  2.1184
   27CHL1    C4 1929   2.963   6.559  10.269 -0.7660  0.3007  0.6336
   27CHL1   H4A 1930   2.877   6.491  10.288  2.1774 -3.7582  0.0081
   27CHL1   H4B 1931   2.937   6.655  10.319  1.0359  0.9175  0.4419
   27CHL1    C5 1932   2.997   6.565  10.119  0.9678  0.1595  0.0403
   27CHL1    C6 1933   2.972   6.680  10.051  0.1372  0.0811  0.3029
   27CHL1    H6 1934   2.942   6.772  10.104 -1.5475  0.2066 -0.8365
   27CHL1    C7 1935   2.983   6.683   9.902  0.6733 -0.1841 -0.6602
   27CHL1   H7A 1936   2.895   6.731   9.854  0.4787  1.0169  0.8228
   27CHL1   H7B 1937   3.071   6.750   9.889  2.3223 -1.8689  1.3384
   27CHL1    C8 1938   3.002   6.543   9.840 -0.5872 -0.1775 -0.0122
   27CHL1    H8 1939   2.896   6.510   9.839 -0.2120 -1.4153  0.7286
   27CHL1   C14 1940   3.067   6.559   9.705 -0.0883 -0.1845 -0.8118
   27CHL1   H14 1941   3.172   6.587   9.724  0.5066 -1.3675 -2.2380
   27CHL1   C15 1942   3.014   6.670   9.603 -0.4346  0.8616 -0.0435
   27CHL1  H15A 1943   2.904   6.663   9.601 -0.2692 -1.8780 -2.1591
   27CHL1  H15B 1944   3.051   6.766   9.644 -1.2970  1.1632  0.0338
   27CHL1   C16 1945   3.066   6.626   9.467 -0.4126  0.4293  0.9496
   27CHL1  H16A 1946   2.977   6.608   9.402  0.0628  0.3114  0.3345
   27CHL1  H16B 1947   3.125   6.704   9.414  1.8810 -1.4422  0.6912
   27CHL1   C17 1948   3.143   6.493   9.485 -0.2174  0.2018  0.5901
   27CHL1   H17 1949   3.251   6.508   9.504 -0.2940 -0.0601  1.2514
   27CHL1   C13 1950   3.077   6.435   9.616  0.2247 -0.6692  0.6852
   27CHL1   C18 1951   2.937   6.380   9.585 -0.3481  0.9564 -0.5836
   27CHL1  H18A 1952   2.875   6.449   9.525  1.1527  0.7416 -2.4483
   27CHL1  H18B 1953   2.956   6.294   9.516 -3.0926  1.6188 -2.2366
   27CHL1  H18C 1954   2.886   6.345   9.677  0.5228 -0.3237 -0.5652
   27CHL1   C12 1955   3.159   6.335   9.694 -1.0471  0.6820 -0.3097
   27CHL1  H12A 1956   3.147   6.234   9.648  0.0015 -0.4466  1.8076
   27CHL1  H12B 1957   3.268   6.351   9.684 -0.4595 -2.9079 -0.2255
   27CHL1   C11 1958   3.106   6.309   9.828 -0.3951  0.5381 -0.3339
   27CHL1  H11A 1959   3.023   6.235   9.820 -0.9186  0.9925  0.7307
   27CHL1  H11B 1960   3.191   6.258   9.878 -1.3013  0.9481  1.6846
   27CHL1    C9 1961   3.087   6.439   9.914 -0.4187  0.7538 -0.3214
   27CHL1    H9 1962   3.191   6.478   9.911  0.0089 -0.0875  1.9891
   27CHL1   C10 1963   3.054   6.432  10.061  0.2605  0.0285  0.2705
   27CHL1   C19 1964   2.934   6.332  10.084  0.0229  0.0460 -0.0938
   27CHL1  H19A 1965   2.855   6.367  10.015  1.0309 -0.1263 -1.3419
   27CHL1  H19B 1966   2.970   6.230  10.060  3.3768  1.5182 -1.7628
   27CHL1  H19C 1967   2.893   6.327  10.187  0.5389  1.8825  0.2363
   27CHL1    C1 1968   3.171   6.371  10.147  0.3200 -0.7356  0.0767
   27CHL1   H1A 1969   3.195   6.280  10.089  2.5007 -0.6628  0.8306
   27CHL1   H1B 1970   3.259   6.438  10.157  0.7731 -1.6578  2.9282
   27CHL1    C2 1971   3.130   6.354  10.294  0.2983 -0.6407 -0.7260
   27CHL1   H2A 1972   3.207   6.314  10.363 -0.9322 -0.5516  0.6984
   27CHL1   H2B 1973   3.050   6.279  10.311  0.1907 -0.8218 -1.9469
   27CHL1   C20 1974   3.148   6.402   9.360  0.4094  0.4041  0.0849
   27CHL1   H20 1975   3.042   6.388   9.329  0.5549  1.1934 -0.8038
   27CHL1   C21 1976   3.206   6.255   9.378 -0.7761  0.5237 -0.7937
   27CHL1  H21A 1977   3.306   6.259   9.427 -0.2650  1.2510 -1.8859
   27CHL1  H21B 1978   3.208   6.209   9.278 -2.8044  0.4042 -0.7915
   27CHL1  H21C 1979   3.148   6.192   9.449  0.7359  0.2998  0.2903
   27CHL1   C22 1980   3.218   6.467   9.248 -0.6385 -0.0529  0.4930
   27CHL1  H22A 1981   3.196   6.412   9.153 -1.7634 -1.7405  1.7009
   27CHL1  H22B 1982   3.178   6.568   9.228 -0.7853 -0.0912  0.5919
   27CHL1   C23 1983   3.373   6.470   9.263  0.4937 -0.0283  0.5649
   27CHL1  H23A 1984   3.403   6.527   9.354 -1.2231  1.2112  0.3784
   27CHL1  H23B 1985   3.408   6.366   9.278  1.4965  0.5944  2.7325
   27CHL1   C24 1986   3.452   6.523   9.146 -0.0165 -0.6101  0.2854
   27CHL1  H24A 1987   3.412   6.617   9.100  0.0023 -1.1074 -0.7698
   27CHL1  H24B 1988   3.553   6.554   9.179  0.3065  1.4083 -2.3733
   27CHL1   C25 1989   3.457   6.427   9.023  0.3419  0.8638 -0.6439
   27CHL1   H25 1990   3.355   6.393   8.995  0.4169 -0.5653  0.7159
   27CHL1   C26 1991   3.507   6.495   8.904 -0.5805 -0.6519  0.9547
   27CHL1  H26A 1992   3.612   6.530   8.909 -0.1545 -1.7251 -0.2213
   27CHL1  H26B 1993   3.499   6.426   8.817  1.5811  0.2535  0.0206
   27CHL1  H26C 1994   3.440   6.583   8.889  0.3913  0.0117  0.5004
   27CHL1   C27 1995   3.534   6.297   9.058  0.5817 -0.0338 -0.1094
   27CHL1  H27A 1996   3.562   6.239   8.967 -2.9039  0.9209 -1.8967
   27CHL1  H27B 1997   3.629   6.325   9.109  0.6958  0.4017 -0.5568
   27CHL1  H27C 1998   3.485   6.227   9.128  1.4564  1.8678  2.4641
   28CHL1    C3 1999   1.976   4.946  10.184  0.5439  0.2232  0.2225
   28CHL1    H3 2000   1.982   4.838  10.161 -1.1851  0.1053  0.2580
   28CHL1    O3 2001   1.938   4.962  10.318  0.2010 -0.2815  0.5001
   28CHL1   H3' 2002   1.863   4.902  10.326 -1.7506  1.6682 -2.3696
   28CHL1    C4 2003   2.117   5.009  10.157  0.5254 -0.2597 -0.3224
   28CHL1   H4A 2004   2.114   5.120  10.165 -3.2788 -0.3502  0.9173
   28CHL1   H4B 2005   2.190   4.965  10.228 -0.0174  0.2751  0.5735
   28CHL1    C5 2006   2.149   4.967  10.015 -0.4074  0.0736  0.0273
   28CHL1    C6 2007   2.256   4.890   9.984 -0.4984 -0.2144  0.3291
   28CHL1    H6 2008   2.310   4.840  10.065  0.8524  0.1106 -0.3614
   28CHL1    C7 2009   2.290   4.846   9.840  0.2514 -0.2014 -0.4920
   28CHL1   H7A 2010   2.400   4.846   9.823  0.3945  0.1675  0.4002
   28CHL1   H7B 2011   2.241   4.747   9.824 -3.1546  1.4030 -0.3930
   28CHL1    C8 2012   2.212   4.932   9.729 -0.1661  0.0484 -0.1217
   28CHL1    H8 2013   2.258   5.033   9.732 -0.2305  0.0506  0.7530
   28CHL1   C14 2014   2.227   4.874   9.591 -0.1234 -0.2418 -0.5203
   28CHL1   H14 2015   2.175   4.776   9.596 -0.8730  0.1522 -0.3974
   28CHL1   C15 2016   2.373   4.843   9.539 -0.4818  0.4067 -0.5263
   28CHL1  H15A 2017   2.446   4.924   9.561  1.1771 -0.9869 -0.7811
   28CHL1  H15B 2018   2.397   4.745   9.584  2.4582  0.3777 -2.0296
   28CHL1   C16 2019   2.352   4.825   9.386 -0.1555 -0.7978 -0.3434
   28CHL1  H16A 2020   2.428   4.891   9.340  0.1955  0.6885  2.2762
   28CHL1  H16B 2021   2.377   4.722   9.353 -0.1381 -0.7994 -0.3241
   28CHL1   C17 2022   2.207   4.867   9.361 -0.1934 -0.1217  0.5203
   28CHL1   H17 2023   2.143   4.776   9.363  2.0323 -1.7237  0.3363
   28CHL1   C13 2024   2.161   4.951   9.482  0.3425  0.3536  0.0846
   28CHL1   C18 2025   2.210   5.098   9.472 -0.5294 -0.4672  0.0417
   28CHL1  H18A 2026   2.162   5.153   9.388  0.1821 -0.0316 -0.0859
   28CHL1  H18B 2027   2.185   5.158   9.562  0.6704 -0.3505  0.3113
   28CHL1  H18C 2028   2.319   5.106   9.453 -1.0705  1.5182 -2.5013
   28CHL1   C12 2029   2.013   4.948   9.514  0.2626  0.2415 -0.0953
   28CHL1  H12A 2030   1.945   5.000   9.443  2.1657  0.9342 -1.4959
   28CHL1  H12B 2031   1.983   4.842   9.501  2.8712 -0.1818 -3.7504
   28CHL1   C11 2032   1.982   5.013   9.651  0.0667  0.7691 -0.1820
   28CHL1  H11A 2033   2.000   5.120   9.630  4.0781  0.1720 -0.0543
   28CHL1  H11B 2034   1.874   4.997   9.674 -0.3469 -1.2199 -3.1411
   28CHL1    C9 2035   2.065   4.947   9.763  0.8411 -0.3201 -0.1285
   28CHL1    H9 2036   2.040   4.839   9.771 -1.5931  0.2793  0.7968
   28CHL1   C10 2037   2.041   5.016   9.907  0.2793  0.3580  0.3129
   28CHL1   C19 2038   2.043   5.170   9.880 -0.0038  0.7418 -0.1603
   28CHL1  H19A 2039   1.948   5.209   9.838 -1.0553  0.1496  1.6518
   28CHL1  H19B 2040   2.063   5.222   9.976  0.4920  0.6733 -0.2246
   28CHL1  H19C 2041   2.130   5.201   9.818 -0.8109  2.4980 -0.4438
   28CHL1    C1 2042   1.893   4.975   9.947  0.4060  0.9153  0.1006
   28CHL1   H1A 2043   1.811   5.030   9.895 -1.3272 -1.0645  0.6860
   28CHL1   H1B 2044   1.888   4.868   9.919  2.1367  0.6346  0.8222
   28CHL1    C2 2045   1.870   5.009  10.094 -0.1732 -0.0003 -0.2244
   28CHL1   H2A 2046   1.768   4.974  10.120  0.0004 -0.5279 -0.2525
   28CHL1   H2B 2047   1.876   5.119  10.111 -1.3735  0.0417  0.0143
   28CHL1   C20 2048   2.184   4.910   9.212 -0.5400 -0.0391 -0.1902
   28CHL1   H20 2049   2.078   4.941   9.209 -1.5946 -3.0343  2.5671
   28CHL1   C21 2050   2.188   4.773   9.134 -0.0376 -0.1932 -0.3882
   28CHL1  H21A 2051   2.135   4.692   9.189  1.9084 -1.1665  0.1140
   28CHL1  H21B 2052   2.296   4.751   9.121  0.1813  0.9388 -0.5549
   28CHL1  H21C 2053   2.136   4.781   9.036 -2.0087 -0.7894  0.5776
   28CHL1   C22 2054   2.267   5.020   9.142 -0.0706 -0.1537 -0.3031
   28CHL1  H22A 2055   2.287   5.105   9.210  1.3481 -0.7273  0.0093
   28CHL1  H22B 2056   2.365   4.973   9.120  0.3698  1.1596 -1.2309
   28CHL1   C23 2057   2.196   5.084   9.022 -0.2626 -0.0644 -0.8032
   28CHL1  H23A 2058   2.279   5.147   8.985  1.1798 -1.3672  0.1571
   28CHL1  H23B 2059   2.170   5.009   8.945  1.6517  0.7316 -2.2667
   28CHL1   C24 2060   2.084   5.181   9.059  0.4461 -0.1007 -0.3985
   28CHL1  H24A 2061   1.997   5.124   9.098  1.6731 -0.9851  1.0768
   28CHL1  H24B 2062   2.124   5.235   9.148 -0.6662 -2.9352  1.8861
   28CHL1   C25 2063   2.016   5.269   8.956  0.0531 -0.4182 -0.1075
   28CHL1   H25 2064   2.096   5.319   8.896 -0.5666  1.4157  0.5587
   28CHL1   C26 2065   1.942   5.176   8.859  0.4151 -0.2917 -0.3290
   28CHL1  H26A 2066   1.857   5.126   8.910  0.8889 -1.6048 -0.8141
   28CHL1  H26B 2067   1.894   5.229   8.774 -0.1614 -0.9971 -0.4395
   28CHL1  H26C 2068   2.000   5.099   8.805 -1.4747  0.0734 -3.0173
   28CHL1   C27 2069   1.908   5.357   9.011  0.6996  0.1223 -0.5174
   28CHL1  H27A 2070   1.880   5.430   8.932 -3.9317  1.3118  2.0211
   28CHL1  H27B 2071   1.813   5.305   9.036 -0.6677  2.6756 -0.2413
   28CHL1  H27C 2072   1.942   5.421   9.095 -1.9658  2.3805 -1.0802
   29CHL1    C3 2073   4.233   2.054   6.592  0.3168  0.3583 -0.3182
   29CHL1    H3 2074   4.156   1.977   6.613  0.3590  0.2933 -0.3993
   29CHL1    O3 2075   4.241   2.077   6.454 -0.1107 -0.1163 -0.0359
   29CHL1   H3' 2076   4.157   2.118   6.431 -0.4729 -1.4098 -1.0725
   29CHL1    C4 2077   4.192   2.189   6.647 -0.2480  0.0315 -0.3001
   29CHL1   H4A 2078   4.272   2.260   6.616  0.1110 -0.1788  0.1487
   29CHL1   H4B 2079   4.096   2.228   6.605 -0.5559 -0.9954 -0.5552
   29CHL1    C5 2080   4.193   2.195   6.800  0.4246  0.4926  0.0739
   29CHL1    C6 2081   4.077   2.218   6.870 -0.1123  0.1106  0.1926
   29CHL1    H6 2082   3.990   2.259   6.816  0.1020  0.1361 -0.1397
   29CHL1    C7 2083   4.077   2.213   7.019 -0.3096  0.8560 -0.2591
   29CHL1   H7A 2084   4.021   2.301   7.058  0.9637  1.9206 -0.7769
   29CHL1   H7B 2085   4.029   2.121   7.058  0.5635  1.4982  2.4112
   29CHL1    C8 2086   4.218   2.217   7.084 -0.6082  0.9931 -0.2033
   29CHL1    H8 2087   4.263   2.316   7.061  0.1759  0.5879 -0.4045
   29CHL1   C14 2088   4.205   2.192   7.236  0.3607  0.0029 -0.0783
   29CHL1   H14 2089   4.158   2.092   7.238  2.0459 -0.8424 -1.3731
   29CHL1   C15 2090   4.110   2.279   7.313  0.1647  0.7384 -0.3680
   29CHL1  H15A 2091   4.120   2.389   7.295  0.8201  0.8016  0.3790
   29CHL1  H15B 2092   4.005   2.244   7.303 -0.2412  1.7990  0.1023
   29CHL1   C16 2093   4.147   2.254   7.462  0.9303 -0.2791  0.3149
   29CHL1  H16A 2094   4.169   2.350   7.514 -0.8577  1.4282 -2.0087
   29CHL1  H16B 2095   4.061   2.192   7.496 -0.9206  2.2014  0.2783
   29CHL1   C17 2096   4.274   2.164   7.447 -0.6933  0.0734  0.0482
   29CHL1   H17 2097   4.233   2.063   7.426 -1.2654  0.7955 -2.4013
   29CHL1   C13 2098   4.337   2.190   7.308  0.3185  0.7307  0.2264
   29CHL1   C18 2099   4.415   2.327   7.307  0.0704  0.3243 -0.3033
   29CHL1  H18A 2100   4.350   2.407   7.349  0.4690  1.4750 -1.8450
   29CHL1  H18B 2101   4.507   2.318   7.369  0.3932  0.5311 -0.7565
   29CHL1  H18C 2102   4.442   2.356   7.204  1.4555  1.0833  0.2525
   29CHL1   C12 2103   4.417   2.073   7.247 -0.1204  0.0694  0.5490
   29CHL1  H12A 2104   4.514   2.068   7.301  0.1992 -0.0766 -0.0344
   29CHL1  H12B 2105   4.358   1.982   7.271  0.5814 -0.2629  1.0435
   29CHL1   C11 2106   4.442   2.084   7.093 -0.5272 -0.5864 -0.1668
   29CHL1  H11A 2107   4.507   2.172   7.081 -2.1985  1.0325  2.1152
   29CHL1  H11B 2108   4.487   1.988   7.058 -0.6287  0.0819 -2.1744
   29CHL1    C9 2109   4.308   2.110   7.016 -0.0042  0.1712  0.1958
   29CHL1    H9 2110   4.252   2.014   7.020  2.2500 -1.2020 -0.3040
   29CHL1   C10 2111   4.328   2.137   6.863  0.1834  0.2654  0.1606
   29CHL1   C19 2112   4.449   2.233   6.847  0.1333 -0.3143 -0.2953
   29CHL1  H19A 2113   4.448   2.284   6.749 -0.2139  1.0227  0.3877
   29CHL1  H19B 2114   4.441   2.313   6.924  1.0202  1.1277 -1.6566
   29CHL1  H19C 2115   4.548   2.188   6.869  0.1117 -0.5720 -0.7243
   29CHL1    C1 2116   4.372   2.006   6.788 -0.5055  1.0869  0.2514
   29CHL1   H1A 2117   4.468   1.965   6.826 -0.6821 -0.9849 -1.3823
   29CHL1   H1B 2118   4.292   1.934   6.818 -1.9350  1.3067 -2.7997
   29CHL1    C2 2119   4.373   2.008   6.635  0.3226 -0.4558  0.2031
   29CHL1   H2A 2120   4.399   1.907   6.597 -0.5273 -0.3164 -0.7661
   29CHL1   H2B 2121   4.455   2.074   6.598 -1.3089  0.9396 -0.9477
   29CHL1   C20 2122   4.370   2.141   7.569 -0.1554  0.5096 -0.1559
   29CHL1   H20 2123   4.464   2.100   7.526 -0.0797  1.0860 -0.5532
   29CHL1   C21 2124   4.312   2.038   7.667  0.0974  0.3004  0.0346
   29CHL1  H21A 2125   4.307   1.937   7.621 -1.7187 -0.8134  2.5435
   29CHL1  H21B 2126   4.211   2.073   7.698 -0.4609  0.1305 -1.5246
   29CHL1  H21C 2127   4.374   2.026   7.759  0.7859  0.9260 -0.3429
   29CHL1   C22 2128   4.395   2.269   7.648  0.0592  0.3893 -0.1486
   29CHL1  H22A 2129   4.376   2.365   7.595 -2.3634 -0.1276 -0.2349
   29CHL1  H22B 2130   4.320   2.268   7.729  0.6205 -2.1169  0.3784
   29CHL1   C23 2131   4.535   2.272   7.706  0.2360 -0.1266 -0.2743
   29CHL1  H23A 2132   4.548   2.192   7.783  0.6639  0.9139  0.7511
   29CHL1  H23B 2133   4.610   2.260   7.625  1.3577  1.8073  0.4311
   29CHL1   C24 2134   4.576   2.408   7.760  0.1678 -0.0888  0.5328
   29CHL1  H24A 2135   4.687   2.403   7.762  0.2469  0.1541 -1.8462
   29CHL1  H24B 2136   4.558   2.487   7.684  4.1611  1.2966  0.9227
   29CHL1   C25 2137   4.520   2.449   7.900 -0.1353  0.3522 -0.0002
   29CHL1   H25 2138   4.411   2.468   7.891 -0.0751  1.2283  0.9625
   29CHL1   C26 2139   4.548   2.333   8.007  0.3037 -0.4288  0.2062
   29CHL1  H26A 2140   4.657   2.315   8.024  1.3364  2.7117 -2.4596
   29CHL1  H26B 2141   4.512   2.359   8.109 -0.6933 -1.3367  0.0837
   29CHL1  H26C 2142   4.494   2.238   7.988 -0.4711 -0.2528  1.4890
   29CHL1   C27 2143   4.602   2.578   7.939  0.2514  0.5483  0.1128
   29CHL1  H27A 2144   4.570   2.658   7.869 -1.1619 -1.1319 -1.2073
   29CHL1  H27B 2145   4.583   2.596   8.047 -0.2178 -1.1948  0.3344
   29CHL1  H27C 2146   4.711   2.557   7.926  0.2682  0.8714 -0.2904
   30CHL1    C3 2147   2.453   1.311   7.264  0.0245 -0.4019  0.6854
   30CHL1    H3 2148   2.415   1.251   7.349  1.1588 -2.0202  0.0738
   30CHL1    O3 2149   2.396   1.254   7.146 -0.5984  0.3188 -0.0337
   30CHL1   H3' 2150   2.425   1.318   7.080  0.6207  0.5545  0.7133
   30CHL1    C4 2151   2.405   1.459   7.268 -0.3400 -0.3549  0.6947
   30CHL1   H4A 2152   2.450   1.507   7.178 -0.4461 -0.9548  0.3173
   30CHL1   H4B 2153   2.295   1.472   7.271 -0.6203 -2.7175  1.2251
   30CHL1    C5 2154   2.463   1.511   7.403 -0.1132  0.5209  0.6798
   30CHL1    C6 2155   2.381   1.549   7.501  0.5649  0.1404 -0.5896
   30CHL1    H6 2156   2.272   1.549   7.495  0.2983 -1.0292  3.1283
   30CHL1    C7 2157   2.417   1.590   7.633 -0.4866 -0.1934 -0.1474
   30CHL1   H7A 2158   2.354   1.678   7.656  1.0296  0.3760  1.9688
   30CHL1   H7B 2159   2.416   1.516   7.716  2.9085 -2.6740 -2.1879
   30CHL1    C8 2160   2.563   1.642   7.639  0.1586 -0.5883  0.6151
   30CHL1    H8 2161   2.566   1.745   7.597  0.0223 -0.5450  0.7108
   30CHL1   C14 2162   2.610   1.660   7.785  0.0749 -0.2026  0.0252
   30CHL1   H14 2163   2.605   1.556   7.826 -3.2770  0.4144  1.4023
   30CHL1   C15 2164   2.515   1.739   7.883 -0.3377 -0.2263  0.6251
   30CHL1  H15A 2165   2.499   1.836   7.831  2.8088  0.3203  0.5829
   30CHL1  H15B 2166   2.420   1.693   7.919  0.8021 -1.5691  1.9833
   30CHL1   C16 2167   2.606   1.769   8.001  1.1344  0.2193 -0.0040
   30CHL1  H16A 2168   2.604   1.873   8.040 -1.3180  0.1362  0.2096
   30CHL1  H16B 2169   2.574   1.716   8.094  1.5089  0.4507  0.2604
   30CHL1   C17 2170   2.753   1.718   7.967 -0.0602 -0.4727 -0.0017
   30CHL1   H17 2171   2.754   1.614   8.005  0.6451  0.0177  1.4096
   30CHL1   C13 2172   2.750   1.711   7.810  0.0077 -0.9811  0.0103
   30CHL1   C18 2173   2.778   1.852   7.753  0.6436  0.5608 -0.2921
   30CHL1  H18A 2174   2.710   1.930   7.793 -1.0508 -1.2099  0.3498
   30CHL1  H18B 2175   2.878   1.883   7.791  0.5167  1.5569 -0.7491
   30CHL1  H18C 2176   2.775   1.853   7.642 -0.6497  2.0781 -0.2633
   30CHL1   C12 2177   2.838   1.601   7.748  0.3020  0.0975 -0.6998
   30CHL1  H12A 2178   2.942   1.639   7.758  0.1138 -0.0396  1.9069
   30CHL1  H12B 2179   2.816   1.501   7.792  0.9869 -0.8661 -2.5021
   30CHL1   C11 2180   2.803   1.576   7.598  0.2868 -0.0394 -0.3195
   30CHL1  H11A 2181   2.827   1.668   7.542 -1.5592 -1.1876 -3.0813
   30CHL1  H11B 2182   2.874   1.497   7.565  0.0339 -0.6631  0.5991
   30CHL1    C9 2183   2.654   1.544   7.575  0.0918  0.5922  0.2721
   30CHL1    H9 2184   2.640   1.447   7.628 -0.4253  0.6069  0.1686
   30CHL1   C10 2185   2.614   1.506   7.423  0.4215 -0.3197  0.7160
   30CHL1   C19 2186   2.674   1.616   7.331 -0.1104 -0.8826  0.2361
   30CHL1  H19A 2187   2.785   1.612   7.331 -0.0142  1.1421  1.1028
   30CHL1  H19B 2188   2.617   1.616   7.236  2.4258 -0.7182 -1.3330
   30CHL1  H19C 2189   2.653   1.709   7.388  0.5192 -0.9042  0.5085
   30CHL1    C1 2190   2.673   1.368   7.386  0.1828 -0.1400  0.6666
   30CHL1   H1A 2191   2.782   1.386   7.383 -0.1832  2.1297 -0.2183
   30CHL1   H1B 2192   2.646   1.302   7.471  1.7369 -0.1147  1.1938
   30CHL1    C2 2193   2.613   1.309   7.259 -0.6169 -0.0058  0.9535
   30CHL1   H2A 2194   2.645   1.204   7.240  1.6032  1.0637 -1.4976
   30CHL1   H2B 2195   2.636   1.363   7.166  0.0289  0.5884  1.4540
   30CHL1   C20 2196   2.865   1.793   8.043 -0.1732  0.4846  0.6926
   30CHL1   H20 2197   2.871   1.897   8.004 -1.2848 -0.3134 -1.6679
   30CHL1   C21 2198   3.001   1.721   8.013 -0.3196  0.3381 -0.2967
   30CHL1  H21A 2199   3.004   1.617   8.051 -1.9926  0.3493 -0.1001
   30CHL1  H21B 2200   3.086   1.775   8.059 -0.8053 -0.5060  1.6000
   30CHL1  H21C 2201   3.013   1.721   7.902 -1.9985 -0.9735 -0.4972
   30CHL1   C22 2202   2.847   1.802   8.196 -0.1678  0.0448  0.1542
   30CHL1  H22A 2203   2.742   1.828   8.221 -1.3859 -2.2335 -2.3080
   30CHL1  H22B 2204   2.862   1.698   8.232  0.3257  0.0221 -0.1102
   30CHL1   C23 2205   2.944   1.883   8.275 -0.2000  0.7057 -0.3793
   30CHL1  H23A 2206   3.049   1.846   8.277 -0.1007  1.0435  2.3430
   30CHL1  H23B 2207   2.965   1.978   8.222  1.7443  0.6208  0.1795
   30CHL1   C24 2208   2.902   1.888   8.423  0.1419 -0.7034  0.4567
   30CHL1  H24A 2209   2.792   1.875   8.428  0.0202  0.7692  2.2008
   30CHL1  H24B 2210   2.946   1.796   8.467 -1.1193 -1.6697 -0.2891
   30CHL1   C25 2211   2.942   2.024   8.488  0.5725 -0.3397 -0.0199
   30CHL1   H25 2212   2.907   2.012   8.593  0.1068 -0.3258 -0.1758
   30CHL1   C26 2213   3.090   2.055   8.484  0.3236  0.3259 -0.1824
   30CHL1  H26A 2214   3.121   2.139   8.549 -0.4180  0.8130 -0.4553
   30CHL1  H26B 2215   3.147   1.970   8.526 -0.8633  0.7176  2.2786
   30CHL1  H26C 2216   3.128   2.067   8.380 -0.3602  0.8917 -0.3678
   30CHL1   C27 2217   2.854   2.137   8.436  0.3219  0.0450  0.0241
   30CHL1  H27A 2218   2.880   2.232   8.487 -0.4409  1.6960 -2.5872
   30CHL1  H27B 2219   2.877   2.144   8.328 -1.3401 -0.4035 -0.3747
   30CHL1  H27C 2220   2.747   2.114   8.455  0.9928 -2.3748  1.0903
   31CHL1    C3 2221   2.228   3.261   6.629  0.2711  0.0650 -0.4067
   31CHL1    H3 2222   2.271   3.364   6.621  1.5480 -0.4777 -0.6358
   31CHL1    O3 2223   2.192   3.241   6.496 -0.1405 -0.4710 -0.1507
   31CHL1   H3' 2224   2.096   3.244   6.491 -0.0631 -1.8356 -4.7627
   31CHL1    C4 2225   2.333   3.163   6.678  0.9815  1.3951 -0.0845
   31CHL1   H4A 2226   2.281   3.066   6.661  0.3303  2.1378 -2.5630
   31CHL1   H4B 2227   2.419   3.153   6.609 -0.5683  3.1906 -2.3601
   31CHL1    C5 2228   2.358   3.186   6.827  1.3084 -0.0991  0.5924
   31CHL1    C6 2229   2.482   3.202   6.875  0.5660 -0.4486  0.3709
   31CHL1    H6 2230   2.565   3.194   6.803 -0.0631  0.8511 -0.5268
   31CHL1    C7 2231   2.512   3.206   7.024 -0.2325 -0.4146  0.1907
   31CHL1   H7A 2232   2.578   3.117   7.035  0.0495 -0.0468  1.5695
   31CHL1   H7B 2233   2.578   3.292   7.046 -0.8066 -0.1360  0.8385
   31CHL1    C8 2234   2.394   3.186   7.113  0.4151 -0.0590  0.1767
   31CHL1    H8 2235   2.372   3.077   7.112 -0.1063  0.0436  0.3527
   31CHL1   C14 2236   2.438   3.231   7.254  0.4453 -0.0875  0.4500
   31CHL1   H14 2237   2.459   3.339   7.238  0.9664 -0.5168 -1.9540
   31CHL1   C15 2238   2.567   3.185   7.311 -0.8513  0.0479 -0.1494
   31CHL1  H15A 2239   2.577   3.083   7.268  0.7368  0.5292 -0.9531
   31CHL1  H15B 2240   2.659   3.242   7.285 -1.0787 -0.7009 -2.7795
   31CHL1   C16 2241   2.549   3.201   7.458 -0.1902  0.5763  0.0520
   31CHL1  H16A 2242   2.538   3.097   7.496  0.9229 -0.0391 -1.2360
   31CHL1  H16B 2243   2.635   3.248   7.511  0.8676 -1.0532 -0.1671
   31CHL1   C17 2244   2.413   3.276   7.484 -0.2959 -0.1354  0.4069
   31CHL1   H17 2245   2.430   3.384   7.463 -1.1510 -0.1075 -0.1685
   31CHL1   C13 2246   2.327   3.231   7.353 -0.2672 -0.2069 -0.5512
   31CHL1   C18 2247   2.281   3.085   7.375  0.1591  0.7748  0.7431
   31CHL1  H18A 2248   2.232   3.045   7.284 -0.1835  0.7229  0.9536
   31CHL1  H18B 2249   2.361   3.011   7.400 -1.7265 -2.7067 -2.9313
   31CHL1  H18C 2250   2.195   3.084   7.444 -0.1534 -1.8698  0.3616
   31CHL1   C12 2251   2.223   3.327   7.293  0.8533 -0.3668 -0.2328
   31CHL1  H12A 2252   2.133   3.335   7.358  0.5398 -0.4204 -0.6525
   31CHL1  H12B 2253   2.262   3.430   7.287 -1.6471  0.7300  1.2637
   31CHL1   C11 2254   2.165   3.288   7.160  0.3031 -0.2509  0.6519
   31CHL1  H11A 2255   2.109   3.194   7.179  1.8626 -1.1978  0.6884
   31CHL1  H11B 2256   2.092   3.364   7.127  0.1743  0.3672  2.2926
   31CHL1    C9 2257   2.275   3.263   7.054  0.1375 -0.0070 -0.6204
   31CHL1    H9 2258   2.323   3.358   7.024  0.7048 -0.3841 -0.9118
   31CHL1   C10 2259   2.235   3.201   6.919  0.7464 -0.7142 -0.0560
   31CHL1   C19 2260   2.153   3.064   6.937  0.4611  0.7131 -1.0561
   31CHL1  H19A 2261   2.068   3.078   7.007  1.0596 -0.3580 -0.1033
   31CHL1  H19B 2262   2.118   3.023   6.840 -0.1112  2.8981 -1.7940
   31CHL1  H19C 2263   2.222   2.988   6.979 -0.9665  0.4331  0.8155
   31CHL1    C1 2264   2.129   3.300   6.860 -0.1979 -0.4564 -0.2333
   31CHL1   H1A 2265   2.046   3.297   6.933  0.7125  3.4919  1.0797
   31CHL1   H1B 2266   2.166   3.404   6.874 -0.1969 -0.2239 -1.8332
   31CHL1    C2 2267   2.099   3.270   6.713  0.5708 -0.3408  0.1832
   31CHL1   H2A 2268   2.030   3.345   6.670  0.7405 -0.2398  0.0864
   31CHL1   H2B 2269   2.040   3.178   6.690  0.1596 -0.1907  0.6413
   31CHL1   C20 2270   2.353   3.258   7.625  0.3678  0.6008  0.5648
   31CHL1   H20 2271   2.337   3.151   7.648 -1.7294  0.7107 -0.2650
   31CHL1   C21 2272   2.223   3.339   7.633  0.7063 -0.6810 -0.0034
   31CHL1  H21A 2273   2.261   3.431   7.585  0.5295 -0.0217  1.0947
   31CHL1  H21B 2274   2.179   3.336   7.735 -0.9056 -1.0354 -0.6931
   31CHL1  H21C 2275   2.140   3.311   7.565 -0.8204  2.8026  0.2921
   31CHL1   C22 2276   2.455   3.317   7.732  0.6603 -0.3890  0.6560
   31CHL1  H22A 2277   2.544   3.251   7.726  1.2070  0.5204 -1.5800
   31CHL1  H22B 2278   2.480   3.419   7.695  3.4097 -0.9934  0.7258
   31CHL1   C23 2279   2.403   3.334   7.869  0.9794  0.0029  0.0183
   31CHL1  H23A 2280   2.327   3.415   7.866  0.8268 -0.1552 -0.5799
   31CHL1  H23B 2281   2.359   3.240   7.908  2.2382 -0.3571  0.6086
   31CHL1   C24 2282   2.518   3.371   7.967 -0.3446 -0.0597  0.6248
   31CHL1  H24A 2283   2.583   3.284   7.987  0.7119  0.7796  0.9126
   31CHL1  H24B 2284   2.574   3.453   7.916 -1.2808  0.6575  0.7233
   31CHL1   C25 2285   2.465   3.434   8.094  0.1842 -0.6125 -0.5278
   31CHL1   H25 2286   2.381   3.499   8.062  0.5215 -0.6790 -1.5675
   31CHL1   C26 2287   2.398   3.338   8.190 -0.7061  0.2541  1.0303
   31CHL1  H26A 2288   2.353   3.394   8.275 -2.7642  2.3398 -1.3270
   31CHL1  H26B 2289   2.315   3.282   8.142 -0.3097  0.8810 -0.4211
   31CHL1  H26C 2290   2.485   3.283   8.232  1.3723  2.8654  0.3275
   31CHL1   C27 2291   2.580   3.507   8.161 -0.3447 -0.5079 -0.1957
   31CHL1  H27A 2292   2.542   3.549   8.256  0.4379 -0.5478  0.1450
   31CHL1  H27B 2293   2.608   3.592   8.096 -0.0907  1.4045  2.3400
   31CHL1  H27C 2294   2.662   3.439   8.193 -2.1820 -1.9143  1.6851
   32CHL1    C3 2295   2.747   0.737   7.054  0.9706 -0.0555  0.1380
   32CHL1    H3 2296   2.690   0.650   7.093  0.7491  0.5880  1.2934
   32CHL1    O3 2297   2.742   0.745   6.913  0.1044 -0.3413  0.5929
   32CHL1   H3' 2298   2.766   0.836   6.894  0.1039  0.0453  2.4329
   32CHL1    C4 2299   2.671   0.859   7.104 -0.8631 -0.8460 -0.6172
   32CHL1   H4A 2300   2.699   0.950   7.047 -1.4382 -0.6883 -0.6553
   32CHL1   H4B 2301   2.566   0.836   7.076 -0.9113  0.3672 -1.4709
   32CHL1    C5 2302   2.687   0.900   7.253 -0.2629  0.4075  0.0155
   32CHL1    C6 2303   2.581   0.919   7.334  0.5233 -0.1502 -0.5930
   32CHL1    H6 2304   2.479   0.910   7.294  0.9360  0.7385 -1.8882
   32CHL1    C7 2305   2.588   0.968   7.476  0.3729 -0.1330  0.1703
   32CHL1   H7A 2306   2.536   1.065   7.491  0.3642 -0.5255  3.1337
   32CHL1   H7B 2307   2.537   0.897   7.545 -1.4140  0.4635 -0.5127
   32CHL1    C8 2308   2.733   0.993   7.530 -0.0320 -0.8200 -0.1087
   32CHL1    H8 2309   2.761   1.097   7.504 -2.2450  0.0629  0.9320
   32CHL1   C14 2310   2.753   0.975   7.680  0.5224  0.2286  0.1871
   32CHL1   H14 2311   2.694   0.883   7.702 -0.8622  0.7485 -1.2401
   32CHL1   C15 2312   2.670   1.074   7.758  0.6159  0.2127  0.4040
   32CHL1  H15A 2313   2.691   1.177   7.723  1.4713 -1.0197 -2.8508
   32CHL1  H15B 2314   2.562   1.058   7.738  0.7097  0.5373 -0.3461
   32CHL1   C16 2315   2.727   1.052   7.900  0.5673 -0.0726 -0.2267
   32CHL1  H16A 2316   2.731   1.152   7.949  0.5855 -0.1023 -0.1678
   32CHL1  H16B 2317   2.661   0.975   7.946  2.1284 -1.8697 -0.9390
   32CHL1   C17 2318   2.860   0.973   7.886  0.7698 -0.4979 -0.9725
   32CHL1   H17 2319   2.842   0.865   7.902 -0.3922 -0.4214 -1.7197
   32CHL1   C13 2320   2.891   0.990   7.737  0.5103 -0.2135 -0.0198
   32CHL1   C18 2321   2.944   1.132   7.706 -0.6458 -0.7464  0.0267
   32CHL1  H18A 2322   2.952   1.162   7.599  0.8577  0.4585  0.4493
   32CHL1  H18B 2323   2.894   1.212   7.765  0.2088  0.4378 -0.8177
   32CHL1  H18C 2324   3.045   1.143   7.751  0.4027 -0.7992 -2.2381
   32CHL1   C12 2325   2.969   0.886   7.669  0.0638  0.0283 -0.6745
   32CHL1  H12A 2326   3.076   0.888   7.696 -0.4094 -0.4983  1.3356
   32CHL1  H12B 2327   2.929   0.784   7.691  0.0031 -0.0474 -1.1149
   32CHL1   C11 2328   2.975   0.907   7.513 -0.6051  0.7203  0.7516
   32CHL1  H11A 2329   3.024   1.003   7.488  0.9996 -0.2838 -0.0709
   32CHL1  H11B 2330   3.032   0.823   7.467 -0.2759  1.7197 -0.7229
   32CHL1    C9 2331   2.834   0.897   7.456 -0.1398 -0.3894  0.9707
   32CHL1    H9 2332   2.801   0.793   7.477 -3.5972  0.4465  0.0403
   32CHL1   C10 2333   2.835   0.906   7.301 -0.1561 -0.0893  0.0862
   32CHL1   C19 2334   2.905   1.033   7.249  0.6344  0.0232 -0.1162
   32CHL1  H19A 2335   2.858   1.127   7.286 -0.0098  1.0256 -3.2912
   32CHL1  H19B 2336   3.013   1.036   7.275  0.5962 -2.5754  0.4352
   32CHL1  H19C 2337   2.893   1.025   7.139  0.7484 -2.3975  0.0286
   32CHL1    C1 2338   2.903   0.775   7.248 -0.3617  0.0984 -0.0387
   32CHL1   H1A 2339   3.010   0.780   7.277 -0.1584  1.7563 -1.0212
   32CHL1   H1B 2340   2.867   0.694   7.315 -2.7377  1.8730  0.9341
   32CHL1    C2 2341   2.891   0.737   7.096  0.0804 -0.8142  0.6149
   32CHL1   H2A 2342   2.945   0.639   7.089  3.1380  0.8973 -0.7894
   32CHL1   H2B 2343   2.946   0.812   7.035 -0.8830 -0.7121 -0.1260
   32CHL1   C20 2344   2.970   1.018   7.988 -0.0502 -0.2521 -0.0607
   32CHL1   H20 2345   3.011   1.117   7.960  1.1086 -0.3921  1.1031
   32CHL1   C21 2346   3.086   0.917   7.982  0.4263 -0.0822 -0.5038
   32CHL1  H21A 2347   3.150   0.934   8.071 -1.9709 -0.1201  1.2936
   32CHL1  H21B 2348   3.140   0.937   7.888  2.0474  1.7726  0.7945
   32CHL1  H21C 2349   3.044   0.814   7.975 -0.3699  0.1629  0.5166
   32CHL1   C22 2350   2.924   1.036   8.134 -0.0033  0.0911  0.7500
   32CHL1  H22A 2351   2.818   1.070   8.133 -0.7683 -2.1018  2.7749
   32CHL1  H22B 2352   2.928   0.936   8.182  3.7593 -1.0510 -1.7099
   32CHL1   C23 2353   3.011   1.128   8.214  0.2178 -0.3341  0.2232
   32CHL1  H23A 2354   3.111   1.085   8.235 -0.5161 -0.8457  2.8599
   32CHL1  H23B 2355   3.030   1.216   8.148 -0.8862 -0.1237  0.1811
   32CHL1   C24 2356   2.948   1.166   8.348 -0.2269 -0.9477 -0.1472
   32CHL1  H24A 2357   2.925   1.067   8.392  0.8319 -0.0826  2.4686
   32CHL1  H24B 2358   3.021   1.214   8.417 -2.2469  1.7874  0.1678
   32CHL1   C25 2359   2.811   1.241   8.362  0.5065 -0.2598  0.1978
   32CHL1   H25 2360   2.732   1.178   8.316  0.2831  1.2750 -1.5841
   32CHL1   C26 2361   2.783   1.241   8.514  0.1312 -0.2917  0.8781
   32CHL1  H26A 2362   2.682   1.285   8.529  0.1655  0.1062 -0.0097
   32CHL1  H26B 2363   2.782   1.135   8.548 -2.0432 -0.9231 -1.0052
   32CHL1  H26C 2364   2.855   1.309   8.563 -1.3427  2.4576 -0.6678
   32CHL1   C27 2365   2.812   1.386   8.309  0.0520  0.0232  0.9045
   32CHL1  H27A 2366   2.820   1.402   8.199  2.1060 -0.8170  0.9260
   32CHL1  H27B 2367   2.719   1.437   8.343 -0.1910  0.5973 -0.5941
   32CHL1  H27C 2368   2.892   1.440   8.363  0.9734 -0.7347  0.2978
   33CHL1    C3 2369   3.649   1.220   6.658  0.4347 -0.0137 -0.2825
   33CHL1    H3 2370   3.547   1.179   6.671 -0.1398  1.9180  1.5903
   33CHL1    O3 2371   3.674   1.228   6.517 -0.3348 -0.0684 -0.6845
   33CHL1   H3' 2372   3.737   1.301   6.512  0.7402 -0.9464 -0.2515
   33CHL1    C4 2373   3.656   1.360   6.721  0.7626  0.1164 -0.7077
   33CHL1   H4A 2374   3.755   1.396   6.688  1.6228 -1.9522 -0.4646
   33CHL1   H4B 2375   3.585   1.426   6.666  0.2704  0.1296 -0.0586
   33CHL1    C5 2376   3.647   1.363   6.875  0.3810 -0.1475 -0.3073
   33CHL1    C6 2377   3.559   1.444   6.943 -0.0492  0.4745 -0.7386
   33CHL1    H6 2378   3.493   1.510   6.884 -1.2076  0.9147  1.0149
   33CHL1    C7 2379   3.554   1.443   7.096  0.6728 -0.0738  0.3739
   33CHL1   H7A 2380   3.524   1.547   7.122 -1.6022 -0.2864 -1.2016
   33CHL1   H7B 2381   3.479   1.371   7.135 -0.7016  0.4847 -1.1351
   33CHL1    C8 2382   3.689   1.388   7.153  0.4113  0.3461  0.4088
   33CHL1    H8 2383   3.773   1.458   7.131  0.3695 -0.4753 -2.6380
   33CHL1   C14 2384   3.669   1.377   7.306 -0.4684  0.1579 -0.7561
   33CHL1   H14 2385   3.577   1.315   7.312 -2.4852  3.1059 -0.5243
   33CHL1   C15 2386   3.631   1.502   7.382 -0.5007 -0.0338 -0.2256
   33CHL1  H15A 2387   3.702   1.583   7.357 -2.0598  1.5361  0.3496
   33CHL1  H15B 2388   3.530   1.542   7.358 -0.6817 -0.6683 -0.5347
   33CHL1   C16 2389   3.653   1.465   7.525  0.2218  0.3961 -0.1262
   33CHL1  H16A 2390   3.719   1.538   7.576  1.0105 -0.3509 -0.0619
   33CHL1  H16B 2391   3.562   1.450   7.588 -1.9650  3.0526 -2.5327
   33CHL1   C17 2392   3.721   1.321   7.524  0.3024 -0.1485 -0.0590
   33CHL1   H17 2393   3.636   1.248   7.522  2.2507 -2.4966 -3.4188
   33CHL1   C13 2394   3.784   1.308   7.387  0.2572 -0.2876  0.2174
   33CHL1   C18 2395   3.916   1.391   7.377 -0.9376  0.1588 -1.1708
   33CHL1  H18A 2396   3.914   1.479   7.445 -3.1946 -0.9322  0.2495
   33CHL1  H18B 2397   4.006   1.340   7.416  0.0103  0.1270 -3.3400
   33CHL1  H18C 2398   3.951   1.432   7.280  1.7294  0.2431 -0.2174
   33CHL1   C12 2399   3.796   1.165   7.317 -0.4195  0.6627  0.3435
   33CHL1  H12A 2400   3.851   1.084   7.370 -0.8825 -2.1467 -3.2648
   33CHL1  H12B 2401   3.694   1.123   7.322  0.0891 -0.9704 -2.1528
   33CHL1   C11 2402   3.835   1.185   7.171  0.1282  0.5002  1.0717
   33CHL1  H11A 2403   3.925   1.249   7.173 -2.2023  3.9113  2.0861
   33CHL1  H11B 2404   3.840   1.080   7.133  0.1087  1.2232 -0.9840
   33CHL1    C9 2405   3.723   1.260   7.097 -0.6323 -0.0002 -0.0513
   33CHL1    H9 2406   3.629   1.201   7.108  0.5267 -1.2736  3.5480
   33CHL1   C10 2407   3.747   1.262   6.946 -0.4615  0.1488  0.8289
   33CHL1   C19 2408   3.896   1.311   6.931 -0.0091 -0.6457 -0.9944
   33CHL1  H19A 2409   3.967   1.236   6.975  1.5235  2.4554  2.1177
   33CHL1  H19B 2410   3.915   1.324   6.823  2.5347 -0.1768 -0.5414
   33CHL1  H19C 2411   3.910   1.413   6.973 -0.9207  0.0810 -2.4448
   33CHL1    C1 2412   3.719   1.120   6.874  0.1448 -0.4686  0.2257
   33CHL1   H1A 2413   3.783   1.041   6.919  1.0266  0.3745  0.4754
   33CHL1   H1B 2414   3.618   1.079   6.894 -0.3562  0.4411 -0.4220
   33CHL1    C2 2415   3.745   1.121   6.724  0.3397  1.0808 -0.8916
   33CHL1   H2A 2416   3.714   1.020   6.689  1.3676  0.8059 -1.0148
   33CHL1   H2B 2417   3.853   1.139   6.702  0.2411  1.9820 -0.6905
   33CHL1   C20 2418   3.811   1.286   7.644 -0.0295 -0.3095 -0.5323
   33CHL1   H20 2419   3.900   1.352   7.633 -0.9253  0.9130 -0.5289
   33CHL1   C21 2420   3.857   1.149   7.642  0.0808 -0.0361  0.2772
   33CHL1  H21A 2421   3.881   1.105   7.741  2.4624  0.8155  0.1006
   33CHL1  H21B 2422   3.946   1.131   7.579  1.0519  2.0455  0.9894
   33CHL1  H21C 2423   3.776   1.086   7.598 -1.2779  0.3093  2.2124
   33CHL1   C22 2424   3.738   1.308   7.786  0.7070 -0.1167 -0.2900
   33CHL1  H22A 2425   3.685   1.406   7.787 -0.2982 -0.6102 -1.8576
   33CHL1  H22B 2426   3.658   1.231   7.795  2.4406 -1.7269  1.8883
   33CHL1   C23 2427   3.826   1.304   7.909 -0.8428 -0.5692 -1.1546
   33CHL1  H23A 2428   3.857   1.198   7.923 -1.8724 -1.1020 -2.7509
   33CHL1  H23B 2429   3.912   1.370   7.889 -1.7362  1.3488  1.0841
   33CHL1   C24 2430   3.751   1.354   8.028  0.0064 -0.5233 -0.8983
   33CHL1  H24A 2431   3.701   1.452   8.013  1.0030  0.2039  0.4431
   33CHL1  H24B 2432   3.668   1.282   8.043 -0.7711  0.6239  0.4205
   33CHL1   C25 2433   3.825   1.372   8.163  0.6698  0.1586 -0.5238
   33CHL1   H25 2434   3.900   1.452   8.145  1.6401 -0.7956 -0.8027
   33CHL1   C26 2435   3.720   1.411   8.274 -0.4509 -0.4376 -0.7958
   33CHL1  H26A 2436   3.770   1.429   8.371  0.0959  0.3997 -1.2245
   33CHL1  H26B 2437   3.678   1.509   8.245 -0.5108 -0.1279  0.3243
   33CHL1  H26C 2438   3.632   1.343   8.271  0.6346 -1.8855 -0.8414
   33CHL1   C27 2439   3.909   1.252   8.208 -0.4254 -0.1222  0.4309
   33CHL1  H27A 2440   3.979   1.223   8.126  0.7568  3.3737  0.1111
   33CHL1  H27B 2441   3.970   1.281   8.296 -0.3382  0.5039  0.1695
   33CHL1  H27C 2442   3.845   1.164   8.226 -0.0313  0.1675  3.4084
   34CHL1    C3 2443   5.150   0.248   7.091 -0.3028  0.0531  0.2886
   34CHL1    H3 2444   5.101   0.150   7.107 -1.0013  0.2683 -0.5259
   34CHL1    O3 2445   5.154   0.269   6.955 -0.3706 -0.1207  0.0548
   34CHL1   H3' 2446   5.234   0.233   6.915 -2.9268 -1.5788 -4.0569
   34CHL1    C4 2447   5.070   0.364   7.154  0.1522  0.2569 -0.0739
   34CHL1   H4A 2448   5.098   0.463   7.111  1.0018  0.4169  0.8264
   34CHL1   H4B 2449   4.968   0.344   7.114 -0.2137  0.2134  0.8803
   34CHL1    C5 2450   5.070   0.354   7.305 -0.0461 -0.5172 -0.3823
   34CHL1    C6 2451   4.959   0.360   7.380  0.0734  0.0825  0.1143
   34CHL1    H6 2452   4.864   0.385   7.331  0.1495 -0.7533 -0.4714
   34CHL1    C7 2453   4.959   0.343   7.523  0.2324 -0.4187  0.1543
   34CHL1   H7A 2454   4.888   0.420   7.562 -0.2356  0.6951 -2.7865
   34CHL1   H7B 2455   4.938   0.236   7.543  0.0264 -0.3494  0.3158
   34CHL1    C8 2456   5.097   0.366   7.588  0.0799  0.1381 -0.3868
   34CHL1    H8 2457   5.123   0.474   7.584  2.1328 -0.3994 -2.8562
   34CHL1   C14 2458   5.091   0.326   7.735 -0.2190 -0.4756  0.3171
   34CHL1   H14 2459   5.063   0.218   7.730  1.1627 -0.8956  1.1950
   34CHL1   C15 2460   4.982   0.384   7.823 -0.2376 -0.4331 -0.0197
   34CHL1  H15A 2461   4.986   0.495   7.825 -0.3189 -0.4317  0.0563
   34CHL1  H15B 2462   4.875   0.366   7.797 -0.1870  0.3433 -0.8054
   34CHL1   C16 2463   5.027   0.351   7.970  0.3960  0.5019  0.1823
   34CHL1  H16A 2464   5.045   0.438   8.036 -0.4884 -1.3300  2.9471
   34CHL1  H16B 2465   4.950   0.292   8.025  1.3735 -0.3100  0.7116
   34CHL1   C17 2466   5.171   0.284   7.956 -0.0263 -0.0726 -0.2885
   34CHL1   H17 2467   5.145   0.176   7.958  0.1853 -0.1186  0.2629
   34CHL1   C13 2468   5.219   0.326   7.814  0.4662  0.4734 -0.2543
   34CHL1   C18 2469   5.276   0.472   7.820  0.3457 -0.5447  0.2176
   34CHL1  H18A 2470   5.288   0.514   7.719 -1.2295 -0.7115 -0.0558
   34CHL1  H18B 2471   5.217   0.538   7.887 -1.4983  0.4025 -2.2743
   34CHL1  H18C 2472   5.384   0.481   7.843  0.2893 -0.3665  0.4201
   34CHL1   C12 2473   5.316   0.227   7.739  0.1824 -0.5321 -0.0725
   34CHL1  H12A 2474   5.418   0.239   7.781  0.3430 -0.1954 -0.5441
   34CHL1  H12B 2475   5.287   0.120   7.742  1.4195 -0.8234  3.0088
   34CHL1   C11 2476   5.333   0.267   7.596 -0.7255 -0.1218  0.2025
   34CHL1  H11A 2477   5.387   0.364   7.594  2.1555 -1.6641 -0.8996
   34CHL1  H11B 2478   5.401   0.195   7.545 -0.9139 -1.1174  1.3594
   34CHL1    C9 2479   5.203   0.281   7.521 -0.1067  0.0466  0.7344
   34CHL1    H9 2480   5.158   0.179   7.517 -0.1060  0.1040 -3.2103
   34CHL1   C10 2481   5.214   0.328   7.366  0.3471  0.2342 -0.1150
   34CHL1   C19 2482   5.274   0.468   7.346  0.3820  0.4558 -0.6609
   34CHL1  H19A 2483   5.206   0.543   7.391 -1.2170 -1.9448  1.0932
   34CHL1  H19B 2484   5.369   0.472   7.403  0.6465  0.1417 -1.0681
   34CHL1  H19C 2485   5.294   0.486   7.238 -0.3375 -0.3997 -0.9453
   34CHL1    C1 2486   5.299   0.221   7.290  0.8896 -0.7420 -0.0074
   34CHL1   H1A 2487   5.402   0.236   7.327  1.1578 -3.2945  0.4088
   34CHL1   H1B 2488   5.266   0.117   7.312 -4.0876  0.9642  1.1928
   34CHL1    C2 2489   5.297   0.236   7.143 -0.4999 -0.1531 -0.2307
   34CHL1   H2A 2490   5.343   0.150   7.090 -0.8802  0.3282 -1.3706
   34CHL1   H2B 2491   5.362   0.323   7.118  0.8189 -0.8628  0.7018
   34CHL1   C20 2492   5.260   0.309   8.080  0.1269 -0.0173  0.3310
   34CHL1   H20 2493   5.286   0.415   8.098  4.8981 -1.0322 -0.0101
   34CHL1   C21 2494   5.400   0.240   8.057 -0.9306  0.1631  0.1075
   34CHL1  H21A 2495   5.458   0.289   7.976  1.7636 -0.0519  1.8307
   34CHL1  H21B 2496   5.393   0.129   8.052 -0.3520  0.1207  0.2091
   34CHL1  H21C 2497   5.455   0.257   8.152 -0.9716  2.1182 -0.2079
   34CHL1   C22 2498   5.183   0.247   8.200  0.5134 -0.1038 -0.2171
   34CHL1  H22A 2499   5.080   0.288   8.208 -0.4905 -2.4889 -0.5086
   34CHL1  H22B 2500   5.166   0.138   8.189 -0.0754 -0.1833  1.2645
   34CHL1   C23 2501   5.260   0.280   8.324  0.9169  0.5846 -0.0066
   34CHL1  H23A 2502   5.347   0.211   8.330 -1.1368 -1.9623  1.4896
   34CHL1  H23B 2503   5.289   0.386   8.313 -2.5226  1.5053 -0.8726
   34CHL1   C24 2504   5.171   0.270   8.447 -0.8054 -0.3612 -0.8137
   34CHL1  H24A 2505   5.089   0.344   8.435  0.2768  0.6658 -1.8851
   34CHL1  H24B 2506   5.119   0.172   8.447  1.9630 -1.8967 -2.8088
   34CHL1   C25 2507   5.244   0.287   8.580  0.1257 -0.3438 -0.1127
   34CHL1   H25 2508   5.285   0.390   8.582 -1.4540  0.2871  0.4012
   34CHL1   C26 2509   5.149   0.272   8.701 -0.2633 -0.0038 -0.1458
   34CHL1  H26A 2510   5.078   0.188   8.683  0.6063 -0.6310 -0.6962
   34CHL1  H26B 2511   5.197   0.253   8.799  0.0190  0.3700 -0.2126
   34CHL1  H26C 2512   5.091   0.366   8.718  0.9970  0.9458 -0.9973
   34CHL1   C27 2513   5.357   0.184   8.612  0.0237  0.4935  0.4622
   34CHL1  H27A 2514   5.321   0.080   8.592  2.0868 -0.4007  1.3157
   34CHL1  H27B 2515   5.433   0.202   8.534 -0.2622 -1.1401 -0.2331
   34CHL1  H27C 2516   5.394   0.196   8.715  0.8025  1.0501  0.1178
   35CHL1    C3 2517   1.274   1.369   7.370 -0.2622 -0.4047  0.0617
   35CHL1    H3 2518   1.201   1.294   7.407  0.4779 -0.3487  1.6637
   35CHL1    O3 2519   1.244   1.403   7.237 -0.0512  0.0626 -0.2587
   35CHL1   H3' 2520   1.262   1.328   7.180 -2.1131  1.5176 -2.9272
   35CHL1    C4 2521   1.275   1.494   7.458 -0.4985 -1.3652  0.1911
   35CHL1   H4A 2522   1.338   1.563   7.398 -0.8569  1.1804  2.5974
   35CHL1   H4B 2523   1.172   1.534   7.451  0.4349  1.1082  0.0313
   35CHL1    C5 2524   1.317   1.469   7.602 -0.2762  0.5457 -0.0505
   35CHL1    C6 2525   1.232   1.499   7.708  0.2070  0.5270 -0.1946
   35CHL1    H6 2526   1.129   1.535   7.700 -0.5858 -1.6404 -0.1154
   35CHL1    C7 2527   1.271   1.479   7.853 -0.9748 -0.4202 -0.1018
   35CHL1   H7A 2528   1.268   1.579   7.902  1.7183 -0.6326  0.5829
   35CHL1   H7B 2529   1.200   1.413   7.907 -1.2812 -0.8558 -1.0240
   35CHL1    C8 2530   1.424   1.441   7.865 -0.6420 -0.2412  0.0870
   35CHL1    H8 2531   1.484   1.533   7.849  0.9946 -2.0436 -5.3873
   35CHL1   C14 2532   1.449   1.377   7.999  0.0137  0.0869 -0.1889
   35CHL1   H14 2533   1.389   1.283   7.997 -1.0079  0.6846  1.2898
   35CHL1   C15 2534   1.387   1.445   8.124  0.0896 -0.1012 -0.0302
   35CHL1  H15A 2535   1.409   1.553   8.120 -1.8785  0.3091 -0.2715
   35CHL1  H15B 2536   1.278   1.424   8.132 -0.1179  0.7074 -0.7067
   35CHL1   C16 2537   1.462   1.385   8.242 -0.1370  0.2615  0.2848
   35CHL1  H16A 2538   1.510   1.469   8.297  1.7319 -0.8191  0.3660
   35CHL1  H16B 2539   1.392   1.335   8.313  0.2925 -0.5878  0.1126
   35CHL1   C17 2540   1.578   1.287   8.176  0.3494  0.2835  0.0783
   35CHL1   H17 2541   1.530   1.188   8.164  0.0489 -0.4276  5.6261
   35CHL1   C13 2542   1.593   1.339   8.030 -0.2628 -0.4573  0.8322
   35CHL1   C18 2543   1.675   1.467   8.035 -0.2853 -0.1876  0.1024
   35CHL1  H18A 2544   1.651   1.526   8.126 -1.6378 -0.9331  0.2301
   35CHL1  H18B 2545   1.785   1.449   8.035 -0.3437 -0.6169  1.5103
   35CHL1  H18C 2546   1.652   1.527   7.944  1.7517  0.0957 -0.2473
   35CHL1   C12 2547   1.640   1.234   7.921  0.4278  0.2585 -0.3305
   35CHL1  H12A 2548   1.745   1.201   7.923 -0.1950 -1.6835  1.1589
   35CHL1  H12B 2549   1.565   1.152   7.931 -1.6976  1.8001 -2.8393
   35CHL1   C11 2550   1.618   1.296   7.787 -0.2977  0.3710  0.5997
   35CHL1  H11A 2551   1.684   1.384   7.770  1.5263 -0.9699  0.4574
   35CHL1  H11B 2552   1.646   1.216   7.714 -0.9308  0.5593  0.1460
   35CHL1    C9 2553   1.472   1.348   7.761  0.4907 -0.1236 -0.1768
   35CHL1    H9 2554   1.404   1.261   7.773  0.9668 -0.2943  1.3802
   35CHL1   C10 2555   1.458   1.399   7.614  0.3185 -0.3057 -0.4328
   35CHL1   C19 2556   1.567   1.498   7.572 -0.0540  0.2152 -0.9623
   35CHL1  H19A 2557   1.543   1.542   7.472 -0.2701  3.7083  0.5552
   35CHL1  H19B 2558   1.578   1.596   7.624 -1.1638 -1.1976  2.0794
   35CHL1  H19C 2559   1.667   1.451   7.572  1.0975  2.5239  2.2195
   35CHL1    C1 2560   1.440   1.272   7.521 -0.2232  0.0755 -0.3320
   35CHL1   H1A 2561   1.527   1.203   7.524  0.2261  0.6327 -0.4525
   35CHL1   H1B 2562   1.352   1.220   7.563 -0.0847 -0.0692 -0.2240
   35CHL1    C2 2563   1.409   1.297   7.376  0.2521  0.0301 -0.2411
   35CHL1   H2A 2564   1.401   1.201   7.320  2.1029 -0.5198  0.4113
   35CHL1   H2B 2565   1.495   1.348   7.328  0.7087 -0.7335 -0.2418
   35CHL1   C20 2566   1.699   1.275   8.268  0.2228  0.1117 -0.6821
   35CHL1   H20 2567   1.730   1.380   8.288  0.2397  0.0321 -0.2933
   35CHL1   C21 2568   1.808   1.188   8.215 -0.4965 -0.4058  0.6381
   35CHL1  H21A 2569   1.904   1.196   8.270 -0.5438  0.0736  0.6520
   35CHL1  H21B 2570   1.828   1.220   8.111 -0.9572 -0.4918  0.5200
   35CHL1  H21C 2571   1.777   1.082   8.199 -2.9041  0.1182  1.5433
   35CHL1   C22 2572   1.656   1.215   8.405 -0.4031  0.2426 -0.3355
   35CHL1  H22A 2573   1.575   1.268   8.459 -2.0787 -2.1490 -0.4416
   35CHL1  H22B 2574   1.620   1.111   8.391  0.6761 -0.0164 -1.2251
   35CHL1   C23 2575   1.778   1.215   8.503 -0.6766  0.6016  0.2833
   35CHL1  H23A 2576   1.865   1.155   8.470 -1.1658  0.8870 -1.5693
   35CHL1  H23B 2577   1.807   1.322   8.507 -2.3705  1.0614  1.1142
   35CHL1   C24 2578   1.739   1.175   8.646 -0.3433 -0.0937 -0.4579
   35CHL1  H24A 2579   1.709   1.068   8.648 -3.2947  0.7026 -0.3245
   35CHL1  H24B 2580   1.832   1.190   8.705 -0.7473  0.2373  0.1026
   35CHL1   C25 2581   1.623   1.251   8.715  0.0001 -0.1199  1.0543
   35CHL1   H25 2582   1.533   1.221   8.656 -0.7832 -0.8552  2.6057
   35CHL1   C26 2583   1.609   1.218   8.865  0.0111 -0.4742  0.1139
   35CHL1  H26A 2584   1.583   1.111   8.879 -0.6090 -0.2232  0.8879
   35CHL1  H26B 2585   1.708   1.240   8.911 -0.2038  0.4167  0.1595
   35CHL1  H26C 2586   1.537   1.285   8.916  0.1106 -0.8879  0.7963
   35CHL1   C27 2587   1.638   1.395   8.705 -0.4123  0.3291  0.0363
   35CHL1  H27A 2588   1.559   1.443   8.768 -0.3053 -1.3197  1.4733
   35CHL1  H27B 2589   1.625   1.415   8.597 -1.1981  3.4854  0.6527
   35CHL1  H27C 2590   1.741   1.423   8.737 -0.3045 -1.3092  1.1772
   36CHL1    C3 2591   1.159   0.410   7.033  0.0187 -0.1587  0.2550
   36CHL1    H3 2592   1.151   0.520   7.018  4.4676  0.6478  2.7138
   36CHL1    O3 2593   1.169   0.350   6.905  0.6720 -0.1765 -0.0264
   36CHL1   H3' 2594   1.163   0.256   6.924  0.4246 -0.2632 -0.5318
   36CHL1    C4 2595   1.279   0.383   7.117  0.1670 -0.2645 -0.2439
   36CHL1   H4A 2596   1.311   0.278   7.104  0.2420 -0.0874 -1.4861
   36CHL1   H4B 2597   1.371   0.436   7.083  0.9155 -1.2388  0.2368
   36CHL1    C5 2598   1.253   0.419   7.264  1.0354  0.1445 -0.4251
   36CHL1    C6 2599   1.331   0.510   7.327 -0.3403  0.2484 -0.7004
   36CHL1    H6 2600   1.416   0.555   7.274  1.0498  0.8650  1.9667
   36CHL1    C7 2601   1.317   0.552   7.468 -0.7304  0.0259  0.3014
   36CHL1   H7A 2602   1.414   0.546   7.521 -1.2249  1.9871  1.4791
   36CHL1   H7B 2603   1.270   0.652   7.459 -0.9740  0.0335  1.5654
   36CHL1    C8 2604   1.220   0.460   7.550  0.1213  0.4240 -0.3211
   36CHL1    H8 2605   1.271   0.364   7.570  0.1832 -0.0095 -2.4295
   36CHL1   C14 2606   1.182   0.526   7.680 -0.2182 -0.6100 -0.8814
   36CHL1   H14 2607   1.113   0.611   7.658 -0.6144 -0.1162  2.0744
   36CHL1   C15 2608   1.293   0.572   7.770 -0.8014 -0.9052 -0.0357
   36CHL1  H15A 2609   1.373   0.496   7.788  1.0918  1.1798  0.6037
   36CHL1  H15B 2610   1.335   0.667   7.731 -0.7140 -0.4166  1.2252
   36CHL1   C16 2611   1.225   0.598   7.906 -0.6967 -0.5296  0.4170
   36CHL1  H16A 2612   1.274   0.540   7.987  2.3260 -0.6647 -1.4500
   36CHL1  H16B 2613   1.225   0.704   7.938 -0.0569  0.6758 -3.3868
   36CHL1   C17 2614   1.081   0.539   7.890  0.1790  0.2221 -0.2952
   36CHL1   H17 2615   1.008   0.618   7.862 -1.2592 -0.3305  1.7040
   36CHL1   C13 2616   1.084   0.446   7.771 -0.7609 -0.8646 -0.5709
   36CHL1   C18 2617   1.161   0.315   7.820  0.2677 -0.0138  0.6752
   36CHL1  H18A 2618   1.186   0.248   7.734 -0.4245  2.2269 -1.3100
   36CHL1  H18B 2619   1.258   0.341   7.867 -0.6680  1.2530  1.9253
   36CHL1  H18C 2620   1.106   0.253   7.894  0.3429 -1.2499 -0.2706
   36CHL1   C12 2621   0.958   0.413   7.696 -0.1689  0.1621  0.4987
   36CHL1  H12A 2622   0.898   0.329   7.738 -1.8844  1.4556  0.7039
   36CHL1  H12B 2623   0.908   0.511   7.678  1.3189  0.7099 -0.6850
   36CHL1   C11 2624   0.988   0.358   7.552  0.1517 -0.8026 -0.3338
   36CHL1  H11A 2625   1.013   0.252   7.573 -1.3646 -1.1618 -0.3049
   36CHL1  H11B 2626   0.895   0.355   7.491  1.5621  0.4352 -2.6189
   36CHL1    C9 2627   1.099   0.441   7.468  0.1189 -0.1363  0.2624
   36CHL1    H9 2628   1.050   0.540   7.460  0.6462 -0.0365 -2.2574
   36CHL1   C10 2629   1.123   0.375   7.331  0.0498 -0.5969  0.4779
   36CHL1   C19 2630   1.141   0.217   7.345  0.9152  0.3473 -0.5360
   36CHL1  H19A 2631   1.043   0.165   7.342  1.5482 -1.0294  1.5826
   36CHL1  H19B 2632   1.203   0.182   7.260 -0.1752  0.8436 -1.5462
   36CHL1  H19C 2633   1.206   0.195   7.433  2.5600  0.1978 -1.7687
   36CHL1    C1 2634   1.007   0.400   7.234 -0.6900  0.1605  0.5515
   36CHL1   H1A 2635   0.912   0.352   7.267 -1.1805  1.6302  1.2968
   36CHL1   H1B 2636   0.991   0.509   7.226 -1.3645 -0.0022 -0.4591
   36CHL1    C2 2637   1.036   0.345   7.089  0.2441 -0.4894  0.5375
   36CHL1   H2A 2638   0.942   0.367   7.033  0.8094  0.1174 -0.1852
   36CHL1   H2B 2639   1.049   0.234   7.090 -3.4956 -1.0128 -0.5259
   36CHL1   C20 2640   1.014   0.500   8.026  0.2605  0.0273  0.0701
   36CHL1   H20 2641   1.078   0.414   8.058  0.0790  0.2392  1.0091
   36CHL1   C21 2642   0.869   0.455   8.013  0.0193 -0.2977  0.0349
   36CHL1  H21A 2643   0.850   0.414   8.114 -0.1703 -2.7661 -0.9695
   36CHL1  H21B 2644   0.866   0.372   7.939  3.1091  0.7200 -1.2989
   36CHL1  H21C 2645   0.798   0.538   7.996 -0.2910 -0.6495 -0.4033
   36CHL1   C22 2646   1.037   0.609   8.135 -0.2880 -0.4810  0.3499
   36CHL1  H22A 2647   1.129   0.669   8.118 -1.4707  1.4295  0.6092
   36CHL1  H22B 2648   0.955   0.683   8.121 -0.5523 -1.0144 -1.0539
   36CHL1   C23 2649   1.037   0.545   8.282  0.0068  0.8680 -0.0934
   36CHL1  H23A 2650   0.930   0.521   8.302  0.0291  0.5451 -0.3540
   36CHL1  H23B 2651   1.085   0.445   8.276 -1.5596 -0.1555  2.9147
   36CHL1   C24 2652   1.100   0.632   8.393 -0.1713  0.1892 -0.3335
   36CHL1  H24A 2653   1.210   0.643   8.390 -0.1402 -0.4377 -1.8127
   36CHL1  H24B 2654   1.054   0.726   8.355  0.6470  0.3433 -0.9518
   36CHL1   C25 2655   1.046   0.604   8.532  0.5830 -0.3910  1.0024
   36CHL1   H25 2656   0.936   0.584   8.529  0.6493 -0.6677  0.3734
   36CHL1   C26 2657   1.104   0.465   8.584 -0.0142 -0.4901  0.0648
   36CHL1  H26A 2658   1.071   0.443   8.688 -0.6068  0.0597 -0.0048
   36CHL1  H26B 2659   1.069   0.379   8.524  2.5695 -1.1060 -0.6168
   36CHL1  H26C 2660   1.215   0.465   8.587  0.0260  0.5505 -0.8739
   36CHL1   C27 2661   1.069   0.716   8.629 -0.0861 -0.2811  0.4852
   36CHL1  H27A 2662   1.179   0.733   8.627 -0.0944 -0.3086 -1.0801
   36CHL1  H27B 2663   1.018   0.806   8.589  0.2893  0.6305  2.0554
   36CHL1  H27C 2664   1.033   0.689   8.731 -0.1183  0.0530  0.5629
   37CHL1    C3 2665   5.239   2.987   6.855 -0.2745 -0.3489 -0.4420
   37CHL1    H3 2666   5.342   2.994   6.897 -0.7882  0.3268  0.7546
   37CHL1    O3 2667   5.244   2.915   6.734  0.0541 -0.7070  0.0214
   37CHL1   H3' 2668   5.218   2.825   6.753  3.5738 -1.7072  0.4683
   37CHL1    C4 2669   5.139   2.921   6.946 -0.0521  0.0869 -0.2595
   37CHL1   H4A 2670   5.041   2.917   6.893  1.2255  3.2953 -3.0126
   37CHL1   H4B 2671   5.184   2.820   6.956  1.7237  0.8313 -0.6132
   37CHL1    C5 2672   5.126   2.990   7.077 -0.1048  0.4624 -0.4800
   37CHL1    C6 2673   5.150   2.928   7.190 -0.2084 -0.8398 -0.0125
   37CHL1    H6 2674   5.174   2.821   7.180  1.1548 -0.5330 -0.0943
   37CHL1    C7 2675   5.145   2.981   7.327  0.0540  0.6565 -0.5770
   37CHL1   H7A 2676   5.096   2.911   7.398  0.6055  1.2408  0.3831
   37CHL1   H7B 2677   5.242   3.000   7.378 -0.7932  0.7191  1.0498
   37CHL1    C8 2678   5.080   3.125   7.337 -0.1470  0.6709 -0.2055
   37CHL1    H8 2679   4.969   3.117   7.337 -0.2273  1.6107  0.5847
   37CHL1   C14 2680   5.103   3.198   7.471 -0.2409 -0.2147  0.2002
   37CHL1   H14 2681   5.213   3.213   7.475 -0.0126 -1.0300 -2.1493
   37CHL1   C15 2682   5.065   3.141   7.608  0.2787 -0.6226 -0.3261
   37CHL1  H15A 2683   4.959   3.113   7.593 -0.0119 -0.4084  1.2467
   37CHL1  H15B 2684   5.114   3.044   7.634 -1.7816 -1.5555  0.2218
   37CHL1   C16 2685   5.077   3.264   7.696  0.2287  0.9671  0.1000
   37CHL1  H16A 2686   4.992   3.267   7.768  0.6449  2.0534  0.5566
   37CHL1  H16B 2687   5.176   3.260   7.745 -0.1923  1.9370  1.0396
   37CHL1   C17 2688   5.075   3.388   7.600 -0.6950 -0.5801  0.3355
   37CHL1   H17 2689   5.182   3.418   7.590 -0.9558  0.7954  1.5127
   37CHL1   C13 2690   5.042   3.335   7.466 -0.3972  1.1914  0.2122
   37CHL1   C18 2691   4.886   3.330   7.450  0.1942 -0.1698  0.6306
   37CHL1  H18A 2692   4.831   3.283   7.534  0.4667 -2.0982 -0.2359
   37CHL1  H18B 2693   4.842   3.432   7.444 -0.4328 -0.4677  0.0827
   37CHL1  H18C 2694   4.844   3.281   7.360 -1.3291 -2.0815  2.3273
   37CHL1   C12 2695   5.112   3.410   7.356 -0.4402 -0.2740  0.4925
   37CHL1  H12A 2696   5.064   3.510   7.360 -1.9805 -0.7355 -3.5008
   37CHL1  H12B 2697   5.222   3.420   7.360 -0.3527 -1.0047 -0.0259
   37CHL1   C11 2698   5.076   3.354   7.222 -0.5293  0.7180 -0.3596
   37CHL1  H11A 2699   4.967   3.357   7.198 -0.5437  1.1062 -0.2460
   37CHL1  H11B 2700   5.120   3.426   7.150 -0.4698  1.7382  0.6903
   37CHL1    C9 2701   5.129   3.211   7.215 -0.7635  0.1226 -0.3441
   37CHL1    H9 2702   5.239   3.216   7.225 -0.7108  2.2000 -1.5847
   37CHL1   C10 2703   5.103   3.148   7.074 -0.3954  0.1853  0.6948
   37CHL1   C19 2704   4.953   3.166   7.031 -0.4368  0.3651  0.2919
   37CHL1  H19A 2705   4.942   3.101   6.942  4.1621 -0.4963  0.2254
   37CHL1  H19B 2706   4.892   3.129   7.117  1.3436  0.2292  1.5168
   37CHL1  H19C 2707   4.937   3.272   7.003 -1.5814 -0.3926 -2.0972
   37CHL1    C1 2708   5.203   3.213   6.966 -0.5153 -0.0976  0.3170
   37CHL1   H1A 2709   5.171   3.319   6.956 -0.1198  0.1437  1.5300
   37CHL1   H1B 2710   5.305   3.213   7.009 -0.1391  1.3601 -0.5332
   37CHL1    C2 2711   5.210   3.141   6.826  0.0896  0.3487  0.0376
   37CHL1   H2A 2712   5.280   3.193   6.757 -1.0382  1.6952 -0.1186
   37CHL1   H2B 2713   5.112   3.139   6.773  1.1676  0.4136 -2.0096
   37CHL1   C20 2714   5.008   3.502   7.671  0.1027 -0.7127  0.6619
   37CHL1   H20 2715   4.904   3.480   7.703 -0.3756 -1.0491 -1.0780
   37CHL1   C21 2716   4.993   3.626   7.585  0.1380  0.7732 -0.0571
   37CHL1  H21A 2717   4.935   3.590   7.497  1.7451 -1.3029 -0.3044
   37CHL1  H21B 2718   5.090   3.659   7.543  0.7515 -0.6014  0.2490
   37CHL1  H21C 2719   4.944   3.709   7.640 -1.3422 -1.0316  1.4444
   37CHL1   C22 2720   5.084   3.556   7.797 -0.4356  0.8320 -0.5511
   37CHL1  H22A 2721   5.083   3.469   7.866  1.0821  1.9593  0.9249
   37CHL1  H22B 2722   5.186   3.591   7.774  0.2417  0.4647  1.7070
   37CHL1   C23 2723   5.018   3.678   7.873  0.7396 -0.2598 -0.2885
   37CHL1  H23A 2724   5.048   3.776   7.829  1.2715 -0.4477 -0.3420
   37CHL1  H23B 2725   4.909   3.662   7.855  1.1119 -1.2752 -1.6696
   37CHL1   C24 2726   5.047   3.691   8.026 -0.6183  0.0695  0.1975
   37CHL1  H24A 2727   5.021   3.596   8.077 -0.2990 -1.0575 -1.6801
   37CHL1  H24B 2728   5.152   3.725   8.035 -0.8371  0.4197  1.4762
   37CHL1   C25 2729   4.965   3.804   8.101 -0.2586  0.1564 -0.2322
   37CHL1   H25 2730   4.987   3.897   8.045 -2.9600  0.5729 -0.6665
   37CHL1   C26 2731   4.813   3.771   8.103 -0.2382 -0.0546 -0.1095
   37CHL1  H26A 2732   4.757   3.777   8.007  0.5653  2.7519 -0.4589
   37CHL1  H26B 2733   4.795   3.674   8.154  0.4799 -0.2734 -0.2794
   37CHL1  H26C 2734   4.764   3.850   8.165  0.5772 -1.2013  2.0303
   37CHL1   C27 2735   5.011   3.834   8.241  0.6017 -0.7575  0.7739
   37CHL1  H27A 2736   4.982   3.935   8.278  0.2476 -0.5506 -0.0626
   37CHL1  H27B 2737   4.981   3.756   8.314  0.4563 -0.4448  1.0484
   37CHL1  H27C 2738   5.122   3.836   8.239  0.5879  1.8732  1.3585
   38CHL1    C3 2739   2.279   3.779   6.615 -0.0011  0.3881  0.2730
   38CHL1    H3 2740   2.379   3.814   6.583 -0.3339  0.4790 -0.6964
   38CHL1    O3 2741   2.198   3.751   6.502  0.0254  0.0522  0.0218
   38CHL1   H3' 2742   2.254   3.703   6.441  1.4115  0.8230  0.6571
   38CHL1    C4 2743   2.303   3.643   6.691  0.2982 -0.2582 -0.1163
   38CHL1   H4A 2744   2.205   3.591   6.705 -0.4806  0.9304 -1.0745
   38CHL1   H4B 2745   2.357   3.574   6.623 -1.5099  0.4273 -2.2880
   38CHL1    C5 2746   2.369   3.663   6.822 -0.0568 -0.3017  0.2521
   38CHL1    C6 2747   2.478   3.596   6.858 -0.8594  0.1964 -0.4007
   38CHL1    H6 2748   2.514   3.526   6.781  0.0837  0.7706 -0.4936
   38CHL1    C7 2749   2.558   3.600   6.989  0.0961 -0.1158  0.0548
   38CHL1   H7A 2750   2.583   3.495   7.015 -0.0980  0.2519  1.7301
   38CHL1   H7B 2751   2.650   3.661   6.979 -1.7750  2.5507 -1.4382
   38CHL1    C8 2752   2.465   3.660   7.100 -0.2177  0.1416  0.4000
   38CHL1    H8 2753   2.395   3.583   7.139  1.0459 -0.7543  0.9097
   38CHL1   C14 2754   2.557   3.709   7.209  0.2398  1.1986  0.3253
   38CHL1   H14 2755   2.632   3.773   7.157  0.3146 -1.5471 -3.1647
   38CHL1   C15 2756   2.644   3.610   7.280  0.0228 -0.2562  0.0388
   38CHL1  H15A 2757   2.583   3.518   7.291  0.1748 -0.4282 -0.5157
   38CHL1  H15B 2758   2.733   3.589   7.215 -0.0213  2.3238 -0.9113
   38CHL1   C16 2759   2.692   3.690   7.408 -0.1216 -0.4828 -0.2028
   38CHL1  H16A 2760   2.688   3.620   7.494  2.0801  0.3703  0.6148
   38CHL1  H16B 2761   2.797   3.719   7.387 -0.3203 -0.4493 -1.1695
   38CHL1   C17 2762   2.594   3.809   7.429 -0.1448 -0.2329  0.7929
   38CHL1   H17 2763   2.643   3.895   7.378  1.0811 -1.2128  0.2798
   38CHL1   C13 2764   2.477   3.775   7.325  0.4214  0.0728  0.8556
   38CHL1   C18 2765   2.376   3.683   7.391 -0.0620  0.8194  0.4652
   38CHL1  H18A 2766   2.434   3.604   7.443 -0.6870 -0.4060 -0.6467
   38CHL1  H18B 2767   2.320   3.745   7.464  0.5957  0.1511  1.5340
   38CHL1  H18C 2768   2.301   3.650   7.315  0.2241 -0.0182  0.5414
   38CHL1   C12 2769   2.408   3.903   7.277  0.2763 -0.2489 -0.7920
   38CHL1  H12A 2770   2.349   3.957   7.355  0.9119 -0.7106  0.0142
   38CHL1  H12B 2771   2.479   3.976   7.234  1.4780 -1.1657 -0.3969
   38CHL1   C11 2772   2.309   3.869   7.164  0.0799  1.4696  0.2498
   38CHL1  H11A 2773   2.226   3.802   7.193  0.6910  1.2815  1.5988
   38CHL1  H11B 2774   2.281   3.969   7.124  2.3166  2.3148  0.6810
   38CHL1    C9 2775   2.389   3.789   7.049 -0.6248  0.2335 -0.8247
   38CHL1    H9 2776   2.472   3.855   7.017  0.7939 -1.4838 -0.7380
   38CHL1   C10 2777   2.299   3.760   6.921 -0.0274  0.2181 -0.4572
   38CHL1   C19 2778   2.165   3.693   6.968 -0.2416  0.3958  0.2416
   38CHL1  H19A 2779   2.096   3.652   6.891 -1.0610  0.3659  0.9817
   38CHL1  H19B 2780   2.187   3.599   7.024 -0.7046 -0.5344 -1.1056
   38CHL1  H19C 2781   2.094   3.757   7.025  0.1640  2.6307 -1.6950
   38CHL1    C1 2782   2.271   3.897   6.839  0.1042  0.3114  0.1107
   38CHL1   H1A 2783   2.208   3.955   6.910 -2.5636  0.0985 -2.0149
   38CHL1   H1B 2784   2.365   3.956   6.834  0.0437  0.4953  1.1024
   38CHL1    C2 2785   2.214   3.888   6.695  0.1792  0.4503 -0.4218
   38CHL1   H2A 2786   2.228   3.987   6.646  1.8911  0.5364  0.2347
   38CHL1   H2B 2787   2.107   3.861   6.710  0.2513  0.9748  1.1901
   38CHL1   C20 2788   2.576   3.842   7.575  0.3142  0.0706 -0.2706
   38CHL1   H20 2789   2.538   3.748   7.622 -0.5605  0.3821 -0.3427
   38CHL1   C21 2790   2.479   3.958   7.592 -0.4721  0.1683 -0.6369
   38CHL1  H21A 2791   2.479   3.999   7.695 -2.0657  0.7793 -0.8580
   38CHL1  H21B 2792   2.378   3.913   7.578 -1.3084  1.8651 -0.1355
   38CHL1  H21C 2793   2.497   4.039   7.519 -0.8994 -1.2028 -2.2965
   38CHL1   C22 2794   2.712   3.886   7.637 -0.4247 -0.1466 -0.2496
   38CHL1  H22A 2795   2.780   3.801   7.612  0.9265  1.2614 -1.4590
   38CHL1  H22B 2796   2.753   3.965   7.571  0.5860 -0.5139 -0.0704
   38CHL1   C23 2797   2.730   3.917   7.783 -0.1772 -0.3385 -0.8035
   38CHL1  H23A 2798   2.639   3.879   7.834 -0.8929  1.0813 -1.0125
   38CHL1  H23B 2799   2.822   3.866   7.820 -0.0365  1.2420  1.1430
   38CHL1   C24 2800   2.736   4.072   7.800  0.4721  0.5003  0.2859
   38CHL1  H24A 2801   2.804   4.104   7.718 -0.3475  0.1157 -0.5492
   38CHL1  H24B 2802   2.632   4.110   7.789 -0.3520 -1.7919 -0.0709
   38CHL1   C25 2803   2.788   4.115   7.936  0.1271 -0.1833 -0.4407
   38CHL1   H25 2804   2.770   4.225   7.939 -0.4013 -0.2760 -0.1679
   38CHL1   C26 2805   2.709   4.052   8.046 -0.5792 -0.0562  0.5124
   38CHL1  H26A 2806   2.740   4.100   8.141  3.5476  0.3211 -0.9348
   38CHL1  H26B 2807   2.601   4.076   8.037 -1.0669 -2.4710 -0.7185
   38CHL1  H26C 2808   2.731   3.944   8.059  1.3976  0.4819  1.7723
   38CHL1   C27 2809   2.937   4.089   7.958 -0.7664 -0.3360 -0.3170
   38CHL1  H27A 2810   2.968   4.105   8.064 -0.4434 -1.0963 -0.2888
   38CHL1  H27B 2811   2.963   3.985   7.929 -1.8498 -0.3504 -1.2823
   38CHL1  H27C 2812   2.988   4.160   7.890  0.4016 -0.3337  0.5508
   39CHL1    C3 2813   1.852   2.169   6.918 -0.5265  0.7896  0.3897
   39CHL1    H3 2814   1.753   2.128   6.947 -1.1780  1.4220 -0.8947
   39CHL1    O3 2815   1.869   2.133   6.774 -0.0052 -0.2745  0.2351
   39CHL1   H3' 2816   1.938   2.191   6.741  1.3312 -2.4599 -0.8805
   39CHL1    C4 2817   1.839   2.316   6.942  0.0043  0.0088  0.1496
   39CHL1   H4A 2818   1.937   2.351   6.903 -0.5696 -0.6695 -1.9754
   39CHL1   H4B 2819   1.757   2.355   6.878 -0.3342 -1.2897 -0.2356
   39CHL1    C5 2820   1.813   2.356   7.086 -0.2649  0.2054  0.8665
   39CHL1    C6 2821   1.702   2.421   7.118 -1.0275 -0.3008  0.2016
   39CHL1    H6 2822   1.635   2.465   7.042  0.9524  2.1452 -0.2188
   39CHL1    C7 2823   1.671   2.455   7.261 -0.4379 -0.4569  0.2369
   39CHL1   H7A 2824   1.654   2.563   7.277 -0.2060 -0.5879  1.4364
   39CHL1   H7B 2825   1.582   2.399   7.297 -0.9019  0.7318  0.9587
   39CHL1    C8 2826   1.787   2.420   7.364  0.5290 -1.6994  0.1175
   39CHL1    H8 2827   1.859   2.504   7.361  1.5219 -2.5173  0.7872
   39CHL1   C14 2828   1.727   2.406   7.503  0.5852 -0.0115  0.4636
   39CHL1   H14 2829   1.668   2.312   7.502  1.4299 -0.5412 -0.0926
   39CHL1   C15 2830   1.618   2.507   7.543 -0.2017  0.2940 -0.9530
   39CHL1  H15A 2831   1.635   2.611   7.510 -2.1672  0.6549 -0.9058
   39CHL1  H15B 2832   1.515   2.474   7.519 -1.5648  2.2017  1.9388
   39CHL1   C16 2833   1.623   2.504   7.697 -0.2857 -0.3193  0.3201
   39CHL1  H16A 2834   1.664   2.602   7.730 -0.6596  0.7526 -2.2455
   39CHL1  H16B 2835   1.527   2.475   7.745 -1.1105  2.2468  0.3176
   39CHL1   C17 2836   1.725   2.389   7.739  0.5519 -0.1248 -0.5963
   39CHL1   H17 2837   1.663   2.297   7.726  0.6520 -0.4620  1.2292
   39CHL1   C13 2838   1.823   2.380   7.619 -0.0400 -0.2852  0.5122
   39CHL1   C18 2839   1.929   2.500   7.630  0.3927 -0.0582 -0.1290
   39CHL1  H18A 2840   1.983   2.527   7.537 -1.3995  1.5233 -0.7388
   39CHL1  H18B 2841   1.886   2.593   7.672  2.1727  0.8236 -0.2371
   39CHL1  H18C 2842   2.001   2.458   7.703  0.5175  0.3971  0.0090
   39CHL1   C12 2843   1.891   2.250   7.582 -0.4595 -0.7195 -0.3096
   39CHL1  H12A 2844   1.977   2.245   7.651 -0.7848  2.0865  0.3594
   39CHL1  H12B 2845   1.819   2.168   7.607  1.4972 -2.6063 -0.6772
   39CHL1   C11 2846   1.957   2.259   7.443 -0.0294  0.1609  0.0523
   39CHL1  H11A 2847   2.041   2.331   7.440  1.1689 -1.2129  0.3343
   39CHL1  H11B 2848   2.005   2.160   7.431  0.7293  0.6414 -0.8824
   39CHL1    C9 2849   1.858   2.298   7.331 -0.1533  0.5865  0.0068
   39CHL1    H9 2850   1.786   2.214   7.342 -2.1632  2.2276 -0.3777
   39CHL1   C10 2851   1.913   2.296   7.191  0.3902  0.3378  0.3248
   39CHL1   C19 2852   2.049   2.370   7.171 -0.6380 -0.1657 -0.3162
   39CHL1  H19A 2853   2.049   2.476   7.207 -1.3967 -0.2893  0.0631
   39CHL1  H19B 2854   2.123   2.307   7.226 -2.4900 -0.7708  1.5644
   39CHL1  H19C 2855   2.083   2.373   7.066 -1.3480  0.0982 -0.5436
   39CHL1    C1 2856   1.924   2.145   7.163 -0.8046  0.2132 -0.2783
   39CHL1   H1A 2857   1.991   2.081   7.224 -1.1914 -0.6160 -0.7108
   39CHL1   H1B 2858   1.820   2.109   7.177 -1.4049  2.1070  0.2849
   39CHL1    C2 2859   1.961   2.111   7.013  0.2852  0.3675 -0.2024
   39CHL1   H2A 2860   1.966   2.001   7.003  2.5342  0.1559  2.6881
   39CHL1   H2B 2861   2.058   2.160   6.993  0.5982 -1.4557 -3.5611
   39CHL1   C20 2862   1.777   2.400   7.883  0.7379  0.2351 -0.1652
   39CHL1   H20 2863   1.836   2.493   7.891 -1.2949  1.4907  0.5693
   39CHL1   C21 2864   1.870   2.284   7.904 -0.1333 -0.7377  0.8025
   39CHL1  H21A 2865   1.894   2.261   8.010 -1.0289  1.8736  1.6333
   39CHL1  H21B 2866   1.969   2.296   7.856  0.0711 -1.2005  1.1117
   39CHL1  H21C 2867   1.820   2.194   7.863  0.3726 -1.1161  1.0143
   39CHL1   C22 2868   1.662   2.413   7.992 -0.5611 -0.3337  0.0573
   39CHL1  H22A 2869   1.583   2.488   7.973 -1.4557 -1.2757  0.0538
   39CHL1  H22B 2870   1.611   2.316   8.007  0.5359 -1.2829 -2.1503
   39CHL1   C23 2871   1.720   2.462   8.125  0.3751 -0.5252 -0.0508
   39CHL1  H23A 2872   1.630   2.470   8.189 -0.0617 -1.2533 -0.5603
   39CHL1  H23B 2873   1.792   2.386   8.164  1.8028  0.9634  0.2357
   39CHL1   C24 2874   1.778   2.608   8.140 -0.1811  0.5404  0.6207
   39CHL1  H24A 2875   1.878   2.623   8.094 -0.5414 -1.0329 -0.7393
   39CHL1  H24B 2876   1.697   2.664   8.089 -2.5006 -4.6072 -1.7670
   39CHL1   C25 2877   1.790   2.668   8.284  0.3481  0.6378  0.0283
   39CHL1   H25 2878   1.686   2.668   8.323  0.2418  2.6061 -0.2164
   39CHL1   C26 2879   1.871   2.578   8.378 -0.2076 -1.0204 -0.5561
   39CHL1  H26A 2880   1.831   2.475   8.388  0.6215 -1.1810  1.3076
   39CHL1  H26B 2881   1.978   2.583   8.349  0.3268  1.8857  1.6314
   39CHL1  H26C 2882   1.864   2.619   8.481  2.7682  0.9141 -1.0684
   39CHL1   C27 2883   1.833   2.812   8.290 -0.2719 -0.4556  0.5588
   39CHL1  H27A 2884   1.939   2.835   8.263 -0.0242 -0.6377  1.3874
   39CHL1  H27B 2885   1.779   2.869   8.211 -1.1349  1.9403  2.8016
   39CHL1  H27C 2886   1.821   2.866   8.386  3.8880 -0.5297  1.2021
   40CHL1    C3 2887   4.395   1.382   6.946 -0.1222  0.4261  0.4016
   40CHL1    H3 2888   4.415   1.281   6.990  1.3493  1.0249  1.1147
   40CHL1    O3 2889   4.339   1.366   6.822  0.1813 -0.3868 -0.3058
   40CHL1   H3' 2890   4.313   1.457   6.806  0.8616 -0.1664 -0.1853
   40CHL1    C4 2891   4.292   1.451   7.037 -0.7410 -0.1711  0.3085
   40CHL1   H4A 2892   4.267   1.545   6.984 -3.2992 -0.7324  0.4254
   40CHL1   H4B 2893   4.198   1.392   7.037 -1.9059  1.6492 -0.0248
   40CHL1    C5 2894   4.346   1.482   7.171  0.5725 -0.2666 -0.4640
   40CHL1    C6 2895   4.284   1.433   7.279 -0.3665 -0.4461  1.2884
   40CHL1    H6 2896   4.187   1.383   7.264 -0.4229  0.2672 -0.9216
   40CHL1    C7 2897   4.328   1.469   7.415  0.1787  0.4399  0.1762
   40CHL1   H7A 2898   4.235   1.502   7.466  0.8213  3.5998 -0.5430
   40CHL1   H7B 2899   4.374   1.381   7.466  1.6333  0.6400 -0.7456
   40CHL1    C8 2900   4.443   1.571   7.417  0.0516 -0.0693 -0.4407
   40CHL1    H8 2901   4.392   1.667   7.393 -2.4159 -1.0128  0.9040
   40CHL1   C14 2902   4.502   1.585   7.558  0.3527 -0.3787 -0.0664
   40CHL1   H14 2903   4.556   1.490   7.580  0.6851 -0.7668 -2.3443
   40CHL1   C15 2904   4.406   1.609   7.669  0.5782 -0.2928 -0.3241
   40CHL1  H15A 2905   4.330   1.683   7.637  0.9947  1.1917  1.9845
   40CHL1  H15B 2906   4.355   1.513   7.693 -2.1929  0.2892 -3.5682
   40CHL1   C16 2907   4.489   1.663   7.786 -0.8048  0.4467  0.0487
   40CHL1  H16A 2908   4.449   1.758   7.827 -2.3834  0.2191 -0.9572
   40CHL1  H16B 2909   4.499   1.593   7.872  1.0968  1.4002  0.6566
   40CHL1   C17 2910   4.631   1.684   7.726 -0.1090  0.8334 -0.3183
   40CHL1   H17 2911   4.676   1.584   7.741 -1.5120  0.0157 -1.5516
   40CHL1   C13 2912   4.612   1.689   7.571 -0.0359 -0.1852 -0.2656
   40CHL1   C18 2913   4.567   1.832   7.538 -0.1131  0.5438  0.1090
   40CHL1  H18A 2914   4.654   1.893   7.507  0.9402 -0.5616  0.8077
   40CHL1  H18B 2915   4.489   1.824   7.459  1.2925 -0.8775 -1.1747
   40CHL1  H18C 2916   4.515   1.874   7.626  2.0391 -0.2449  1.7912
   40CHL1   C12 2917   4.723   1.645   7.476  0.0668  0.3038  0.5841
   40CHL1  H12A 2918   4.805   1.719   7.486  0.9327 -0.8933  2.5624
   40CHL1  H12B 2919   4.772   1.549   7.504  3.8592  2.1036  0.4061
   40CHL1   C11 2920   4.676   1.648   7.328  0.7262 -0.1186  0.1553
   40CHL1  H11A 2921   4.653   1.751   7.294 -1.0333  0.2830  2.4387
   40CHL1  H11B 2922   4.758   1.599   7.272 -2.2912 -2.2433 -2.6329
   40CHL1    C9 2923   4.548   1.553   7.310  0.3811 -0.3266 -0.0046
   40CHL1    H9 2924   4.587   1.450   7.327 -0.2467 -0.6856 -0.6727
   40CHL1   C10 2925   4.478   1.559   7.172 -0.1182 -0.3290  0.0726
   40CHL1   C19 2926   4.465   1.708   7.128  0.2443 -0.3470 -0.0652
   40CHL1  H19A 2927   4.560   1.765   7.128  0.1328 -0.1147  1.5515
   40CHL1  H19B 2928   4.435   1.714   7.022 -3.2261 -0.2064  0.8518
   40CHL1  H19C 2929   4.388   1.762   7.187  0.3853  0.3014 -0.4696
   40CHL1    C1 2930   4.583   1.483   7.078  0.5218 -0.3770 -0.8205
   40CHL1   H1A 2931   4.670   1.551   7.068  0.0479  0.2102 -1.0124
   40CHL1   H1B 2932   4.603   1.384   7.124 -2.6974 -0.3474  0.8193
   40CHL1    C2 2933   4.522   1.472   6.934 -0.4115  0.2235  0.0743
   40CHL1   H2A 2934   4.596   1.406   6.883 -0.7242 -1.5069  1.8208
   40CHL1   H2B 2935   4.507   1.572   6.888 -3.7541 -0.3549 -0.2511
   40CHL1   C20 2936   4.720   1.785   7.796 -0.4002  0.3480  0.3487
   40CHL1   H20 2937   4.702   1.882   7.744  1.8755 -0.2601 -1.6683
   40CHL1   C21 2938   4.865   1.742   7.772  0.6781  0.3175  0.6606
   40CHL1  H21A 2939   4.877   1.648   7.829 -2.3286  0.8605  2.2659
   40CHL1  H21B 2940   4.932   1.826   7.804  2.5616 -0.2951 -1.5041
   40CHL1  H21C 2941   4.889   1.723   7.665 -3.6556 -2.1143  0.0469
   40CHL1   C22 2942   4.683   1.796   7.951 -0.5420  0.7434 -0.4006
   40CHL1  H22A 2943   4.586   1.844   7.973 -1.6556 -2.4629  2.0346
   40CHL1  H22B 2944   4.680   1.693   7.992  1.8950  0.7047 -0.2050
   40CHL1   C23 2945   4.795   1.878   8.031 -0.1335  0.7320 -0.1795
   40CHL1  H23A 2946   4.885   1.813   8.032 -0.1303  0.7354  0.7587
   40CHL1  H23B 2947   4.814   1.965   7.966 -3.8003 -0.0392 -2.4542
   40CHL1   C24 2948   4.734   1.905   8.168  0.6786 -0.4353  0.3797
   40CHL1  H24A 2949   4.647   1.968   8.142  0.2358 -1.2375 -0.1179
   40CHL1  H24B 2950   4.694   1.813   8.216 -1.6888 -0.1013 -0.8817
   40CHL1   C25 2951   4.823   1.982   8.262 -0.1500  0.2621 -0.1765
   40CHL1   H25 2952   4.769   1.984   8.359 -1.5645  0.8763 -0.9677
   40CHL1   C26 2953   4.960   1.911   8.278 -0.2843 -0.4582 -0.2517
   40CHL1  H26A 2954   5.014   1.935   8.184  1.1292  0.3277  0.7509
   40CHL1  H26B 2955   5.019   1.952   8.362 -1.4716  0.0909  0.3331
   40CHL1  H26C 2956   4.952   1.802   8.294  1.3013 -0.6977 -1.0388
   40CHL1   C27 2957   4.837   2.126   8.211 -0.3135  0.7530  0.4611
   40CHL1  H27A 2958   4.882   2.190   8.290 -0.2263 -0.4993  1.4438
   40CHL1  H27B 2959   4.914   2.124   8.131 -0.0458 -1.7142  0.7285
   40CHL1  H27C 2960   4.742   2.172   8.177 -0.6341  0.4727  0.9787
   41CHL1    C3 2961   4.992   1.414   6.968  0.2712  0.3086 -0.5255
   41CHL1    H3 2962   4.907   1.483   6.950 -0.4503 -0.4348  0.0320
   41CHL1    O3 2963   5.006   1.361   6.838 -0.0732  0.0389  0.2387
   41CHL1   H3' 2964   5.090   1.314   6.836 -1.1375 -1.9340  1.1947
   41CHL1    C4 2965   5.118   1.484   7.007 -0.1290 -0.1459 -0.3634
   41CHL1   H4A 2966   5.202   1.417   6.979 -0.2366 -0.7211  0.6438
   41CHL1   H4B 2967   5.128   1.577   6.947 -0.7815  0.6007  0.6525
   41CHL1    C5 2968   5.134   1.511   7.160 -1.5355  0.0391  0.3576
   41CHL1    C6 2969   5.167   1.637   7.197 -0.9390  0.3647 -0.2870
   41CHL1    H6 2970   5.185   1.711   7.118  1.5293  0.2667  0.1543
   41CHL1    C7 2971   5.183   1.685   7.340 -0.2212 -0.4950 -0.0987
   41CHL1   H7A 2972   5.266   1.757   7.353 -0.3834 -0.3096 -0.0883
   41CHL1   H7B 2973   5.098   1.750   7.368  2.1658  2.0712  1.3980
   41CHL1    C8 2974   5.191   1.557   7.433  0.8003 -0.8888  0.0942
   41CHL1    H8 2975   5.291   1.513   7.415  1.4129  0.2225  0.7563
   41CHL1   C14 2976   5.181   1.601   7.584 -0.6556  0.1074  0.0448
   41CHL1   H14 2977   5.078   1.642   7.589 -0.3085  1.0048 -0.0118
   41CHL1   C15 2978   5.268   1.715   7.627 -0.8039  0.0128 -0.0306
   41CHL1  H15A 2979   5.371   1.699   7.589 -0.8155  0.6862 -0.3488
   41CHL1  H15B 2980   5.233   1.812   7.586  0.0206  1.4491  2.5062
   41CHL1   C16 2981   5.254   1.702   7.776  0.3376 -0.0511  0.0939
   41CHL1  H16A 2982   5.351   1.694   7.831  0.4890  1.3298  0.0273
   41CHL1  H16B 2983   5.197   1.790   7.811  0.8567  0.9537 -1.5025
   41CHL1   C17 2984   5.185   1.571   7.813 -0.8819 -0.5287  0.1236
   41CHL1   H17 2985   5.081   1.607   7.824 -0.7599  0.3156 -1.3271
   41CHL1   C13 2986   5.191   1.483   7.682  0.2607 -0.9318  0.0226
   41CHL1   C18 2987   5.327   1.410   7.674  0.2466 -0.0025  0.1432
   41CHL1  H18A 2988   5.344   1.340   7.590 -2.6085 -2.1192  1.2450
   41CHL1  H18B 2989   5.404   1.488   7.693 -0.2147  0.2435  1.0045
   41CHL1  H18C 2990   5.337   1.337   7.757  0.3175 -0.2381 -0.0723
   41CHL1   C12 2991   5.072   1.385   7.652  0.1635 -0.0970 -0.1512
   41CHL1  H12A 2992   5.092   1.294   7.713 -0.5860  0.1227  0.4341
   41CHL1  H12B 2993   4.976   1.437   7.671 -0.5990 -1.6175  0.2857
   41CHL1   C11 2994   5.068   1.346   7.507  0.3253 -0.7534 -0.1841
   41CHL1  H11A 2995   5.161   1.286   7.498  1.8890  1.5115  0.1901
   41CHL1  H11B 2996   4.978   1.288   7.479 -1.1213  0.7755  1.1633
   41CHL1    C9 2997   5.086   1.454   7.398  0.4850 -0.1095 -0.1437
   41CHL1    H9 2998   4.990   1.509   7.399  0.7827  0.5575 -2.6606
   41CHL1   C10 2999   5.094   1.397   7.248  0.7348  0.4046  0.1834
   41CHL1   C19 3000   5.201   1.295   7.233 -0.0407 -0.1104 -0.5789
   41CHL1  H19A 3001   5.213   1.255   7.130  0.2200  1.2988 -1.1118
   41CHL1  H19B 3002   5.298   1.334   7.271 -1.8921  0.1794  4.1762
   41CHL1  H19C 3003   5.180   1.202   7.290 -0.9332 -1.1269 -2.5329
   41CHL1    C1 3004   4.958   1.335   7.204 -0.0687 -0.3400 -0.4883
   41CHL1   H1A 3005   4.956   1.244   7.268 -1.4224 -1.8607 -2.5870
   41CHL1   H1B 3006   4.866   1.392   7.231 -1.0107 -1.3913 -1.4093
   41CHL1    C2 3007   4.952   1.298   7.058 -0.4623  0.0122  0.0693
   41CHL1   H2A 3008   4.850   1.260   7.033  0.3677 -1.6749 -0.8456
   41CHL1   H2B 3009   5.016   1.211   7.032 -0.9362 -1.3703  3.3378
   41CHL1   C20 3010   5.226   1.509   7.949 -0.9078 -0.2037  0.1749
   41CHL1   H20 3011   5.335   1.487   7.950 -1.1056 -1.1819  0.1142
   41CHL1   C21 3012   5.153   1.379   7.983 -0.6453  0.0846  0.5344
   41CHL1  H21A 3013   5.045   1.406   7.982 -0.6092  0.2235 -0.7871
   41CHL1  H21B 3014   5.189   1.347   8.083  0.2590  0.2246  0.2636
   41CHL1  H21C 3015   5.180   1.294   7.917 -1.4850 -1.6757  2.4220
   41CHL1   C22 3016   5.201   1.614   8.066 -0.0071  0.6035 -0.2129
   41CHL1  H22A 3017   5.256   1.709   8.049  0.5060  0.3030 -0.2416
   41CHL1  H22B 3018   5.091   1.626   8.072 -0.0211  0.8237 -0.9154
   41CHL1   C23 3019   5.242   1.553   8.202  0.1736 -0.5129 -0.0437
   41CHL1  H23A 3020   5.154   1.491   8.228 -0.0935 -0.2963 -0.4410
   41CHL1  H23B 3021   5.328   1.488   8.177 -0.1689 -0.9598 -0.0636
   41CHL1   C24 3022   5.270   1.658   8.313 -0.1799  0.3223  0.3496
   41CHL1  H24A 3023   5.348   1.721   8.265 -1.2430 -0.7907 -2.9675
   41CHL1  H24B 3024   5.177   1.719   8.310  0.5504  1.5381  1.5583
   41CHL1   C25 3025   5.305   1.609   8.454  0.6689  0.2924  0.5433
   41CHL1   H25 3026   5.326   1.700   8.513  3.7496 -0.5009  0.7533
   41CHL1   C26 3027   5.178   1.542   8.510  0.4566  0.3740  0.3579
   41CHL1  H26A 3028   5.087   1.605   8.506  0.5147  0.5022  0.9434
   41CHL1  H26B 3029   5.137   1.460   8.447  1.5609  3.0101 -4.0498
   41CHL1  H26C 3030   5.197   1.516   8.616  1.0221  2.2397  0.7233
   41CHL1   C27 3031   5.424   1.512   8.459  0.3539  0.4924 -0.1327
   41CHL1  H27A 3032   5.403   1.420   8.400  0.4711  0.4527 -0.1139
   41CHL1  H27B 3033   5.514   1.566   8.422  1.0031 -0.4320  0.0583
   41CHL1  H27C 3034   5.442   1.473   8.562  0.1035 -0.1083 -0.3101
   42CHL1    C3 3035   6.069   5.695   6.895 -0.4890  0.2457 -0.3178
   42CHL1    H3 3036   6.162   5.756   6.897 -0.7000  0.5459  0.3281
   42CHL1    O3 3037   6.046   5.658   6.762  0.1275 -0.0227  0.3535
   42CHL1   H3' 3038   6.053   5.740   6.713  0.2106 -0.5131 -0.4591
   42CHL1    C4 3039   6.049   5.576   6.987  0.2435 -0.2777 -0.6623
   42CHL1   H4A 3040   5.960   5.523   6.948  0.7625 -2.1041  0.5646
   42CHL1   H4B 3041   6.128   5.498   6.975 -0.7664 -1.3584 -0.3826
   42CHL1    C5 3042   6.037   5.628   7.127  0.3928 -0.4189  0.1586
   42CHL1    C6 3043   6.106   5.572   7.227 -0.2960 -0.3917 -0.0813
   42CHL1    H6 3044   6.174   5.486   7.218  0.6934  0.2389  1.1339
   42CHL1    C7 3045   6.094   5.611   7.373 -0.2113  0.1025  0.6272
   42CHL1   H7A 3046   6.112   5.525   7.441 -1.1372 -1.7660 -1.4441
   42CHL1   H7B 3047   6.172   5.684   7.403  1.1252 -0.5949 -1.1237
   42CHL1    C8 3048   5.953   5.683   7.409  0.2521  0.3847  0.5458
   42CHL1    H8 3049   5.866   5.617   7.393  0.5794 -0.0215  0.4409
   42CHL1   C14 3050   5.956   5.751   7.543 -0.6191 -0.2910  0.1454
   42CHL1   H14 3051   6.044   5.820   7.540  0.7724 -2.0588 -2.8403
   42CHL1   C15 3052   5.980   5.659   7.664 -0.5322 -0.2141 -0.1271
   42CHL1  H15A 3053   5.909   5.574   7.657 -1.1777  0.3781 -0.9534
   42CHL1  H15B 3054   6.083   5.617   7.670 -0.1111  0.7756 -0.4165
   42CHL1   C16 3055   5.953   5.753   7.781  0.3313 -0.7857 -0.5053
   42CHL1  H16A 3056   5.895   5.701   7.860 -0.2635 -2.4057 -1.9915
   42CHL1  H16B 3057   6.049   5.787   7.826 -1.4231  2.1173  1.2073
   42CHL1   C17 3058   5.870   5.876   7.719  0.2797  0.4138  0.5202
   42CHL1   H17 3059   5.941   5.961   7.707  1.4592 -0.3607  1.7425
   42CHL1   C13 3060   5.833   5.834   7.577  0.1171 -0.1158  0.2834
   42CHL1   C18 3061   5.700   5.748   7.585  0.0338 -0.6525  0.5149
   42CHL1  H18A 3062   5.686   5.703   7.484  0.7116 -0.7392  0.4582
   42CHL1  H18B 3063   5.693   5.673   7.667 -0.3779 -0.1868  0.9090
   42CHL1  H18C 3064   5.610   5.812   7.599  0.8574  0.2343  1.8295
   42CHL1   C12 3065   5.815   5.947   7.476  0.2024 -0.0224 -0.2895
   42CHL1  H12A 3066   5.719   6.002   7.487  0.5494  0.4071  0.6032
   42CHL1  H12B 3067   5.900   6.016   7.494  2.0362 -1.8995 -1.4744
   42CHL1   C11 3068   5.818   5.893   7.334 -0.0307 -0.1626  0.3813
   42CHL1  H11A 3069   5.722   5.836   7.329 -0.0167 -0.3029  1.6007
   42CHL1  H11B 3070   5.821   5.976   7.260 -1.4386  0.6024  1.1688
   42CHL1    C9 3071   5.934   5.795   7.301  0.6394 -0.1523  0.1996
   42CHL1    H9 3072   6.027   5.856   7.300  0.1682  0.5760  0.0224
   42CHL1   C10 3073   5.926   5.742   7.163  0.8622 -0.2660 -1.0334
   42CHL1   C19 3074   5.776   5.685   7.142 -0.0372  0.1673 -0.3868
   42CHL1  H19A 3075   5.749   5.621   7.229  1.0002  0.8193  0.4442
   42CHL1  H19B 3076   5.705   5.771   7.134 -0.6703 -0.2000  1.0163
   42CHL1  H19C 3077   5.768   5.623   7.051  1.8331 -1.7678  0.7303
   42CHL1    C1 3078   5.959   5.859   7.066  0.4283 -0.7234 -0.2623
   42CHL1   H1A 3079   5.881   5.937   7.075  0.9805 -0.2888  0.9885
   42CHL1   H1B 3080   6.057   5.903   7.095  1.0108 -1.5239 -0.9942
   42CHL1    C2 3081   5.967   5.815   6.920 -0.1559  0.3249 -0.3063
   42CHL1   H2A 3082   5.993   5.894   6.846  0.6434  1.1709  0.8639
   42CHL1   H2B 3083   5.868   5.777   6.886 -0.9089 -0.2722  2.4158
   42CHL1   C20 3084   5.764   5.918   7.817 -0.0997 -0.4233 -0.4057
   42CHL1   H20 3085   5.696   5.832   7.836 -0.0537 -1.0326 -2.7946
   42CHL1   C21 3086   5.680   6.038   7.756  0.5706 -0.0179  0.0903
   42CHL1  H21A 3087   5.626   5.994   7.670  2.6935 -0.4561 -1.0725
   42CHL1  H21B 3088   5.731   6.128   7.713 -1.1903  0.5726 -0.8100
   42CHL1  H21C 3089   5.612   6.064   7.839  2.6893 -0.5649  2.0495
   42CHL1   C22 3090   5.827   5.967   7.953  0.3145  0.5130  0.0184
   42CHL1  H22A 3091   5.918   5.910   7.981  1.0246  0.7219 -1.8233
   42CHL1  H22B 3092   5.853   6.074   7.940  0.0033  0.4878 -0.8136
   42CHL1   C23 3093   5.721   5.948   8.069 -0.2288 -0.0862 -0.3207
   42CHL1  H23A 3094   5.627   6.004   8.050 -0.2558 -0.0262 -0.0156
   42CHL1  H23B 3095   5.694   5.841   8.067  0.6030 -0.2868 -1.4354
   42CHL1   C24 3096   5.781   5.992   8.208  0.3783 -0.3782  0.4199
   42CHL1  H24A 3097   5.708   5.999   8.291  0.1833 -3.3918  0.5854
   42CHL1  H24B 3098   5.853   5.915   8.244 -0.3125 -0.2799  2.0071
   42CHL1   C25 3099   5.847   6.135   8.210 -0.6623 -0.1130  0.1096
   42CHL1   H25 3100   5.931   6.133   8.138  2.0355 -1.7659  3.2053
   42CHL1   C26 3101   5.752   6.248   8.166  0.3886 -0.2407 -0.3901
   42CHL1  H26A 3102   5.708   6.245   8.064  1.8507  2.3936 -1.1480
   42CHL1  H26B 3103   5.662   6.230   8.229 -0.7918  1.2701 -1.6331
   42CHL1  H26C 3104   5.792   6.347   8.196 -0.3913 -0.0899  0.1638
   42CHL1   C27 3105   5.905   6.157   8.352 -0.2055 -0.2143 -0.4935
   42CHL1  H27A 3106   5.814   6.153   8.416 -0.2776  0.4917 -0.5550
   42CHL1  H27B 3107   5.965   6.250   8.362 -0.5193  0.0410 -1.0148
   42CHL1  H27C 3108   5.970   6.070   8.379  1.8517  1.5839  0.5169
   43CHL1    C3 3109   6.593   3.087   7.040  0.0083 -0.4592 -0.0336
   43CHL1    H3 3110   6.595   3.193   7.073  0.5437  0.0207 -1.5614
   43CHL1    O3 3111   6.611   3.077   6.899  0.1679  0.2884 -0.5755
   43CHL1   H3' 3112   6.622   2.985   6.876 -1.6482 -0.1102  0.0660
   43CHL1    C4 3113   6.703   3.020   7.117 -0.3116  0.0566  0.5616
   43CHL1   H4A 3114   6.729   2.919   7.080  0.4632  0.3252  0.3617
   43CHL1   H4B 3115   6.790   3.087   7.097 -1.2850  0.9263 -0.8148
   43CHL1    C5 3116   6.670   3.033   7.264 -0.3508  0.2963 -0.3642
   43CHL1    C6 3117   6.752   3.107   7.346 -0.1405  1.0260 -0.1016
   43CHL1    H6 3118   6.838   3.155   7.296  1.8996  1.2746  3.4745
   43CHL1    C7 3119   6.720   3.127   7.489 -0.0448  0.6461  0.9837
   43CHL1   H7A 3120   6.810   3.132   7.554 -0.6835 -0.8233  2.0264
   43CHL1   H7B 3121   6.688   3.232   7.503 -0.0044  0.8834 -0.5827
   43CHL1    C8 3122   6.614   3.025   7.542  0.6472 -0.1188 -0.0671
   43CHL1    H8 3123   6.663   2.928   7.562 -2.0967 -0.8825  3.4242
   43CHL1   C14 3124   6.567   3.082   7.675  0.0417  0.2265  0.2761
   43CHL1   H14 3125   6.515   3.178   7.652 -0.0399 -0.0301 -0.6393
   43CHL1   C15 3126   6.677   3.108   7.783  0.2964  0.4523  0.6466
   43CHL1  H15A 3127   6.754   3.029   7.778 -1.3436 -1.1048 -0.5826
   43CHL1  H15B 3128   6.710   3.214   7.772 -0.2988  0.6385  0.6106
   43CHL1   C16 3129   6.602   3.093   7.918 -0.2431  0.0468  0.1469
   43CHL1  H16A 3130   6.656   3.016   7.977 -0.3609 -0.0724  0.0991
   43CHL1  H16B 3131   6.612   3.183   7.982 -1.3328 -0.0683  0.4739
   43CHL1   C17 3132   6.459   3.052   7.885 -0.2126  0.5998 -0.2749
   43CHL1   H17 3133   6.406   3.148   7.865 -0.2807  0.1931 -2.1509
   43CHL1   C13 3134   6.460   2.986   7.747 -0.1699  0.1231 -0.3111
   43CHL1   C18 3135   6.511   2.836   7.764 -0.3496 -0.3013  0.1118
   43CHL1  H18A 3136   6.433   2.776   7.815  0.4059  0.3226  2.0477
   43CHL1  H18B 3137   6.518   2.791   7.662  0.9496 -0.3128  0.1957
   43CHL1  H18C 3138   6.603   2.822   7.825 -0.3607  0.6851  0.3551
   43CHL1   C12 3139   6.333   2.991   7.650 -0.0453  0.0842 -0.0528
   43CHL1  H12A 3140   6.237   2.946   7.684 -1.4716  2.5949 -0.5793
   43CHL1  H12B 3141   6.305   3.099   7.651  0.7419  0.2878  0.4860
   43CHL1   C11 3142   6.365   2.943   7.512  0.6394 -0.6594 -0.2036
   43CHL1  H11A 3143   6.379   2.833   7.514  2.5687 -0.4430 -0.9111
   43CHL1  H11B 3144   6.274   2.956   7.449  0.8253 -0.3403 -0.4116
   43CHL1    C9 3145   6.490   3.016   7.454  0.0649  0.1149 -0.2701
   43CHL1    H9 3146   6.463   3.124   7.443  1.7922  0.7528  1.6040
   43CHL1   C10 3147   6.536   2.974   7.315  0.2502  0.5623 -0.0843
   43CHL1   C19 3148   6.532   2.822   7.296  0.1185 -0.3557 -0.5364
   43CHL1  H19A 3149   6.612   2.772   7.355  0.1757  0.8419  0.4042
   43CHL1  H19B 3150   6.436   2.775   7.324  0.8687 -1.4849  0.1770
   43CHL1  H19C 3151   6.561   2.789   7.194 -0.6429  1.1245 -1.2561
   43CHL1    C1 3152   6.419   3.028   7.222  0.3411 -0.4791  0.0669
   43CHL1   H1A 3153   6.326   2.969   7.234  0.2889 -0.7472 -1.6224
   43CHL1   H1B 3154   6.395   3.135   7.240 -0.5967 -0.8580  1.1669
   43CHL1    C2 3155   6.455   3.018   7.071  0.0276 -0.3238 -0.2268
   43CHL1   H2A 3156   6.374   3.049   7.002  3.3573 -1.0253 -4.7276
   43CHL1   H2B 3157   6.468   2.910   7.047  0.6825 -0.8878  2.4261
   43CHL1   C20 3158   6.379   2.993   8.006 -0.6088  0.0756 -0.0382
   43CHL1   H20 3159   6.417   2.890   8.022 -0.1158 -0.0235 -1.6755
   43CHL1   C21 3160   6.225   3.004   7.965 -0.5285  0.1988 -0.2519
   43CHL1  H21A 3161   6.216   2.944   7.872  0.1922  0.8949 -0.7831
   43CHL1  H21B 3162   6.205   3.111   7.941 -1.4608  0.9812  3.6741
   43CHL1  H21C 3163   6.159   2.971   8.047  0.1297  1.3403  0.7527
   43CHL1   C22 3164   6.404   3.074   8.132  0.2839 -0.4118  0.6520
   43CHL1  H22A 3165   6.343   3.035   8.215 -1.0051 -0.5616 -0.3527
   43CHL1  H22B 3166   6.510   3.061   8.163 -0.0777  2.1483  3.2185
   43CHL1   C23 3167   6.362   3.223   8.128  0.4601 -0.2016  0.9224
   43CHL1  H23A 3168   6.413   3.277   8.045 -3.1161  1.9084 -0.0576
   43CHL1  H23B 3169   6.252   3.216   8.109  0.3822 -0.0244  1.3119
   43CHL1   C24 3170   6.397   3.285   8.261 -0.1409  0.0924  0.5019
   43CHL1  H24A 3171   6.367   3.222   8.348  1.2042  0.7497  1.4526
   43CHL1  H24B 3172   6.508   3.278   8.252 -0.4861 -0.8530 -4.1236
   43CHL1   C25 3173   6.360   3.432   8.273  0.0113 -0.4683  0.6057
   43CHL1   H25 3174   6.398   3.480   8.180  0.2497 -1.8367 -0.0115
   43CHL1   C26 3175   6.209   3.454   8.272 -0.0916 -0.7550  0.0665
   43CHL1  H26A 3176   6.171   3.480   8.171  0.4573 -0.5412 -0.0890
   43CHL1  H26B 3177   6.155   3.361   8.302  1.6631 -1.6635  0.5181
   43CHL1  H26C 3178   6.173   3.538   8.334  0.4792 -1.6191  1.5957
   43CHL1   C27 3179   6.419   3.488   8.404  0.1999 -0.9125 -0.1874
   43CHL1  H27A 3180   6.385   3.592   8.424 -0.4158 -1.3409  0.9892
   43CHL1  H27B 3181   6.389   3.433   8.495 -0.8051  1.3855  0.8936
   43CHL1  H27C 3182   6.530   3.484   8.407  0.2804  1.6085  1.2614
   44CHL1    C3 3183   6.014   1.222   6.657  0.1708 -0.2321 -0.4333
   44CHL1    H3 3184   5.922   1.231   6.718  0.8270  1.0969  0.3967
   44CHL1    O3 3185   5.993   1.179   6.526  0.1628 -0.3799  0.8055
   44CHL1   H3' 3186   6.075   1.140   6.495 -0.0035  0.3599 -0.6180
   44CHL1    C4 3187   6.094   1.354   6.660 -0.5601  0.0069 -0.0596
   44CHL1   H4A 3188   6.191   1.334   6.610 -0.6509  1.8731 -1.0450
   44CHL1   H4B 3189   6.033   1.431   6.608 -0.9260  0.9739  1.7730
   44CHL1    C5 3190   6.107   1.396   6.809  0.5886  0.4230  0.8489
   44CHL1    C6 3191   6.051   1.510   6.855  0.5445  0.1901  0.0703
   44CHL1    H6 3192   5.996   1.580   6.791 -1.2539 -0.4433  0.8765
   44CHL1    C7 3193   6.052   1.549   6.999 -0.7782  0.0574  0.1825
   44CHL1   H7A 3194   6.072   1.658   7.013 -0.9026 -0.0794  1.4856
   44CHL1   H7B 3195   5.957   1.511   7.042 -1.2698 -0.3140 -1.2083
   44CHL1    C8 3196   6.154   1.463   7.085  0.3263  0.4072  0.6027
   44CHL1    H8 3197   6.256   1.504   7.072  0.3529 -0.5555 -2.4036
   44CHL1   C14 3198   6.115   1.466   7.234 -0.2331  0.1064 -0.1468
   44CHL1   H14 3199   6.006   1.448   7.235 -0.1267 -0.9834 -3.3564
   44CHL1   C15 3200   6.108   1.604   7.299 -0.5590 -0.2118 -0.3673
   44CHL1  H15A 3201   6.206   1.646   7.269 -0.0610 -1.3485 -0.3855
   44CHL1  H15B 3202   6.029   1.674   7.266 -0.1074  0.8480  0.8074
   44CHL1   C16 3203   6.098   1.579   7.447  0.2522 -0.8936 -0.0838
   44CHL1  H16A 3204   6.179   1.639   7.494 -1.1575 -0.5595  1.9802
   44CHL1  H16B 3205   5.999   1.610   7.487  0.1237 -0.7681 -0.5014
   44CHL1   C17 3206   6.113   1.423   7.471  0.3343  0.5962  0.0186
   44CHL1   H17 3207   6.012   1.376   7.472  1.1986 -1.4434 -2.4739
   44CHL1   C13 3208   6.191   1.381   7.336 -0.7664  0.5385 -0.3259
   44CHL1   C18 3209   6.339   1.425   7.348  0.1675  0.5391 -0.2288
   44CHL1  H18A 3210   6.367   1.432   7.241 -3.0826 -1.1620 -1.2823
   44CHL1  H18B 3211   6.359   1.519   7.403 -0.3611  0.4855  0.0656
   44CHL1  H18C 3212   6.397   1.349   7.404  1.3750  1.1089 -0.6850
   44CHL1   C12 3213   6.191   1.236   7.290 -0.1747 -0.5294  0.0278
   44CHL1  H12A 3214   6.262   1.174   7.349 -0.1520 -0.7573 -0.2415
   44CHL1  H12B 3215   6.085   1.203   7.299 -0.3074  0.1314  1.0028
   44CHL1   C11 3216   6.233   1.226   7.152 -0.0478 -0.0456 -0.5870
   44CHL1  H11A 3217   6.342   1.243   7.138  0.0006  0.0618 -0.1032
   44CHL1  H11B 3218   6.215   1.123   7.116 -0.6714 -0.4359  0.7951
   44CHL1    C9 3219   6.149   1.316   7.054  0.3242 -0.1977 -0.2406
   44CHL1    H9 3220   6.043   1.285   7.067  1.0666 -2.2145  1.3110
   44CHL1   C10 3221   6.173   1.280   6.901  0.8181 -0.0386 -0.0300
   44CHL1   C19 3222   6.327   1.286   6.862  0.2235  0.1123  0.2339
   44CHL1  H19A 3223   6.367   1.384   6.898 -1.5124  0.4224  1.4218
   44CHL1  H19B 3224   6.386   1.205   6.909 -1.9783 -0.2386  2.5556
   44CHL1  H19C 3225   6.340   1.272   6.753  2.5868  0.3437  0.4498
   44CHL1    C1 3226   6.108   1.141   6.877  0.7949 -0.2233 -0.0528
   44CHL1   H1A 3227   6.179   1.068   6.921 -1.3107 -0.4924  3.0564
   44CHL1   H1B 3228   6.009   1.120   6.923  0.4253 -2.0311 -1.6287
   44CHL1    C2 3229   6.087   1.104   6.726  0.2834 -0.3539 -0.2355
   44CHL1   H2A 3230   6.020   1.016   6.725 -1.4308  0.9378 -0.4995
   44CHL1   H2B 3231   6.186   1.087   6.679  1.1355 -0.3172  1.5114
   44CHL1   C20 3232   6.179   1.397   7.610 -0.3390 -0.0642  0.2821
   44CHL1   H20 3233   6.286   1.428   7.608 -0.5043  0.4706 -0.6935
   44CHL1   C21 3234   6.165   1.246   7.642  0.6676 -0.3041  0.2665
   44CHL1  H21A 3235   6.060   1.214   7.624  0.9112 -0.6972 -0.4161
   44CHL1  H21B 3236   6.203   1.213   7.741 -1.4675  0.2145  1.3104
   44CHL1  H21C 3237   6.222   1.188   7.568  0.5562  0.1770 -0.2003
   44CHL1   C22 3238   6.102   1.469   7.729  0.4168 -0.3118  0.2419
   44CHL1  H22A 3239   6.090   1.578   7.710  1.9344 -0.1407  0.1621
   44CHL1  H22B 3240   6.001   1.424   7.724 -1.2114  2.9454  2.0128
   44CHL1   C23 3241   6.188   1.454   7.857  0.2747 -0.5101 -0.1578
   44CHL1  H23A 3242   6.204   1.350   7.895 -1.5071  0.2343  2.8313
   44CHL1  H23B 3243   6.284   1.500   7.829  0.0721 -0.7973 -1.3435
   44CHL1   C24 3244   6.121   1.527   7.968 -0.0326  0.3879  0.3223
   44CHL1  H24A 3245   6.110   1.633   7.935  0.5347  1.0985  2.3616
   44CHL1  H24B 3246   6.015   1.500   7.990  0.5827 -2.1387  0.3224
   44CHL1   C25 3247   6.189   1.502   8.100 -0.1691  0.0341 -0.4210
   44CHL1   H25 3248   6.174   1.394   8.123  3.6400 -0.9998 -2.3830
   44CHL1   C26 3249   6.335   1.527   8.099  0.1564 -0.4997 -0.7889
   44CHL1  H26A 3250   6.383   1.505   8.196 -1.6399  1.7558  0.6667
   44CHL1  H26B 3251   6.387   1.459   8.028 -1.2276 -0.8281 -1.5187
   44CHL1  H26C 3252   6.356   1.635   8.082  1.1796 -0.3182  1.4744
   44CHL1   C27 3253   6.111   1.576   8.215 -0.1402  0.7607 -0.1493
   44CHL1  H27A 3254   6.003   1.551   8.218 -0.0941  0.6981  3.5903
   44CHL1  H27B 3255   6.147   1.553   8.318 -1.5331 -1.6099 -0.1576
   44CHL1  H27C 3256   6.125   1.686   8.201  2.3745  0.3429 -1.1863
   45CHL1    C3 3257   0.158   6.160   6.724 -0.6459 -0.1199 -0.0155
   45CHL1    H3 3258   0.258   6.122   6.751 -0.6596 -0.6747 -0.7615
   45CHL1    O3 3259   0.149   6.173   6.583  0.3757  0.1624 -0.0491
   45CHL1   H3' 3260   0.136   6.080   6.561 -0.5756 -0.1520  1.7297
   45CHL1    C4 3261   0.049   6.069   6.772 -0.0864 -0.0160  0.1138
   45CHL1   H4A 3262  -0.050   6.100   6.733 -0.4318 -2.2814 -0.8836
   45CHL1   H4B 3263   0.077   5.971   6.726 -1.3245  0.5718 -1.9420
   45CHL1    C5 3264   0.035   6.061   6.929 -0.4292 -0.5587 -0.4603
   45CHL1    C6 3265   0.056   5.947   6.999 -0.8057  0.4120  0.1082
   45CHL1    H6 3266   0.089   5.857   6.946 -0.9608 -0.4082  1.3667
   45CHL1    C7 3267   0.039   5.926   7.148 -0.1836 -0.2188  0.2107
   45CHL1   H7A 3268  -0.032   5.842   7.161 -1.1840  0.6384  0.4059
   45CHL1   H7B 3269   0.139   5.900   7.189 -0.3796 -2.8286 -0.8695
   45CHL1    C8 3270  -0.009   6.059   7.217  0.4809  0.3107 -0.2151
   45CHL1    H8 3271  -0.119   6.065   7.206  0.2901  0.6878  1.6207
   45CHL1   C14 3272   0.019   6.055   7.366 -0.9232 -0.0710 -0.1441
   45CHL1   H14 3273   0.130   6.057   7.365 -0.9166 -0.3110 -2.1715
   45CHL1   C15 3274  -0.051   5.939   7.454 -0.8331 -0.8694 -0.2481
   45CHL1  H15A 3275  -0.158   5.916   7.433 -0.8922 -1.2225  0.4443
   45CHL1  H15B 3276  -0.012   5.835   7.445  0.3868 -0.2359 -2.8498
   45CHL1   C16 3277  -0.031   5.988   7.597 -0.4448  0.2493 -0.5204
   45CHL1  H16A 3278  -0.127   5.978   7.653 -0.9467  0.1553 -1.3864
   45CHL1  H16B 3279   0.049   5.932   7.648 -1.1202  0.4130  0.7486
   45CHL1   C17 3280   0.010   6.137   7.581  0.1103  0.4231  0.1190
   45CHL1   H17 3281   0.119   6.135   7.599 -0.0562  0.9806  1.2857
   45CHL1   C13 3282  -0.026   6.180   7.436  0.0424 -0.0471 -0.6082
   45CHL1   C18 3283  -0.181   6.210   7.435  0.3181 -0.1670 -0.1720
   45CHL1  H18A 3284  -0.242   6.142   7.498  0.6086 -0.4074 -0.1508
   45CHL1  H18B 3285  -0.191   6.316   7.467  2.3472 -0.0800  0.1995
   45CHL1  H18C 3286  -0.225   6.201   7.333 -1.2747 -0.2379  0.4991
   45CHL1   C12 3287   0.061   6.296   7.380 -0.1249 -0.4102 -0.7256
   45CHL1  H12A 3288   0.040   6.394   7.427 -1.6843 -1.6976  1.3702
   45CHL1  H12B 3289   0.169   6.279   7.403  0.1678  1.1397 -0.9568
   45CHL1   C11 3290   0.041   6.314   7.231  0.7219  0.3651  0.5110
   45CHL1  H11A 3291  -0.065   6.344   7.219  0.1622 -1.0453  1.7912
   45CHL1  H11B 3292   0.107   6.399   7.205  1.1893 -0.1255  0.0755
   45CHL1    C9 3293   0.064   6.188   7.151  0.1732 -0.6623  0.4796
   45CHL1    H9 3294   0.174   6.184   7.165  0.0873  0.1480  1.3770
   45CHL1   C10 3295   0.033   6.200   7.002 -0.2997 -0.3080  1.1090
   45CHL1   C19 3296  -0.109   6.262   6.985 -0.3796 -0.3343 -0.3763
   45CHL1  H19A 3297  -0.103   6.365   7.026  1.4366 -0.0752 -1.2369
   45CHL1  H19B 3298  -0.130   6.279   6.878 -3.7941 -2.4505 -0.1221
   45CHL1  H19C 3299  -0.180   6.200   7.045  0.7901 -1.9688 -0.6261
   45CHL1    C1 3300   0.138   6.294   6.939  0.0695  0.7163  0.2891
   45CHL1   H1A 3301   0.118   6.394   6.983 -2.5321 -0.1384  1.1862
   45CHL1   H1B 3302   0.236   6.250   6.966 -0.8935 -1.1604  0.7809
   45CHL1    C2 3303   0.128   6.299   6.787  0.3022  0.7410 -0.2107
   45CHL1   H2A 3304   0.195   6.378   6.748  0.8169  0.0422 -0.7403
   45CHL1   H2B 3305   0.024   6.323   6.755  0.1405 -1.7707 -1.6241
   45CHL1   C20 3306  -0.038   6.226   7.696  0.1846 -0.5833  0.1642
   45CHL1   H20 3307  -0.149   6.230   7.705  0.2936  0.5787  1.2037
   45CHL1   C21 3308   0.015   6.373   7.692  0.2495 -0.1539  0.2674
   45CHL1  H21A 3309  -0.059   6.434   7.635  0.6088 -0.6420 -0.7195
   45CHL1  H21B 3310   0.117   6.379   7.649  0.0080 -0.9697 -0.4270
   45CHL1  H21C 3311   0.014   6.417   7.794  1.2793 -0.7307  0.5370
   45CHL1   C22 3312   0.000   6.171   7.836  0.1425  0.1339 -0.2210
   45CHL1  H22A 3313  -0.038   6.247   7.907  0.9883  0.6511 -0.3083
   45CHL1  H22B 3314  -0.060   6.079   7.855  0.8128 -0.1538  0.5562
   45CHL1   C23 3315   0.146   6.142   7.859 -0.9305 -0.4594 -0.0476
   45CHL1  H23A 3316   0.166   6.053   7.795  1.8792  1.4206 -1.8934
   45CHL1  H23B 3317   0.209   6.230   7.835 -0.8187  0.0022  1.8218
   45CHL1   C24 3318   0.169   6.106   8.014 -0.3822  0.5763 -0.1766
   45CHL1  H24A 3319   0.147   6.198   8.073  0.1530  0.8376 -0.3801
   45CHL1  H24B 3320   0.095   6.027   8.036  0.3639 -0.3562 -0.9584
   45CHL1   C25 3321   0.319   6.062   8.045 -0.2154  0.2967 -0.7597
   45CHL1   H25 3322   0.329   5.968   7.987 -1.5238  0.3419 -1.0701
   45CHL1   C26 3323   0.423   6.164   7.999 -0.8050 -0.8161 -0.3874
   45CHL1  H26A 3324   0.434   6.187   7.891 -1.5032 -0.2223 -0.3279
   45CHL1  H26B 3325   0.397   6.255   8.056 -2.0595 -1.1185 -0.4601
   45CHL1  H26C 3326   0.526   6.141   8.035 -1.6789 -0.8190  2.1497
   45CHL1   C27 3327   0.336   6.034   8.201  0.5258 -0.6729 -0.0901
   45CHL1  H27A 3328   0.409   5.954   8.224  0.7276  0.2383  2.5703
   45CHL1  H27B 3329   0.380   6.129   8.236  2.8573 -2.3754  1.7407
   45CHL1  H27C 3330   0.240   6.015   8.254  0.2276 -1.3387 -0.8437
   46CHL1    C3 3331   0.125   0.691   7.117 -0.1291  0.4520 -0.1760
   46CHL1    H3 3332   0.104   0.797   7.142  1.3410  0.4861  1.0067
   46CHL1    O3 3333   0.151   0.661   6.977 -0.3445  0.2234  1.1867
   46CHL1   H3' 3334   0.064   0.652   6.937 -0.1260  0.1994  0.7153
   46CHL1    C4 3335   0.251   0.652   7.203  0.3707 -0.0428 -0.3951
   46CHL1   H4A 3336   0.282   0.549   7.175  0.8942  0.6335 -2.3484
   46CHL1   H4B 3337   0.345   0.706   7.179  1.0481 -0.9172  0.2233
   46CHL1    C5 3338   0.224   0.657   7.352 -0.8743  0.1827 -0.0260
   46CHL1    C6 3339   0.300   0.741   7.428  0.3735  0.2449  0.0249
   46CHL1    H6 3340   0.385   0.795   7.383  1.2453  1.0250  2.5489
   46CHL1    C7 3341   0.298   0.750   7.580  0.1485  0.5192  0.4264
   46CHL1   H7A 3342   0.403   0.735   7.612  0.5452  0.4385 -0.8735
   46CHL1   H7B 3343   0.278   0.858   7.596 -0.0322  0.7330 -1.1390
   46CHL1    C8 3344   0.193   0.658   7.645  0.4254  0.4009 -0.2178
   46CHL1    H8 3345   0.232   0.556   7.664 -1.9346 -0.6354 -0.7074
   46CHL1   C14 3346   0.149   0.718   7.774 -0.4748  0.5826  0.4848
   46CHL1   H14 3347   0.093   0.812   7.753 -0.1280  1.5291  3.4677
   46CHL1   C15 3348   0.249   0.762   7.885  0.1825  0.6047  0.0245
   46CHL1  H15A 3349   0.315   0.675   7.906 -0.1505  0.7812  1.9484
   46CHL1  H15B 3350   0.308   0.852   7.859 -3.9466  4.0267  1.7826
   46CHL1   C16 3351   0.160   0.777   8.007  0.2973 -0.1180 -0.0614
   46CHL1  H16A 3352   0.213   0.739   8.097  2.2073  3.1913  0.3198
   46CHL1  H16B 3353   0.152   0.883   8.041 -1.5058 -0.9142  2.1442
   46CHL1   C17 3354   0.025   0.722   7.977 -0.0665 -0.3949  0.0230
   46CHL1   H17 3355  -0.039   0.801   7.932  2.0725  0.8602 -0.8534
   46CHL1   C13 3356   0.045   0.631   7.848 -0.2852  0.5313 -0.6867
   46CHL1   C18 3357   0.098   0.491   7.900  0.3646  0.3114  0.1486
   46CHL1  H18A 3358   0.020   0.417   7.926  1.2239 -0.8494 -0.4858
   46CHL1  H18B 3359   0.151   0.435   7.820 -1.4363 -0.8004 -0.2916
   46CHL1  H18C 3360   0.176   0.509   7.977  1.4062 -0.5735 -0.6861
   46CHL1   C12 3361  -0.078   0.610   7.761  0.3888 -0.1720 -0.9131
   46CHL1  H12A 3362  -0.146   0.540   7.813 -0.1272  1.3066  0.4701
   46CHL1  H12B 3363  -0.132   0.705   7.737  1.2903  1.4500  3.0603
   46CHL1   C11 3364  -0.040   0.547   7.630  0.5130  0.2497 -0.5276
   46CHL1  H11A 3365   0.005   0.446   7.638 -2.2256 -0.9925 -0.3849
   46CHL1  H11B 3366  -0.127   0.529   7.564  1.1006 -1.9767 -0.7398
   46CHL1    C9 3367   0.069   0.635   7.553 -0.3352 -0.3520 -0.2789
   46CHL1    H9 3368   0.029   0.739   7.552  2.6692  0.8639  1.2154
   46CHL1   C10 3369   0.099   0.587   7.407 -0.6690  0.0053  0.5893
   46CHL1   C19 3370   0.128   0.436   7.403  0.0074  0.2688 -0.2480
   46CHL1  H19A 3371   0.198   0.416   7.487 -0.3505  0.0885  0.0132
   46CHL1  H19B 3372   0.036   0.374   7.397 -0.8545  1.4272  0.7817
   46CHL1  H19C 3373   0.188   0.409   7.314  1.2310  3.1377 -0.3274
   46CHL1    C1 3374  -0.017   0.618   7.309  0.0393  0.3671 -0.3653
   46CHL1   H1A 3375  -0.107   0.555   7.327  0.2018  0.4321  0.7242
   46CHL1   H1B 3376  -0.052   0.723   7.317 -2.2501 -0.2938 -1.2256
   46CHL1    C2 3377   0.018   0.596   7.158  0.0041 -0.2875  0.4236
   46CHL1   H2A 3378  -0.075   0.612   7.101 -0.4508  0.0532  1.2443
   46CHL1   H2B 3379   0.060   0.496   7.135  1.4485 -0.0365  1.7986
   46CHL1   C20 3380  -0.063   0.659   8.093 -0.4147  0.8815 -0.1078
   46CHL1   H20 3381  -0.031   0.555   8.116  0.1664  1.3474  1.2603
   46CHL1   C21 3382  -0.216   0.661   8.069 -1.2221  0.1265 -0.4252
   46CHL1  H21A 3383  -0.275   0.621   8.155 -0.3460  0.4244  0.3250
   46CHL1  H21B 3384  -0.241   0.589   7.988 -0.1148 -1.4588  0.6034
   46CHL1  H21C 3385  -0.238   0.766   8.043 -1.6965  0.1494  0.0528
   46CHL1   C22 3386  -0.048   0.730   8.233 -0.5176  0.2700 -0.2290
   46CHL1  H22A 3387   0.054   0.767   8.256 -0.6969  0.3351  0.4594
   46CHL1  H22B 3388  -0.116   0.817   8.238  1.1074  1.5019  1.1557
   46CHL1   C23 3389  -0.078   0.629   8.349 -0.5593  0.0116  0.4553
   46CHL1  H23A 3390  -0.180   0.586   8.348 -1.1935  1.4860  0.5721
   46CHL1  H23B 3391  -0.001   0.549   8.347  2.1480  2.5188 -0.6105
   46CHL1   C24 3392  -0.049   0.689   8.489 -0.2583 -0.2761 -0.2562
   46CHL1  H24A 3393  -0.054   0.598   8.553 -0.4521 -0.5407 -0.6450
   46CHL1  H24B 3394   0.057   0.723   8.498 -1.1059  1.5925  3.5079
   46CHL1   C25 3395  -0.148   0.798   8.523  1.4088 -0.1812  0.4089
   46CHL1   H25 3396  -0.135   0.882   8.452 -1.7784 -0.1767 -0.2704
   46CHL1   C26 3397  -0.292   0.738   8.533  0.0056 -0.5708  0.9008
   46CHL1  H26A 3398  -0.350   0.742   8.438  0.1428  0.0144  0.8395
   46CHL1  H26B 3399  -0.277   0.631   8.557 -0.4701 -1.4634 -2.4806
   46CHL1  H26C 3400  -0.351   0.791   8.611  1.0906 -0.1680  1.4544
   46CHL1   C27 3401  -0.109   0.858   8.656  0.4176 -0.2248  0.4533
   46CHL1  H27A 3402  -0.111   0.783   8.738  0.0767 -0.6965  0.0167
   46CHL1  H27B 3403  -0.003   0.891   8.647  0.7059 -1.4578 -0.7815
   46CHL1  H27C 3404  -0.175   0.943   8.686  0.7456  0.0577  0.3771
   47CHL1    C3 3405   6.283   0.678   6.661  0.2592  0.0217 -0.1226
   47CHL1    H3 3406   6.365   0.753   6.652  1.9302 -1.7154  0.3956
   47CHL1    O3 3407   6.275   0.621   6.533 -0.4756 -0.2739 -0.1595
   47CHL1   H3' 3408   6.225   0.682   6.479  2.1805  0.7553 -1.5640
   47CHL1    C4 3409   6.326   0.571   6.767 -0.1460 -0.0814  0.0901
   47CHL1   H4A 3410   6.260   0.483   6.751 -1.0192  0.3113  1.5249
   47CHL1   H4B 3411   6.432   0.543   6.746 -0.4771 -1.0903 -0.3114
   47CHL1    C5 3412   6.313   0.601   6.913 -0.7105  0.7449 -0.1592
   47CHL1    C6 3413   6.423   0.595   6.991  0.0684 -0.0010  0.5711
   47CHL1    H6 3414   6.520   0.563   6.951 -0.1103  1.5367 -1.1215
   47CHL1    C7 3415   6.413   0.623   7.144 -0.1745 -0.1961 -0.2204
   47CHL1   H7A 3416   6.460   0.540   7.201  1.1799  0.6660 -0.0486
   47CHL1   H7B 3417   6.479   0.709   7.171  0.9274 -1.4221  1.1284
   47CHL1    C8 3418   6.269   0.647   7.204 -0.4794  0.4309 -0.6875
   47CHL1    H8 3419   6.227   0.545   7.219  1.6419  0.0021  2.7134
   47CHL1   C14 3420   6.272   0.733   7.331 -0.1833 -0.2813 -0.0871
   47CHL1   H14 3421   6.292   0.837   7.297 -0.2268 -0.0693  0.5292
   47CHL1   C15 3422   6.377   0.702   7.433 -0.3896  0.2377  0.3893
   47CHL1  H15A 3423   6.393   0.594   7.449  2.5444  0.4091 -1.1007
   47CHL1  H15B 3424   6.479   0.739   7.409 -0.1557  0.0727  1.1006
   47CHL1   C16 3425   6.325   0.762   7.565 -0.4745  0.2713  0.0523
   47CHL1  H16A 3426   6.317   0.686   7.646 -0.9094 -0.5873 -0.7836
   47CHL1  H16B 3427   6.390   0.844   7.601 -1.0238  1.8145 -2.3049
   47CHL1   C17 3428   6.173   0.816   7.532  0.1602  0.2261  0.3625
   47CHL1   H17 3429   6.184   0.920   7.496  3.1662 -0.5050 -0.9419
   47CHL1   C13 3430   6.136   0.738   7.402 -0.1388 -0.7296  0.6213
   47CHL1   C18 3431   6.073   0.597   7.441 -0.0914 -0.3434  0.7527
   47CHL1  H18A 3432   6.043   0.534   7.354  1.3122  0.0418 -0.0161
   47CHL1  H18B 3433   6.150   0.537   7.493  1.6451  2.8646  1.9578
   47CHL1  H18C 3434   5.983   0.620   7.502 -1.5672  1.3172 -1.9331
   47CHL1   C12 3435   6.042   0.810   7.309 -0.0624  0.5071 -0.0994
   47CHL1  H12A 3436   5.936   0.805   7.341  0.1781 -1.9330  0.3624
   47CHL1  H12B 3437   6.082   0.912   7.291  0.1730  0.1925 -1.4107
   47CHL1   C11 3438   6.036   0.740   7.170  0.4639  0.2811  0.5696
   47CHL1  H11A 3439   5.981   0.644   7.179 -2.4792  1.6068 -2.0324
   47CHL1  H11B 3440   5.982   0.817   7.110  3.6857  2.6861  0.5865
   47CHL1    C9 3441   6.177   0.714   7.104  0.2865  0.6778  0.1935
   47CHL1    H9 3442   6.230   0.808   7.078  2.0880  0.5665  3.2611
   47CHL1   C10 3443   6.168   0.657   6.956  0.6078  0.5096 -0.3678
   47CHL1   C19 3444   6.055   0.552   6.960 -0.0130 -0.2894 -0.7454
   47CHL1  H19A 3445   6.082   0.486   7.044 -1.5211  1.0875  0.8497
   47CHL1  H19B 3446   5.952   0.594   6.956  0.5799  1.1064 -1.8906
   47CHL1  H19C 3447   6.061   0.502   6.861  0.9275  1.2612 -1.5027
   47CHL1    C1 3448   6.132   0.765   6.855 -0.3710  0.2396 -0.0310
   47CHL1   H1A 3449   6.036   0.813   6.884 -0.2226  2.0951 -2.5205
   47CHL1   H1B 3450   6.209   0.844   6.849  1.1436 -1.2111 -0.1888
   47CHL1    C2 3451   6.148   0.731   6.704  0.7634 -0.5090 -0.1079
   47CHL1   H2A 3452   6.133   0.826   6.647 -3.4308 -2.5307 -2.6523
   47CHL1   H2B 3453   6.062   0.666   6.675  1.1429 -1.3878  0.7309
   47CHL1   C20 3454   6.083   0.819   7.658  0.0621  0.1252 -0.0538
   47CHL1   H20 3455   6.066   0.715   7.694 -0.3368 -0.3278 -1.5178
   47CHL1   C21 3456   5.940   0.872   7.628  0.7049  0.1017 -0.3695
   47CHL1  H21A 3457   5.888   0.915   7.717  2.0862  0.1797  0.4119
   47CHL1  H21B 3458   5.876   0.790   7.589 -0.2993  0.4712  0.4721
   47CHL1  H21C 3459   5.945   0.936   7.538 -0.0663  0.2295 -0.3262
   47CHL1   C22 3460   6.139   0.900   7.780 -0.4169 -0.2135  0.1624
   47CHL1  H22A 3461   6.246   0.875   7.796 -0.4579  1.4117  3.1259
   47CHL1  H22B 3462   6.132   1.010   7.777 -1.8275 -0.3217 -1.1049
   47CHL1   C23 3463   6.080   0.858   7.912 -0.0185 -0.4871  0.0709
   47CHL1  H23A 3464   5.970   0.878   7.907 -0.3175 -1.9218  0.5923
   47CHL1  H23B 3465   6.103   0.750   7.909  1.3458 -0.2129  0.7197
   47CHL1   C24 3466   6.137   0.918   8.040  0.2456 -0.8079 -0.0541
   47CHL1  H24A 3467   6.248   0.913   8.031  0.2447  0.7447 -1.1082
   47CHL1  H24B 3468   6.099   1.023   8.044 -1.8789 -1.5552 -0.0030
   47CHL1   C25 3469   6.091   0.857   8.172 -0.0454  0.5253  0.4670
   47CHL1   H25 3470   6.098   0.747   8.167 -0.8805  0.4159  1.5242
   47CHL1   C26 3471   6.181   0.911   8.283  0.7675  0.0604 -0.6488
   47CHL1  H26A 3472   6.146   0.876   8.383 -1.3416 -0.6516 -1.6171
   47CHL1  H26B 3473   6.284   0.868   8.279  0.6390 -0.2432 -0.7328
   47CHL1  H26C 3474   6.183   1.022   8.287  0.0087  0.1245 -1.8739
   47CHL1   C27 3475   5.942   0.887   8.193  0.3074  0.1247  0.0190
   47CHL1  H27A 3476   5.876   0.855   8.110  1.2019  1.4115 -1.1989
   47CHL1  H27B 3477   5.902   0.824   8.275 -1.7358  1.9855  0.4994
   47CHL1  H27C 3478   5.925   0.993   8.223 -1.0833  0.0275 -0.3756
   48CHL1    C3 3479   3.732   3.085   6.240  0.1581  0.0435 -0.0437
   48CHL1    H3 3480   3.836   3.115   6.265  0.1199  2.1005 -2.1936
   48CHL1    O3 3481   3.711   3.032   6.112 -0.2189 -0.5127  0.1560
   48CHL1   H3' 3482   3.773   2.959   6.109  2.6219  1.8099  0.3599
   48CHL1    C4 3483   3.693   2.979   6.350 -0.5661 -0.2497  0.4228
   48CHL1   H4A 3484   3.608   2.917   6.317  0.0410 -1.0412  0.3300
   48CHL1   H4B 3485   3.781   2.911   6.343 -0.8300 -0.5480  0.0283
   48CHL1    C5 3486   3.694   3.035   6.491  0.2077  0.3358  0.6634
   48CHL1    C6 3487   3.758   2.975   6.595  0.2912  0.2646  0.1102
   48CHL1    H6 3488   3.817   2.882   6.584  0.5748  0.4550  0.0311
   48CHL1    C7 3489   3.765   3.039   6.728 -0.3050 -1.0123  0.7003
   48CHL1   H7A 3490   3.767   2.959   6.805  2.3012  0.0002  1.7486
   48CHL1   H7B 3491   3.857   3.102   6.734 -1.1640  0.2706  0.6251
   48CHL1    C8 3492   3.646   3.128   6.763  0.3681  0.4180  0.3672
   48CHL1    H8 3493   3.563   3.057   6.782  2.0592 -1.9121 -0.6348
   48CHL1   C14 3494   3.667   3.212   6.895  0.0227  0.0473  0.3992
   48CHL1   H14 3495   3.755   3.275   6.872 -0.1303  0.5574  1.1624
   48CHL1   C15 3496   3.704   3.135   7.020  0.6510  0.3457  0.2397
   48CHL1  H15A 3497   3.638   3.047   7.031  0.5572  0.3262 -0.4273
   48CHL1  H15B 3498   3.806   3.092   7.007  0.3680 -0.0977 -0.5154
   48CHL1   C16 3499   3.683   3.236   7.136  0.4014  0.4020 -0.1079
   48CHL1  H16A 3500   3.622   3.174   7.205  0.8018  0.7946  0.5993
   48CHL1  H16B 3501   3.786   3.253   7.172  0.3262 -1.0404  0.8503
   48CHL1   C17 3502   3.617   3.359   7.065  1.1678  0.6273 -0.2224
   48CHL1   H17 3503   3.697   3.433   7.045  2.9572 -0.3275  3.0206
   48CHL1   C13 3504   3.557   3.301   6.936 -0.4759  0.8012 -0.6210
   48CHL1   C18 3505   3.422   3.225   6.962  0.1628 -0.2225  0.1127
   48CHL1  H18A 3506   3.342   3.302   6.971 -1.0857 -1.4489 -0.3334
   48CHL1  H18B 3507   3.401   3.157   6.876 -0.2450 -1.8681  1.4959
   48CHL1  H18C 3508   3.427   3.165   7.055  2.7452  0.1807  0.2700
   48CHL1   C12 3509   3.545   3.402   6.822  0.8712 -0.0497 -0.3630
   48CHL1  H12A 3510   3.462   3.475   6.833  0.4019 -0.8041  1.1448
   48CHL1  H12B 3511   3.640   3.458   6.805  2.0115 -0.4703  4.1368
   48CHL1   C11 3512   3.514   3.333   6.688 -0.0757 -0.2090 -0.4538
   48CHL1  H11A 3513   3.411   3.291   6.687  0.6805 -2.2416  2.4888
   48CHL1  H11B 3514   3.513   3.402   6.601 -2.2208 -1.8842 -1.8228
   48CHL1    C9 3515   3.621   3.230   6.645  0.3445  0.5656  0.1302
   48CHL1    H9 3516   3.709   3.298   6.642 -0.3056  1.3745 -1.0804
   48CHL1   C10 3517   3.607   3.163   6.505  0.2949  0.1363  0.2422
   48CHL1   C19 3518   3.468   3.114   6.488  0.3852  0.2378  0.2303
   48CHL1  H19A 3519   3.431   3.078   6.390  1.2813 -0.9977  0.3343
   48CHL1  H19B 3520   3.443   3.027   6.553  1.8010 -0.8458 -0.6561
   48CHL1  H19C 3521   3.392   3.193   6.511 -0.1036 -0.3398  0.6240
   48CHL1    C1 3522   3.646   3.267   6.396 -0.0630 -0.2111  0.2251
   48CHL1   H1A 3523   3.583   3.357   6.412  0.7546  0.2052  1.1986
   48CHL1   H1B 3524   3.756   3.282   6.403  0.2387 -0.6599 -2.7557
   48CHL1    C2 3525   3.644   3.213   6.248  0.2264  0.2754 -0.3101
   48CHL1   H2A 3526   3.692   3.288   6.181  0.5242  0.5192  0.1645
   48CHL1   H2B 3527   3.540   3.183   6.224 -0.2994  0.7985  1.2191
   48CHL1   C20 3528   3.525   3.434   7.168 -0.1641  0.0314  0.4487
   48CHL1   H20 3529   3.446   3.363   7.201 -2.7152  1.8983 -1.3746
   48CHL1   C21 3530   3.455   3.547   7.089  0.0231  1.0795  0.1944
   48CHL1  H21A 3531   3.524   3.618   7.039  0.1272 -1.9130 -4.1100
   48CHL1  H21B 3532   3.398   3.602   7.168 -0.4023  1.1704 -0.1779
   48CHL1  H21C 3533   3.378   3.500   7.024  1.1829  1.0629 -1.1812
   48CHL1   C22 3534   3.611   3.496   7.280 -0.5224 -0.3591  0.1525
   48CHL1  H22A 3535   3.704   3.437   7.293  0.7237  1.5961  0.2775
   48CHL1  H22B 3536   3.634   3.602   7.253 -1.3750 -0.2623 -0.2085
   48CHL1   C23 3537   3.545   3.499   7.420  0.1533 -0.4528  0.6113
   48CHL1  H23A 3538   3.600   3.579   7.473  1.8287 -1.4225  0.4026
   48CHL1  H23B 3539   3.445   3.545   7.410  0.3037 -0.2998 -0.2166
   48CHL1   C24 3540   3.535   3.360   7.483  0.2207  0.2679 -1.5212
   48CHL1  H24A 3541   3.495   3.285   7.412  0.2837 -1.2152 -0.0172
   48CHL1  H24B 3542   3.633   3.323   7.521 -0.8601 -0.7165  0.3851
   48CHL1   C25 3543   3.440   3.358   7.604 -0.6415  0.6471 -0.5854
   48CHL1   H25 3544   3.350   3.412   7.569 -1.3442  0.2641  0.5903
   48CHL1   C26 3545   3.401   3.211   7.639  0.3832  0.6356  0.1262
   48CHL1  H26A 3546   3.371   3.166   7.542  0.4256  3.7934 -1.4433
   48CHL1  H26B 3547   3.484   3.146   7.672  0.6334  0.4564 -0.8392
   48CHL1  H26C 3548   3.313   3.213   7.707 -0.1847  2.0961 -0.6308
   48CHL1   C27 3549   3.500   3.432   7.724 -0.5931 -0.8557  0.0792
   48CHL1  H27A 3550   3.595   3.379   7.747  1.1246  2.6586  1.4511
   48CHL1  H27B 3551   3.521   3.539   7.703 -2.3421 -0.0750  2.0769
   48CHL1  H27C 3552   3.426   3.439   7.807 -1.4390 -0.8051 -0.6733
   49CHL1    C3 3553   2.053   4.280   6.571 -0.3802  0.3981  0.1716
   49CHL1    H3 3554   2.064   4.170   6.564  1.1015  0.4379  1.4036
   49CHL1    O3 3555   2.010   4.340   6.448 -0.2028 -0.0891 -0.3987
   49CHL1   H3' 3556   2.059   4.298   6.376 -1.1088 -1.7095 -0.0794
   49CHL1    C4 3557   1.953   4.313   6.680  0.7297 -0.1928  0.1988
   49CHL1   H4A 3558   1.906   4.413   6.675  1.8292  0.3065 -0.1166
   49CHL1   H4B 3559   1.872   4.243   6.649  2.7666 -2.1851 -0.8340
   49CHL1    C5 3560   2.003   4.282   6.820 -0.3433  0.3270  0.3959
   49CHL1    C6 3561   1.940   4.193   6.898 -0.3103  0.5104 -0.4157
   49CHL1    H6 3562   1.843   4.156   6.864 -0.7330  1.4410 -0.2295
   49CHL1    C7 3563   1.981   4.171   7.041 -0.9134  0.2229 -0.1353
   49CHL1   H7A 3564   1.890   4.177   7.104 -0.3242  1.7812  0.5968
   49CHL1   H7B 3565   2.028   4.071   7.044  1.4567  1.0945 -3.9861
   49CHL1    C8 3566   2.073   4.278   7.095 -1.1991 -0.1156 -0.3041
   49CHL1    H8 3567   2.019   4.374   7.109 -1.0287 -0.0727  0.0552
   49CHL1   C14 3568   2.135   4.231   7.225  0.0264 -0.6543  0.4286
   49CHL1   H14 3569   2.217   4.160   7.199  0.7839  0.3914 -0.1393
   49CHL1   C15 3570   2.049   4.172   7.333  0.4806 -0.1056 -0.3070
   49CHL1  H15A 3571   1.968   4.239   7.369  2.3725  4.2862 -3.6625
   49CHL1  H15B 3572   2.001   4.075   7.311 -0.1540  0.2216 -0.3564
   49CHL1   C16 3573   2.144   4.161   7.452 -0.2798 -0.1387  1.1112
   49CHL1  H16A 3574   2.079   4.186   7.539  1.3856 -1.1088  2.6887
   49CHL1  H16B 3575   2.174   4.055   7.468  0.6220 -0.1659 -0.6710
   49CHL1   C17 3576   2.262   4.266   7.430  0.2366  0.0360 -0.4086
   49CHL1   H17 3577   2.351   4.204   7.406 -1.1734 -1.8951 -0.7762
   49CHL1   C13 3578   2.214   4.338   7.300 -0.2037  0.1196 -0.2789
   49CHL1   C18 3579   2.130   4.463   7.334 -0.2056  0.3434 -0.7918
   49CHL1  H18A 3580   2.065   4.505   7.255 -0.1045 -1.3472 -1.7957
   49CHL1  H18B 3581   2.077   4.457   7.431  1.1921  0.2265 -0.0130
   49CHL1  H18C 3582   2.198   4.549   7.353 -0.3557  0.1832  0.5266
   49CHL1   C12 3583   2.332   4.380   7.212  0.2171 -0.3218 -0.7583
   49CHL1  H12A 3584   2.385   4.472   7.244 -1.3199  1.4937 -3.2665
   49CHL1  H12B 3585   2.391   4.287   7.201  1.2573  0.3249 -0.7810
   49CHL1   C11 3586   2.287   4.422   7.069  0.6290 -0.3316  0.5177
   49CHL1  H11A 3587   2.241   4.521   7.085 -0.6047 -0.8790  0.3892
   49CHL1  H11B 3588   2.376   4.434   7.003  0.8136  0.1333  0.8508
   49CHL1    C9 3589   2.192   4.315   7.000 -0.6782  0.0948  0.6521
   49CHL1    H9 3590   2.250   4.221   6.989  1.9200  1.7854 -0.7310
   49CHL1   C10 3591   2.133   4.353   6.862  0.4003 -0.6818 -0.5533
   49CHL1   C19 3592   2.087   4.505   6.869  0.4070 -0.0583  0.3809
   49CHL1  H19A 3593   2.167   4.574   6.904  0.7349 -0.2986  0.1096
   49CHL1  H19B 3594   2.065   4.536   6.764  0.2714  1.4222  0.8374
   49CHL1  H19C 3595   1.994   4.532   6.924  0.7461  1.6036  0.1817
   49CHL1    C1 3596   2.227   4.323   6.747  0.0624 -0.2599 -0.8919
   49CHL1   H1A 3597   2.321   4.381   6.766 -0.0846 -0.4238  0.4072
   49CHL1   H1B 3598   2.243   4.214   6.750 -1.8695 -0.5487 -0.4382
   49CHL1    C2 3599   2.184   4.345   6.606  0.0405  0.9887  0.4923
   49CHL1   H2A 3600   2.261   4.310   6.534  0.4631 -0.3062  1.5549
   49CHL1   H2B 3601   2.176   4.453   6.582 -0.1390  0.3875 -2.3085
   49CHL1   C20 3602   2.284   4.347   7.559 -0.1192  0.4615  0.3101
   49CHL1   H20 3603   2.196   4.408   7.590 -0.7254 -1.0971  1.7132
   49CHL1   C21 3604   2.403   4.441   7.534  0.0665 -0.4484  1.0382
   49CHL1  H21A 3605   2.448   4.478   7.628  2.1779 -0.8332  0.2042
   49CHL1  H21B 3606   2.360   4.522   7.472  0.5048 -0.6700  0.4397
   49CHL1  H21C 3607   2.483   4.402   7.468 -1.7143  0.3889 -1.7040
   49CHL1   C22 3608   2.323   4.269   7.688 -0.0933  0.0447 -0.6388
   49CHL1  H22A 3609   2.242   4.194   7.699 -1.8218  1.5704 -2.4188
   49CHL1  H22B 3610   2.418   4.214   7.675  2.0671  3.5559 -0.4498
   49CHL1   C23 3611   2.326   4.351   7.821 -0.0671 -0.2911 -0.3221
   49CHL1  H23A 3612   2.429   4.391   7.832 -0.0513  0.5603 -3.0451
   49CHL1  H23B 3613   2.267   4.444   7.805  1.2551  0.5623 -0.2783
   49CHL1   C24 3614   2.287   4.270   7.940 -0.7058 -0.4406 -0.1937
   49CHL1  H24A 3615   2.179   4.246   7.934 -0.6603 -0.3184 -1.7228
   49CHL1  H24B 3616   2.338   4.171   7.941 -0.5446 -0.3844 -2.0000
   49CHL1   C25 3617   2.295   4.355   8.067 -0.4146  0.7879  0.0928
   49CHL1   H25 3618   2.248   4.454   8.048  1.6456  2.1494  1.7870
   49CHL1   C26 3619   2.204   4.279   8.172  0.3524 -0.8654  0.3578
   49CHL1  H26A 3620   2.212   4.320   8.275  0.3467 -0.8453  0.3508
   49CHL1  H26B 3621   2.102   4.279   8.129  0.7205  0.5372 -0.5624
   49CHL1  H26C 3622   2.230   4.171   8.162  0.2940 -1.0356  2.0025
   49CHL1   C27 3623   2.444   4.366   8.117  0.6841  0.6615  0.4497
   49CHL1  H27A 3624   2.482   4.265   8.143 -0.9549 -1.1349 -3.6955
   49CHL1  H27B 3625   2.521   4.415   8.053  1.2044 -3.7261 -2.5313
   49CHL1  H27C 3626   2.433   4.433   8.205  0.6209  1.0852  0.1236
   50CHL1    C3 3627   2.268   5.862   6.858  0.5184 -0.0214  0.3730
   50CHL1    H3 3628   2.233   5.757   6.874  0.1843 -0.0865 -0.7590
   50CHL1    O3 3629   2.320   5.863   6.728  0.3974 -0.2261 -0.4520
   50CHL1   H3' 3630   2.352   5.953   6.717 -0.3985  0.6441  3.4479
   50CHL1    C4 3631   2.148   5.953   6.855  0.1046 -0.3253  0.3859
   50CHL1   H4A 3632   2.180   6.050   6.810 -1.1950  0.9293  2.0582
   50CHL1   H4B 3633   2.078   5.917   6.777  0.5960 -1.0618  0.2828
   50CHL1    C5 3634   2.089   5.967   7.003 -0.1926  0.0934  0.5927
   50CHL1    C6 3635   1.959   5.941   7.035 -0.3950  0.1976  0.2313
   50CHL1    H6 3636   1.880   5.907   6.967 -1.0656 -2.7702  2.3942
   50CHL1    C7 3637   1.905   5.953   7.171  0.4484 -0.1047  0.1672
   50CHL1   H7A 3638   1.814   6.017   7.170  1.1084  0.8414 -0.4252
   50CHL1   H7B 3639   1.871   5.850   7.197 -2.4578  1.0489  1.1226
   50CHL1    C8 3640   1.994   6.020   7.274 -0.3907 -0.5200 -0.3315
   50CHL1    H8 3641   1.997   6.130   7.263  2.6269 -0.3739  1.3700
   50CHL1   C14 3642   1.951   5.985   7.417  0.4377 -0.6022 -0.6356
   50CHL1   H14 3643   1.956   5.874   7.424 -1.2688 -0.6941 -0.6703
   50CHL1   C15 3644   1.804   6.004   7.451  0.1735 -0.1266  1.4442
   50CHL1  H15A 3645   1.777   6.107   7.419 -1.3064 -0.8407  0.3086
   50CHL1  H15B 3646   1.728   5.940   7.401  0.2928  0.6072  0.2959
   50CHL1   C16 3647   1.799   5.994   7.601  0.5973 -0.2657 -0.5359
   50CHL1  H16A 3648   1.746   6.087   7.631  2.2389  0.1102  1.2839
   50CHL1  H16B 3649   1.753   5.899   7.637  0.8301 -1.2199 -2.6722
   50CHL1   C17 3650   1.952   5.983   7.647  0.0096 -0.4843 -0.4417
   50CHL1   H17 3651   1.979   5.875   7.653  2.4542  0.0821 -0.5540
   50CHL1   C13 3652   2.033   6.044   7.530 -0.8929 -0.2562 -0.9131
   50CHL1   C18 3653   2.013   6.199   7.544  0.4274 -0.0304 -0.1362
   50CHL1  H18A 3654   2.047   6.246   7.450  1.0000 -1.6830 -0.7753
   50CHL1  H18B 3655   1.910   6.234   7.567  0.8942  0.8387  0.6396
   50CHL1  H18C 3656   2.075   6.239   7.627 -0.3167  2.6039 -0.8033
   50CHL1   C12 3657   2.178   6.004   7.512  0.3195 -0.2419  0.7527
   50CHL1  H12A 3658   2.249   6.063   7.574 -1.2006  0.7198  1.6236
   50CHL1  H12B 3659   2.185   5.895   7.532  1.1858 -0.5032 -0.8776
   50CHL1   C11 3660   2.226   6.040   7.373  0.3008 -0.0758 -0.2897
   50CHL1  H11A 3661   2.230   6.150   7.355  0.0267 -0.0279 -0.0684
   50CHL1  H11B 3662   2.333   6.014   7.363  0.7603  1.8391 -0.5782
   50CHL1    C9 3663   2.142   5.974   7.260 -0.1204 -0.6079 -0.5442
   50CHL1    H9 3664   2.142   5.864   7.271 -1.6908 -0.7619 -1.8698
   50CHL1   C10 3665   2.195   6.001   7.116  0.7310  0.5461  0.4134
   50CHL1   C19 3666   2.216   6.151   7.089  0.1229 -0.2638  0.1520
   50CHL1  H19A 3667   2.300   6.192   7.149 -1.0160 -0.0954  1.6650
   50CHL1  H19B 3668   2.236   6.164   6.980 -0.7704  0.7631  0.0984
   50CHL1  H19C 3669   2.124   6.211   7.101 -0.5235 -1.1503 -0.3147
   50CHL1    C1 3670   2.324   5.919   7.099  0.1328 -1.2456 -0.3937
   50CHL1   H1A 3671   2.400   5.951   7.173  2.1308  0.1406 -2.9948
   50CHL1   H1B 3672   2.303   5.815   7.132 -2.4701 -0.5721  0.1941
   50CHL1    C2 3673   2.374   5.915   6.958  0.4225  0.9012  0.4932
   50CHL1   H2A 3674   2.457   5.841   6.955 -0.8506 -0.6011  1.2353
   50CHL1   H2B 3675   2.415   6.013   6.926  3.2239 -0.2645  0.3920
   50CHL1   C20 3676   1.962   6.046   7.788 -0.5767  0.5937 -0.3771
   50CHL1   H20 3677   1.944   6.156   7.784  1.0550  0.8954 -0.0814
   50CHL1   C21 3678   2.100   6.015   7.838  0.0396 -0.1410  0.5694
   50CHL1  H21A 3679   2.134   6.045   7.940  0.1815 -4.5010  1.9262
   50CHL1  H21B 3680   2.178   6.064   7.776 -1.5374  1.5859 -0.0883
   50CHL1  H21C 3681   2.108   5.905   7.827 -2.7640 -0.4329  1.0654
   50CHL1   C22 3682   1.874   5.991   7.899  0.4471  0.3425  0.0994
   50CHL1  H22A 3683   1.774   5.959   7.864  0.2088 -0.2673  1.3265
   50CHL1  H22B 3684   1.926   5.905   7.946 -0.7859 -0.1565  0.5630
   50CHL1   C23 3685   1.858   6.088   8.017 -0.1662  0.6346  0.1125
   50CHL1  H23A 3686   1.955   6.080   8.071 -0.1825 -0.3637 -0.0037
   50CHL1  H23B 3687   1.858   6.192   7.978  0.2846  0.3500 -0.6431
   50CHL1   C24 3688   1.740   6.049   8.105 -0.3345  0.0061 -0.8946
   50CHL1  H24A 3689   1.696   6.137   8.158  1.3451  0.9411 -1.0080
   50CHL1  H24B 3690   1.665   6.001   8.039  0.9067 -0.6264 -1.8662
   50CHL1   C25 3691   1.773   5.941   8.214 -0.8105 -0.3487  0.6089
   50CHL1   H25 3692   1.821   5.855   8.162 -1.1685 -0.4897  0.5114
   50CHL1   C26 3693   1.884   5.994   8.319  0.3245  0.2321  0.1509
   50CHL1  H26A 3694   1.934   5.908   8.369 -0.4556  0.0859  0.7139
   50CHL1  H26B 3695   1.961   6.052   8.265  0.9038 -0.5102  0.1629
   50CHL1  H26C 3696   1.832   6.047   8.402  1.1187  1.0254  0.1421
   50CHL1   C27 3697   1.651   5.905   8.299 -0.2618 -0.4420 -0.1076
   50CHL1  H27A 3698   1.672   5.837   8.384  0.0602 -1.2463 -0.8238
   50CHL1  H27B 3699   1.608   5.999   8.340  0.8864 -0.4702  1.1691
   50CHL1  H27C 3700   1.575   5.859   8.231  1.4855 -1.8863 -1.1478
   51CHL1    C3 3701   2.523   4.781   6.687 -0.9468 -0.6963  0.1762
   51CHL1    H3 3702   2.621   4.774   6.636 -0.8128  0.7214  0.2203
   51CHL1    O3 3703   2.435   4.749   6.584  0.1674 -0.1965  0.1643
   51CHL1   H3' 3704   2.433   4.820   6.519  0.8188 -2.3410 -2.2445
   51CHL1    C4 3705   2.514   4.674   6.797 -0.0205 -0.5172  0.3644
   51CHL1   H4A 3706   2.407   4.669   6.825 -0.3650  2.2117 -0.2936
   51CHL1   H4B 3707   2.539   4.575   6.753  1.0601 -0.3495  0.5672
   51CHL1    C5 3708   2.595   4.702   6.921  0.4166  0.3380  0.5522
   51CHL1    C6 3709   2.684   4.608   6.958 -0.9992  0.7675  0.5157
   51CHL1    H6 3710   2.683   4.508   6.913  1.4204  0.2389  1.5764
   51CHL1    C7 3711   2.785   4.633   7.071  0.2478  0.2558 -0.2799
   51CHL1   H7A 3712   2.794   4.537   7.126  0.4138  0.4935  0.1096
   51CHL1   H7B 3713   2.881   4.664   7.024 -0.5277  0.7784 -1.5620
   51CHL1    C8 3714   2.739   4.748   7.161 -0.4859  0.0519  0.2393
   51CHL1    H8 3715   2.642   4.729   7.211 -0.5066 -2.1460 -0.6088
   51CHL1   C14 3716   2.844   4.782   7.259 -0.4226 -0.5968  0.4102
   51CHL1   H14 3717   2.933   4.808   7.198 -0.0800 -2.6109  0.0330
   51CHL1   C15 3718   2.878   4.670   7.359 -0.0978 -0.2501  0.6774
   51CHL1  H15A 3719   2.780   4.628   7.390 -0.2147  0.4707  1.3081
   51CHL1  H15B 3720   2.937   4.590   7.311 -2.1411 -0.9833 -0.6916
   51CHL1   C16 3721   2.956   4.743   7.472  0.0927 -0.2193  0.1235
   51CHL1  H16A 3722   2.908   4.707   7.565  1.2389  0.9796  1.2024
   51CHL1  H16B 3723   3.065   4.725   7.464 -0.1886 -1.2316 -1.6314
   51CHL1   C17 3724   2.938   4.896   7.438 -0.4168  0.2439  0.6131
   51CHL1   H17 3725   3.016   4.925   7.365 -2.7976  2.4414 -1.1575
   51CHL1   C13 3726   2.808   4.897   7.354 -0.8853 -0.2508  0.2602
   51CHL1   C18 3727   2.685   4.873   7.444  0.0524 -0.6533 -0.5213
   51CHL1  H18A 3728   2.694   4.802   7.529 -2.7581  0.2700  0.6299
   51CHL1  H18B 3729   2.647   4.972   7.477 -0.3434 -0.5165 -1.3566
   51CHL1  H18C 3730   2.602   4.835   7.380  0.5432 -2.0591 -0.3414
   51CHL1   C12 3731   2.798   5.017   7.265  0.2616  0.3382  0.9580
   51CHL1  H12A 3732   2.779   5.109   7.325 -0.2396  0.3718  0.7457
   51CHL1  H12B 3733   2.883   5.031   7.195  0.2473  0.7104  1.0126
   51CHL1   C11 3734   2.678   5.006   7.171 -0.5331  0.4063  0.0056
   51CHL1  H11A 3735   2.583   5.010   7.230 -1.4000  1.0668 -1.4062
   51CHL1  H11B 3736   2.673   5.096   7.106  0.6371  1.7546  1.7476
   51CHL1    C9 3737   2.708   4.879   7.077 -0.1961 -0.2660 -0.2612
   51CHL1    H9 3738   2.801   4.904   7.022 -0.9717  1.9542 -0.6371
   51CHL1   C10 3739   2.602   4.846   6.972 -0.1795  0.2551  0.7525
   51CHL1   C19 3740   2.468   4.866   7.043  0.3656 -0.2535 -0.0861
   51CHL1  H19A 3741   2.379   4.837   6.984  2.2762 -1.8872 -2.2635
   51CHL1  H19B 3742   2.454   4.804   7.134 -4.9207  0.7336 -0.0773
   51CHL1  H19C 3743   2.449   4.974   7.065 -3.6135 -0.6028 -1.4601
   51CHL1    C1 3744   2.616   4.946   6.857  0.1594  0.3711  0.3175
   51CHL1   H1A 3745   2.602   5.054   6.882  0.2183  0.3871  0.2784
   51CHL1   H1B 3746   2.709   4.920   6.803  0.1661  0.0074  0.5027
   51CHL1    C2 3747   2.515   4.922   6.744  0.0071 -0.0964  0.7676
   51CHL1   H2A 3748   2.535   4.994   6.662 -0.5564  0.4164  1.0728
   51CHL1   H2B 3749   2.409   4.934   6.776 -1.0293 -1.2030 -2.0215
   51CHL1   C20 3750   2.949   4.995   7.557  0.4264  0.4481  0.5285
   51CHL1   H20 3751   2.847   5.023   7.591  1.3948  1.0878  2.9850
   51CHL1   C21 3752   3.010   5.128   7.512  0.8985 -0.1950 -0.5077
   51CHL1  H21A 3753   3.115   5.107   7.481  1.2158 -1.7262  1.5301
   51CHL1  H21B 3754   3.009   5.198   7.597  0.2922 -2.0842  1.0766
   51CHL1  H21C 3755   2.955   5.182   7.432  1.3495  1.9768  0.6239
   51CHL1   C22 3756   3.014   4.936   7.690 -0.3724 -0.7156 -0.9373
   51CHL1  H22A 3757   2.962   4.841   7.715 -0.6763 -0.3841 -0.2981
   51CHL1  H22B 3758   3.123   4.912   7.682  0.3970  2.5062 -0.7926
   51CHL1   C23 3759   2.992   5.021   7.814  1.0287  0.0390 -0.5007
   51CHL1  H23A 3760   3.052   5.115   7.816 -0.0958  0.7552  0.2596
   51CHL1  H23B 3761   2.883   5.045   7.818  1.2249  0.9862 -0.6492
   51CHL1   C24 3762   3.021   4.945   7.949 -0.1875  0.4209 -0.5940
   51CHL1  H24A 3763   2.946   4.864   7.948  1.4706 -1.1767  0.6861
   51CHL1  H24B 3764   3.114   4.885   7.936  0.1232  0.6839  0.4125
   51CHL1   C25 3765   2.999   5.015   8.084  1.2722 -0.4442  0.0967
   51CHL1   H25 3766   2.891   5.041   8.080  1.6212  1.1427  0.6933
   51CHL1   C26 3767   3.014   4.913   8.205  0.1672 -0.2549 -0.3859
   51CHL1  H26A 3768   2.934   4.836   8.194 -0.1841  0.2883 -1.7868
   51CHL1  H26B 3769   3.118   4.873   8.199  0.6072  0.2075  3.0862
   51CHL1  H26C 3770   2.993   4.961   8.302  0.9406 -2.1726  0.7622
   51CHL1   C27 3771   3.079   5.152   8.102  0.0722  0.5954  0.4539
   51CHL1  H27A 3772   3.059   5.191   8.204  2.2587 -1.3841  1.7011
   51CHL1  H27B 3773   3.187   5.128   8.088  0.1182  1.1455 -0.1376
   51CHL1  H27C 3774   3.042   5.230   8.033 -0.3290  1.6043  1.8029
   52CHL1    C3 3775   4.332   5.801   6.961  0.1879  0.2524  0.3168
   52CHL1    H3 3776   4.287   5.902   6.973 -1.1445 -0.0799 -1.6266
   52CHL1    O3 3777   4.346   5.764   6.825 -0.0931 -0.4525 -0.1153
   52CHL1   H3' 3778   4.387   5.844   6.789 -2.0147 -0.2870 -1.9967
   52CHL1    C4 3779   4.476   5.808   7.019 -0.1155 -0.3045 -0.2211
   52CHL1   H4A 3780   4.525   5.711   6.995 -0.7680 -1.4172  2.7087
   52CHL1   H4B 3781   4.517   5.890   6.957 -0.7768  0.5438  0.4451
   52CHL1    C5 3782   4.469   5.838   7.169 -0.0781  0.5777 -0.4467
   52CHL1    C6 3783   4.544   5.933   7.226  0.2322  0.1360 -0.5760
   52CHL1    H6 3784   4.607   6.003   7.169  0.2891  2.1599  1.8835
   52CHL1    C7 3785   4.558   5.960   7.369  0.0867 -0.5079 -0.1577
   52CHL1   H7A 3786   4.663   5.983   7.395  0.4638 -1.3238 -0.9051
   52CHL1   H7B 3787   4.512   6.060   7.381 -1.7004 -1.3858  0.4729
   52CHL1    C8 3788   4.498   5.853   7.459 -0.0191 -0.8218  0.8513
   52CHL1    H8 3789   4.570   5.769   7.467  2.1016  0.8038 -0.6036
   52CHL1   C14 3790   4.472   5.911   7.595 -0.3212  0.6758 -0.6011
   52CHL1   H14 3791   4.404   5.998   7.591 -1.3498  0.0405  1.9142
   52CHL1   C15 3792   4.599   5.951   7.674 -0.4670  0.1594 -0.1403
   52CHL1  H15A 3793   4.674   5.869   7.676  0.2509  0.8193  0.2641
   52CHL1  H15B 3794   4.652   6.036   7.625  0.7940 -0.9394 -0.7197
   52CHL1   C16 3795   4.546   5.976   7.811  0.3361  0.5247  0.1442
   52CHL1  H16A 3796   4.617   5.954   7.893  0.6281  1.3693  0.1240
   52CHL1  H16B 3797   4.511   6.082   7.818  1.3468  0.8837 -0.1935
   52CHL1   C17 3798   4.403   5.901   7.812  0.0944 -0.5956 -0.6975
   52CHL1   H17 3799   4.327   5.981   7.801  0.0478 -0.1742  2.1368
   52CHL1   C13 3800   4.395   5.816   7.684 -0.1486 -0.1772  0.4595
   52CHL1   C18 3801   4.471   5.678   7.706  0.1637 -0.6194 -0.4602
   52CHL1  H18A 3802   4.562   5.701   7.765  0.7688  1.7053 -2.2156
   52CHL1  H18B 3803   4.417   5.592   7.750  0.8139 -1.0783 -0.5552
   52CHL1  H18C 3804   4.515   5.637   7.613  0.4004  2.5857 -1.8458
   52CHL1   C12 3805   4.252   5.789   7.627  0.0329 -0.1128  0.2202
   52CHL1  H12A 3806   4.191   5.718   7.687 -3.4184  3.1978  0.7994
   52CHL1  H12B 3807   4.196   5.883   7.607  0.1558 -0.4654 -1.9411
   52CHL1   C11 3808   4.269   5.723   7.489 -0.2152 -0.2038 -0.4947
   52CHL1  H11A 3809   4.305   5.618   7.491 -0.0577 -0.1608 -1.1516
   52CHL1  H11B 3810   4.167   5.715   7.446 -1.2355 -0.7400  1.9346
   52CHL1    C9 3811   4.367   5.805   7.397  0.1028 -0.3006  0.0404
   52CHL1    H9 3812   4.321   5.904   7.378  1.1339  0.2886  0.5248
   52CHL1   C10 3813   4.373   5.747   7.258  0.2150  0.2073 -0.2098
   52CHL1   C19 3814   4.446   5.610   7.263 -0.9085 -0.5741  0.1592
   52CHL1  H19A 3815   4.466   5.574   7.160  0.2655 -0.6509  0.4084
   52CHL1  H19B 3816   4.549   5.612   7.305  0.9864 -0.2174 -4.2411
   52CHL1  H19C 3817   4.389   5.526   7.309 -0.2192 -0.7938  0.6157
   52CHL1    C1 3818   4.235   5.737   7.180  0.7751 -0.2662  0.4170
   52CHL1   H1A 3819   4.181   5.654   7.229 -0.0915 -0.9560 -1.6528
   52CHL1   H1B 3820   4.185   5.836   7.185  1.3430  0.1333 -1.3596
   52CHL1    C2 3821   4.244   5.705   7.033 -0.2576 -0.2396  0.3899
   52CHL1   H2A 3822   4.141   5.715   6.991 -0.4270  2.0463  1.2527
   52CHL1   H2B 3823   4.295   5.610   7.008 -0.2120  0.1172 -0.9315
   52CHL1   C20 3824   4.385   5.828   7.955 -0.0459  0.1875  0.0588
   52CHL1   H20 3825   4.460   5.746   7.961 -0.2171  0.1484  1.9172
   52CHL1   C21 3826   4.245   5.762   7.965 -0.0708 -0.7019  0.2250
   52CHL1  H21A 3827   4.163   5.836   7.975  0.0389 -0.6459  0.7222
   52CHL1  H21B 3828   4.236   5.702   8.058 -2.4435  1.0452  1.1762
   52CHL1  H21C 3829   4.233   5.698   7.875  2.0673  0.7404 -1.1154
   52CHL1   C22 3830   4.417   5.936   8.062  0.4308  0.2656  0.0248
   52CHL1  H22A 3831   4.526   5.937   8.081  0.2695  0.3423  0.9293
   52CHL1  H22B 3832   4.378   6.032   8.023  0.7317  0.3039 -0.1820
   52CHL1   C23 3833   4.343   5.909   8.193 -0.2993 -0.6608  0.0440
   52CHL1  H23A 3834   4.233   5.911   8.178  0.0485 -0.1232 -2.6347
   52CHL1  H23B 3835   4.367   5.803   8.216  0.1433 -0.8071 -1.1023
   52CHL1   C24 3836   4.391   5.996   8.312 -0.0116 -0.0492  0.0475
   52CHL1  H24A 3837   4.499   5.978   8.327 -0.0458 -1.4696 -1.1821
   52CHL1  H24B 3838   4.374   6.101   8.283  0.7285 -0.6560 -2.7783
   52CHL1   C25 3839   4.315   5.969   8.442 -0.9771 -0.1101 -0.1238
   52CHL1   H25 3840   4.328   5.862   8.470 -0.3007  0.5885  2.2858
   52CHL1   C26 3841   4.348   6.051   8.562 -0.3788  0.6881 -0.3214
   52CHL1  H26A 3842   4.296   6.019   8.655 -0.4612 -0.6953 -0.8333
   52CHL1  H26B 3843   4.456   6.057   8.587 -0.7672  0.8779  1.3584
   52CHL1  H26C 3844   4.318   6.154   8.535 -3.0743  0.2764  0.9064
   52CHL1   C27 3845   4.164   5.990   8.429 -0.2963 -0.0862 -0.2945
   52CHL1  H27A 3846   4.148   6.085   8.373  2.8954  0.6049 -0.1337
   52CHL1  H27B 3847   4.115   5.900   8.387 -1.4900  0.8042 -0.8592
   52CHL1  H27C 3848   4.111   6.008   8.525 -0.2686 -3.5450  0.4274
   53CHL1    C3 3849   0.583   2.283   7.102 -0.3650 -0.3319  0.5730
   53CHL1    H3 3850   0.572   2.393   7.105 -0.2296 -0.3547  1.7958
   53CHL1    O3 3851   0.596   2.245   6.963 -0.6247  0.2352  0.1980
   53CHL1   H3' 3852   0.691   2.247   6.948 -0.4802  0.6561  1.1375
   53CHL1    C4 3853   0.710   2.242   7.174  0.0067 -0.0249  0.6919
   53CHL1   H4A 3854   0.724   2.134   7.151 -0.2565  0.1300 -0.2020
   53CHL1   H4B 3855   0.790   2.300   7.123  0.0593 -0.4046  0.3417
   53CHL1    C5 3856   0.706   2.263   7.315 -0.2103 -0.2839  0.1358
   53CHL1    C6 3857   0.806   2.326   7.378 -0.6953 -0.0615 -0.3083
   53CHL1    H6 3858   0.895   2.363   7.325 -0.1184  1.0275  1.3551
   53CHL1    C7 3859   0.821   2.334   7.529  0.3482 -0.5014  0.1539
   53CHL1   H7A 3860   0.923   2.305   7.563  1.4011  1.6922 -1.0575
   53CHL1   H7B 3861   0.802   2.437   7.565 -0.8434 -0.7775  0.3452
   53CHL1    C8 3862   0.713   2.247   7.610 -0.0100 -0.3651 -0.7984
   53CHL1    H8 3863   0.764   2.149   7.610  1.0711  0.1249  3.1852
   53CHL1   C14 3864   0.694   2.290   7.756  0.5888  0.2218 -0.4366
   53CHL1   H14 3865   0.674   2.399   7.751 -1.7484 -0.1764 -0.1749
   53CHL1   C15 3866   0.815   2.266   7.853 -1.1531 -1.4098  0.1479
   53CHL1  H15A 3867   0.866   2.170   7.831 -1.1403 -1.2774 -0.4087
   53CHL1  H15B 3868   0.885   2.351   7.840 -2.2541 -0.3461  0.9575
   53CHL1   C16 3869   0.752   2.267   7.999  0.1046  1.3287  0.3159
   53CHL1  H16A 3870   0.777   2.173   8.053  1.3389  0.9747 -0.8520
   53CHL1  H16B 3871   0.798   2.352   8.054  0.6260 -0.0039  1.9959
   53CHL1   C17 3872   0.597   2.279   7.979  0.3983 -0.3531 -0.2047
   53CHL1   H17 3873   0.572   2.387   7.969  1.7214 -0.0824 -0.6947
   53CHL1   C13 3874   0.577   2.226   7.834 -0.1059 -0.4940 -0.3074
   53CHL1   C18 3875   0.599   2.070   7.843 -0.2776  0.3792  0.3592
   53CHL1  H18A 3876   0.519   2.029   7.908  0.3508  2.1904  2.3183
   53CHL1  H18B 3877   0.589   2.006   7.752  0.4273  1.4150 -0.4523
   53CHL1  H18C 3878   0.693   2.039   7.894  0.7898  1.9645 -0.6037
   53CHL1   C12 3879   0.447   2.257   7.755 -0.4057 -0.7643  0.1871
   53CHL1  H12A 3880   0.353   2.225   7.803 -0.1893 -1.4130  0.1854
   53CHL1  H12B 3881   0.435   2.367   7.749 -0.3173 -0.8913 -3.5551
   53CHL1   C11 3882   0.457   2.207   7.610 -0.6749  0.3802  0.8481
   53CHL1  H11A 3883   0.451   2.096   7.614 -1.9866  0.3705 -0.7858
   53CHL1  H11B 3884   0.363   2.243   7.562  0.7299  1.3314 -1.2676
   53CHL1    C9 3885   0.584   2.250   7.531  0.4355  0.2786  0.1048
   53CHL1    H9 3886   0.565   2.359   7.521 -0.9581 -0.1327 -2.0618
   53CHL1   C10 3887   0.589   2.202   7.390 -0.3439 -0.1314  0.4189
   53CHL1   C19 3888   0.608   2.049   7.393 -0.2900  0.6005 -0.3035
   53CHL1  H19A 3889   0.617   2.001   7.293  1.8983  0.6573 -0.1687
   53CHL1  H19B 3890   0.697   2.027   7.456 -1.2102  0.0475  0.8209
   53CHL1  H19C 3891   0.523   1.997   7.442 -1.5673  2.2088 -0.7773
   53CHL1    C1 3892   0.460   2.231   7.316  0.3904  0.3872 -0.2440
   53CHL1   H1A 3893   0.374   2.170   7.351  1.2707 -0.4930  0.4130
   53CHL1   H1B 3894   0.441   2.337   7.343  1.6832  0.4699  0.3843
   53CHL1    C2 3895   0.466   2.213   7.161 -0.6695  0.2275 -0.3488
   53CHL1   H2A 3896   0.375   2.242   7.103 -1.6680 -1.3681  0.3836
   53CHL1   H2B 3897   0.472   2.104   7.141  1.3416  0.2359  0.1249
   53CHL1   C20 3898   0.515   2.228   8.100 -0.2411 -0.1959  1.1104
   53CHL1   H20 3899   0.524   2.118   8.110  0.3537 -0.5202 -2.2024
   53CHL1   C21 3900   0.367   2.267   8.080  0.1678  0.0193 -0.4719
   53CHL1  H21A 3901   0.325   2.207   7.997  1.0711 -2.0091  0.4912
   53CHL1  H21B 3902   0.361   2.375   8.056  1.3088 -0.1251 -1.4420
   53CHL1  H21C 3903   0.299   2.246   8.165  0.5964  0.1811 -0.0860
   53CHL1   C22 3904   0.568   2.282   8.231 -0.1894 -0.0319 -0.1797
   53CHL1  H22A 3905   0.678   2.263   8.232 -0.4908 -1.9909 -1.3729
   53CHL1  H22B 3906   0.545   2.390   8.228  1.6581  0.3220 -3.2305
   53CHL1   C23 3907   0.521   2.212   8.363 -0.1275  0.2050  0.4594
   53CHL1  H23A 3908   0.412   2.230   8.374 -0.1734 -1.3053  2.8129
   53CHL1  H23B 3909   0.529   2.103   8.347 -1.7049  0.0357  0.6863
   53CHL1   C24 3910   0.599   2.260   8.488  0.2764  0.3123 -0.2276
   53CHL1  H24A 3911   0.706   2.236   8.476 -0.0828 -1.1726 -0.5460
   53CHL1  H24B 3912   0.598   2.371   8.481 -1.9696  0.4587  1.6982
   53CHL1   C25 3913   0.560   2.202   8.623 -0.4894 -0.0755 -0.1626
   53CHL1   H25 3914   0.547   2.092   8.614 -0.0387 -0.1455  0.0227
   53CHL1   C26 3915   0.667   2.248   8.721 -0.1800  0.5300  0.0695
   53CHL1  H26A 3916   0.663   2.205   8.824 -0.5666  0.2187 -0.0748
   53CHL1  H26B 3917   0.765   2.234   8.671 -0.9317 -3.0480 -0.5777
   53CHL1  H26C 3918   0.659   2.357   8.741  0.1621  0.6013 -0.1769
   53CHL1   C27 3919   0.417   2.243   8.666 -0.4366  0.3144 -0.3090
   53CHL1  H27A 3920   0.358   2.262   8.574  1.5699  4.5771 -0.8642
   53CHL1  H27B 3921   0.372   2.175   8.742 -1.9783  1.9117  0.2443
   53CHL1  H27C 3922   0.416   2.340   8.720 -2.2402  1.6929 -2.7248
   54CHL1    C3 3923   1.373   4.132   6.855 -0.4081  0.1286  0.4486
   54CHL1    H3 3924   1.390   4.024   6.839 -3.1927 -0.8588  3.6007
   54CHL1    O3 3925   1.324   4.191   6.741  0.0265  0.3900 -0.2902
   54CHL1   H3' 3926   1.324   4.287   6.748 -0.8915  0.4481 -0.9773
   54CHL1    C4 3927   1.251   4.134   6.954  0.1993  0.1502 -0.3727
   54CHL1   H4A 3928   1.227   4.240   6.973 -0.0966  0.0852 -0.3940
   54CHL1   H4B 3929   1.163   4.084   6.909  0.7170 -0.7091 -0.4594
   54CHL1    C5 3930   1.296   4.075   7.092 -0.4509 -0.1341  0.5869
   54CHL1    C6 3931   1.229   3.981   7.164  0.3313  0.0664 -0.5282
   54CHL1    H6 3932   1.141   3.930   7.122  0.2435 -1.4196  1.3841
   54CHL1    C7 3933   1.275   3.925   7.299  0.3456 -0.4668 -0.1288
   54CHL1   H7A 3934   1.191   3.913   7.370 -0.0288 -0.0237 -0.4914
   54CHL1   H7B 3935   1.319   3.824   7.295 -0.9786 -1.0727  0.3137
   54CHL1    C8 3936   1.377   4.022   7.365 -0.4420  0.0456  0.8206
   54CHL1    H8 3937   1.320   4.106   7.408 -1.2186 -0.3995  0.6588
   54CHL1   C14 3938   1.461   3.948   7.472 -0.0470 -0.7199  0.4447
   54CHL1   H14 3939   1.517   3.876   7.409  0.5903  1.7609 -1.9205
   54CHL1   C15 3940   1.382   3.873   7.578 -0.0468  0.5259  0.8587
   54CHL1  H15A 3941   1.298   3.941   7.604  0.2849  0.1582  3.0120
   54CHL1  H15B 3942   1.356   3.775   7.535  0.9003  0.7983 -0.3694
   54CHL1   C16 3943   1.484   3.846   7.696 -0.0247 -0.6801  0.6899
   54CHL1  H16A 3944   1.435   3.895   7.782  0.2201  0.5291  0.1562
   54CHL1  H16B 3945   1.505   3.737   7.710  0.0014 -0.3346  3.5035
   54CHL1   C17 3946   1.611   3.929   7.658 -0.4553  0.3096 -0.0875
   54CHL1   H17 3947   1.677   3.859   7.602  1.7876  1.0145  1.5997
   54CHL1   C13 3948   1.568   4.028   7.554 -0.6319 -0.1398 -0.0424
   54CHL1   C18 3949   1.495   4.140   7.630 -0.6811  0.2467  0.2699
   54CHL1  H18A 3950   1.424   4.199   7.569 -0.2403  0.7608  0.2560
   54CHL1  H18B 3951   1.455   4.123   7.732  3.9366  0.7204  2.3134
   54CHL1  H18C 3952   1.572   4.217   7.655 -0.2362 -0.0259 -0.2468
   54CHL1   C12 3953   1.671   4.078   7.446  0.7629 -0.3833  0.4635
   54CHL1  H12A 3954   1.735   4.159   7.487 -0.4514 -0.0075  1.6922
   54CHL1  H12B 3955   1.737   3.996   7.411  4.1496  2.1207  0.7738
   54CHL1   C11 3956   1.601   4.152   7.328  0.0575 -0.6311  0.7208
   54CHL1  H11A 3957   1.561   4.247   7.370 -1.7685 -0.8498 -0.4599
   54CHL1  H11B 3958   1.685   4.177   7.261  0.0916 -0.1971  0.9250
   54CHL1    C9 3959   1.484   4.072   7.264  0.5337 -0.3018 -0.0249
   54CHL1    H9 3960   1.531   3.980   7.221  0.6354 -0.4957  0.5002
   54CHL1   C10 3961   1.420   4.148   7.148  0.1243  0.1227 -0.5620
   54CHL1   C19 3962   1.383   4.292   7.189 -0.3703  0.4838 -0.0979
   54CHL1  H19A 3963   1.325   4.294   7.284 -0.7697 -0.1520 -0.3281
   54CHL1  H19B 3964   1.471   4.354   7.219  0.4338 -0.2100 -1.0114
   54CHL1  H19C 3965   1.330   4.352   7.112 -1.0759  2.8906  2.1562
   54CHL1    C1 3966   1.536   4.165   7.036 -0.0525  0.8269 -0.3108
   54CHL1   H1A 3967   1.611   4.237   7.075  2.0481 -0.5203 -1.7379
   54CHL1   H1B 3968   1.582   4.064   7.033 -2.6166 -0.4656  2.1980
   54CHL1    C2 3969   1.487   4.217   6.902 -0.0175 -1.1167 -0.1387
   54CHL1   H2A 3970   1.570   4.235   6.829 -0.2534 -1.1306 -0.4116
   54CHL1   H2B 3971   1.449   4.320   6.918  0.5832 -0.6339 -1.6448
   54CHL1   C20 3972   1.687   3.974   7.775 -0.1951 -0.1212  0.5969
   54CHL1   H20 3973   1.625   4.046   7.832  0.7616  0.1553  1.3141
   54CHL1   C21 3974   1.820   4.042   7.733  0.2247  0.2120 -0.2608
   54CHL1  H21A 3975   1.802   4.132   7.670 -0.5113 -0.3102 -0.8152
   54CHL1  H21B 3976   1.890   3.985   7.669  0.5645  1.2571 -0.8333
   54CHL1  H21C 3977   1.881   4.067   7.822  2.6321 -0.8486 -1.5804
   54CHL1   C22 3978   1.716   3.857   7.873  0.2563 -0.1105 -0.0516
   54CHL1  H22A 3979   1.626   3.804   7.910  1.0484 -0.9601  0.6714
   54CHL1  H22B 3980   1.790   3.782   7.839  0.7767  1.1481 -1.7682
   54CHL1   C23 3981   1.778   3.909   8.008 -0.3036 -0.2923  0.1666
   54CHL1  H23A 3982   1.888   3.918   7.991  0.3999  0.3163  4.5322
   54CHL1  H23B 3983   1.747   4.015   8.025  0.9489  0.4074 -1.6655
   54CHL1   C24 3984   1.760   3.813   8.126  0.1104 -0.2006  0.7268
   54CHL1  H24A 3985   1.650   3.796   8.132  0.2589 -1.0889  1.0911
   54CHL1  H24B 3986   1.818   3.719   8.112  0.1070 -0.3369  1.5794
   54CHL1   C25 3987   1.804   3.868   8.258  0.7433  0.7663  0.6805
   54CHL1   H25 3988   1.736   3.949   8.291  1.6492  2.3770 -1.2782
   54CHL1   C26 3989   1.781   3.759   8.367  0.4751  0.5307  0.3159
   54CHL1  H26A 3990   1.676   3.729   8.383  0.5371  0.1463  0.0134
   54CHL1  H26B 3991   1.845   3.669   8.355 -0.2782  0.1279 -0.7618
   54CHL1  H26C 3992   1.813   3.800   8.465  0.3259  1.7635 -0.1520
   54CHL1   C27 3993   1.952   3.914   8.256  0.5237 -0.2588 -0.3134
   54CHL1  H27A 3994   1.976   3.984   8.173  1.6734  0.2770  0.4559
   54CHL1  H27B 3995   1.986   3.955   8.354  1.2570 -0.3263 -0.5325
   54CHL1  H27C 3996   2.005   3.820   8.231 -0.0845 -0.2998 -1.4784
   55CHL1    C3 3997   0.226   5.397   7.032  0.5322  0.3787 -0.2718
   55CHL1    H3 3998   0.278   5.304   7.062  0.4231 -0.0016 -1.2534
   55CHL1    O3 3999   0.216   5.412   6.890 -0.6182  0.2014  0.2582
   55CHL1   H3' 4000   0.205   5.505   6.866  0.4089  0.1991 -0.2760
   55CHL1    C4 4001   0.087   5.401   7.096 -0.1272 -0.8002 -0.4519
   55CHL1   H4A 4002   0.044   5.499   7.067 -0.5198 -1.2709 -1.5171
   55CHL1   H4B 4003   0.023   5.324   7.048 -0.3571 -0.7059 -0.2955
   55CHL1    C5 4004   0.097   5.391   7.252 -0.2833 -0.4253 -0.5946
   55CHL1    C6 4005   0.030   5.302   7.328  0.1313  0.6413 -0.1783
   55CHL1    H6 4006  -0.034   5.226   7.281  0.2572  0.4766 -0.0839
   55CHL1    C7 4007   0.031   5.303   7.472 -0.0153 -0.7411  0.5535
   55CHL1   H7A 4008  -0.074   5.282   7.500 -1.0800 -0.2203 -2.7553
   55CHL1   H7B 4009   0.086   5.213   7.507  0.7201  0.1232  1.6444
   55CHL1    C8 4010   0.077   5.430   7.542 -0.9293 -0.1514 -0.2223
   55CHL1    H8 4011  -0.005   5.503   7.521  0.3099  0.7460 -2.0559
   55CHL1   C14 4012   0.104   5.406   7.688 -0.7230 -0.3822  0.3760
   55CHL1   H14 4013   0.189   5.337   7.706 -0.9494  0.1799  3.8606
   55CHL1   C15 4014  -0.010   5.351   7.771  0.6079  0.1202  0.1286
   55CHL1  H15A 4015  -0.104   5.402   7.742  1.0143  0.1826 -1.1188
   55CHL1  H15B 4016  -0.028   5.242   7.767 -1.6258  0.5079 -1.2024
   55CHL1   C16 4017   0.029   5.394   7.914  0.3070 -0.0552  0.2836
   55CHL1  H16A 4018  -0.061   5.441   7.959  0.0586  0.6100 -0.8821
   55CHL1  H16B 4019   0.049   5.309   7.982 -1.5259 -0.3567  0.4940
   55CHL1   C17 4020   0.154   5.486   7.901 -0.3877 -0.2104 -0.2320
   55CHL1   H17 4021   0.240   5.416   7.902 -0.0114  0.1633  4.2475
   55CHL1   C13 4022   0.148   5.533   7.760  0.3658 -0.1603 -0.4623
   55CHL1   C18 4023   0.046   5.645   7.753  0.0352 -0.2891  0.3484
   55CHL1  H18A 4024   0.101   5.738   7.783  2.5357 -1.8373  0.7562
   55CHL1  H18B 4025   0.016   5.669   7.649 -3.0754 -1.2189  0.9903
   55CHL1  H18C 4026  -0.040   5.620   7.819 -1.0816  0.5426 -0.7787
   55CHL1   C12 4027   0.280   5.576   7.693  0.0558  0.6627  0.0363
   55CHL1  H12A 4028   0.307   5.669   7.748 -1.6102  0.1805  1.7588
   55CHL1  H12B 4029   0.357   5.499   7.713 -1.1979 -0.0278  2.3494
   55CHL1   C11 4030   0.268   5.604   7.548 -0.0491 -0.3616  0.0924
   55CHL1  H11A 4031   0.208   5.695   7.528 -1.1277 -0.9679  0.5140
   55CHL1  H11B 4032   0.369   5.622   7.507 -0.4464  0.7361 -0.4148
   55CHL1    C9 4033   0.207   5.485   7.473 -0.2660 -0.6485  0.1692
   55CHL1    H9 4034   0.278   5.401   7.482 -0.4862 -1.3899 -3.8696
   55CHL1   C10 4035   0.178   5.507   7.320  0.1663  0.3827 -0.7747
   55CHL1   C19 4036   0.097   5.644   7.306 -0.4940 -0.6134 -0.1499
   55CHL1  H19A 4037   0.057   5.645   7.202  1.6072  1.9285 -1.0052
   55CHL1  H19B 4038   0.012   5.645   7.377  1.1348  0.2833  1.8266
   55CHL1  H19C 4039   0.165   5.731   7.319 -0.8274 -0.0604 -1.9331
   55CHL1    C1 4040   0.314   5.509   7.243  0.0359 -0.7027  0.3730
   55CHL1   H1A 4041   0.363   5.595   7.295 -0.0556 -0.1406 -0.4461
   55CHL1   H1B 4042   0.383   5.425   7.263 -0.5530 -1.1889  0.3508
   55CHL1    C2 4043   0.305   5.525   7.090 -0.0989  0.4365  0.4710
   55CHL1   H2A 4044   0.407   5.520   7.045 -0.5447 -0.1484 -0.5035
   55CHL1   H2B 4045   0.266   5.625   7.059  0.9857  0.6598 -0.2219
   55CHL1   C20 4046   0.188   5.587   8.016 -0.2931  0.1824 -0.5980
   55CHL1   H20 4047   0.226   5.681   7.970  1.4004 -1.4891 -2.7130
   55CHL1   C21 4048   0.309   5.517   8.091  0.2715  0.7017  1.4170
   55CHL1  H21A 4049   0.365   5.578   8.165  1.0959  3.7495 -1.5597
   55CHL1  H21B 4050   0.394   5.477   8.031 -0.0436  0.2109  1.2934
   55CHL1  H21C 4051   0.270   5.429   8.145  2.0506  0.6881  2.7356
   55CHL1   C22 4052   0.070   5.614   8.113 -0.4319 -0.6535  0.3427
   55CHL1  H22A 4053  -0.011   5.647   8.044 -0.8955 -0.3855  1.0039
   55CHL1  H22B 4054   0.044   5.530   8.181 -1.4639 -1.6391 -1.2359
   55CHL1   C23 4055   0.097   5.737   8.196  0.6862  0.0595 -0.8256
   55CHL1  H23A 4056   0.197   5.732   8.244  0.3010  0.7838  0.0624
   55CHL1  H23B 4057   0.102   5.823   8.125  1.4888  0.3159 -0.4626
   55CHL1   C24 4058  -0.012   5.757   8.306  0.5076  0.0219 -0.7506
   55CHL1  H24A 4059  -0.002   5.853   8.361 -0.9024 -1.0993  1.5539
   55CHL1  H24B 4060  -0.106   5.768   8.247  1.3924 -1.1524 -2.4195
   55CHL1   C25 4061  -0.037   5.646   8.408  0.6082  0.3852  0.2972
   55CHL1   H25 4062  -0.055   5.549   8.357 -3.1873  0.7552  0.8490
   55CHL1   C26 4063   0.093   5.638   8.488  0.6096 -0.0564  0.8481
   55CHL1  H26A 4064   0.080   5.543   8.543  0.9928 -0.1888  0.7158
   55CHL1  H26B 4065   0.189   5.622   8.435  0.3275 -0.6193  0.4953
   55CHL1  H26C 4066   0.108   5.718   8.563  2.0807  1.3431 -0.8920
   55CHL1   C27 4067  -0.156   5.670   8.499 -0.6039  0.6079  0.2595
   55CHL1  H27A 4068  -0.142   5.773   8.539  0.4887 -0.3276  2.3514
   55CHL1  H27B 4069  -0.258   5.673   8.453  0.1284 -2.4997 -1.7105
   55CHL1  H27C 4070  -0.156   5.598   8.583 -2.1175 -0.1092 -0.3271
   56CHL1    C3 4071   6.730   3.537   6.978 -0.9717  0.0817  0.4129
   56CHL1    H3 4072   6.650   3.464   6.998 -1.6108  0.3760 -1.0147
   56CHL1    O3 4073   6.735   3.552   6.839  0.3087 -0.5517 -0.2085
   56CHL1   H3' 4074   6.767   3.641   6.826 -1.9998  0.3342 -0.1929
   56CHL1    C4 4075   6.713   3.668   7.043  0.5058 -0.2077 -0.0035
   56CHL1   H4A 4076   6.796   3.731   7.004  0.5043 -0.0341  0.2764
   56CHL1   H4B 4077   6.618   3.710   7.004 -0.0044 -1.9091 -0.6453
   56CHL1    C5 4078   6.726   3.667   7.195  0.6033  0.1913 -0.4195
   56CHL1    C6 4079   6.634   3.733   7.269  0.3542 -0.0085  0.6530
   56CHL1    H6 4080   6.561   3.793   7.212 -0.5858 -0.4226  1.3981
   56CHL1    C7 4081   6.634   3.723   7.415  0.0279  0.4653  0.0436
   56CHL1   H7A 4082   6.606   3.819   7.462  0.3755  1.1871 -1.2083
   56CHL1   H7B 4083   6.558   3.646   7.441  2.4256 -1.2581  2.2397
   56CHL1    C8 4084   6.758   3.675   7.480 -0.6770 -0.0938 -0.3332
   56CHL1    H8 4085   6.824   3.764   7.478 -0.8432  0.1194  2.1406
   56CHL1   C14 4086   6.728   3.631   7.626 -0.6029 -0.0362  0.4269
   56CHL1   H14 4087   6.675   3.534   7.611 -1.1634  0.5647 -1.6840
   56CHL1   C15 4088   6.648   3.715   7.720  0.0759 -0.5189 -0.3813
   56CHL1  H15A 4089   6.698   3.814   7.733 -0.5818 -0.4914  2.2575
   56CHL1  H15B 4090   6.543   3.718   7.686 -0.5262 -0.3901  1.4375
   56CHL1   C16 4091   6.675   3.641   7.855 -1.7081  0.3096  0.2329
   56CHL1  H16A 4092   6.692   3.722   7.929 -0.2388  0.0917  0.1405
   56CHL1  H16B 4093   6.592   3.573   7.885  0.2999 -1.5621  1.7050
   56CHL1   C17 4094   6.808   3.554   7.828  0.4892 -0.3047 -0.1829
   56CHL1   H17 4095   6.772   3.449   7.821 -1.1088  0.2704 -0.9877
   56CHL1   C13 4096   6.861   3.594   7.696 -0.3799  0.7115  0.2357
   56CHL1   C18 4097   6.958   3.716   7.709  0.1563 -0.2779  0.4742
   56CHL1  H18A 4098   6.906   3.803   7.754 -0.8673 -0.8027  0.3172
   56CHL1  H18B 4099   7.044   3.701   7.778  0.7879 -1.0896 -0.4707
   56CHL1  H18C 4100   6.988   3.758   7.610  2.8217  1.2214  1.8493
   56CHL1   C12 4101   6.927   3.476   7.621  0.1517 -0.7835  0.9358
   56CHL1  H12A 4102   7.024   3.438   7.659  0.1297 -1.7874  0.0125
   56CHL1  H12B 4103   6.856   3.390   7.617 -3.9169  2.2909  2.7890
   56CHL1   C11 4104   6.960   3.513   7.474 -0.2318 -0.2296  0.2216
   56CHL1  H11A 4105   7.034   3.594   7.485  1.9143 -2.3555  1.8216
   56CHL1  H11B 4106   7.011   3.424   7.429 -0.1810 -0.5968  1.0076
   56CHL1    C9 4107   6.827   3.556   7.404  0.0998 -0.1093 -0.3804
   56CHL1    H9 4108   6.761   3.468   7.420  0.7645 -0.4325  0.6400
   56CHL1   C10 4109   6.842   3.589   7.256  1.1726  0.0706 -0.1232
   56CHL1   C19 4110   6.975   3.670   7.239 -0.2193  0.8448  0.7451
   56CHL1  H19A 4111   7.071   3.622   7.266 -0.5143  0.8153  1.7725
   56CHL1  H19B 4112   6.985   3.691   7.131  2.2316  0.7254  0.9137
   56CHL1  H19C 4113   6.965   3.772   7.281 -0.9497  1.1189 -0.0834
   56CHL1    C1 4114   6.852   3.457   7.180  0.3111 -0.1784  0.0196
   56CHL1   H1A 4115   6.934   3.394   7.221 -0.3748  1.6579  4.3940
   56CHL1   H1B 4116   6.770   3.384   7.193  1.1541 -1.4931 -1.7017
   56CHL1    C2 4117   6.867   3.471   7.024 -0.1711  0.1197  0.3600
   56CHL1   H2A 4118   6.897   3.373   6.980  0.6214 -0.3720  1.9329
   56CHL1   H2B 4119   6.946   3.545   7.000  0.5474 -0.6963  0.1637
   56CHL1   C20 4120   6.893   3.536   7.956 -0.2921 -1.0173 -0.4284
   56CHL1   H20 4121   6.950   3.630   7.973 -2.2748  0.0733  0.4377
   56CHL1   C21 4122   6.997   3.427   7.945 -0.3768 -0.0227  0.5999
   56CHL1  H21A 4123   6.952   3.329   7.917 -0.0893 -0.2996  1.0872
   56CHL1  H21B 4124   7.064   3.417   8.033 -0.9011 -5.1447  0.5975
   56CHL1  H21C 4125   7.073   3.444   7.866 -0.1926 -1.2224  0.4970
   56CHL1   C22 4126   6.813   3.507   8.085  0.0843  0.2167  0.3899
   56CHL1  H22A 4127   6.708   3.542   8.085 -0.6211 -1.8057  0.7022
   56CHL1  H22B 4128   6.796   3.397   8.096 -1.8037  0.6838  2.3938
   56CHL1   C23 4129   6.881   3.554   8.209 -0.3290 -0.0877 -0.6710
   56CHL1  H23A 4130   6.970   3.489   8.219 -2.6663 -3.1739  0.8201
   56CHL1  H23B 4131   6.912   3.659   8.188  1.1847 -0.5850 -1.0252
   56CHL1   C24 4132   6.786   3.552   8.330 -0.2392  0.3486 -0.7314
   56CHL1  H24A 4133   6.721   3.641   8.322  1.0645  1.4800  0.9997
   56CHL1  H24B 4134   6.726   3.460   8.314 -0.2023  0.2919 -0.5451
   56CHL1   C25 4135   6.864   3.554   8.465 -0.3317  0.0301  0.6628
   56CHL1   H25 4136   6.910   3.453   8.464 -1.6297 -0.5871  1.3319
   56CHL1   C26 4137   6.974   3.662   8.459 -0.7054  0.2764  0.4751
   56CHL1  H26A 4138   7.041   3.659   8.548  0.2732 -0.3007 -0.2822
   56CHL1  H26B 4139   6.925   3.761   8.456 -0.1947  0.5106  0.0073
   56CHL1  H26C 4140   7.041   3.654   8.371  0.8836  0.6917  1.6206
   56CHL1   C27 4141   6.775   3.568   8.584 -0.7403 -0.6128  0.9717
   56CHL1  H27A 4142   6.687   3.502   8.569 -1.3474 -0.3763  3.2747
   56CHL1  H27B 4143   6.825   3.530   8.676  0.5878 -0.5037  0.3125
   56CHL1  H27C 4144   6.747   3.675   8.592 -1.5682 -0.6943 -0.7587
   57SAPC     N 4145   5.689   0.172  10.871  0.4312  0.0248  0.5282
   57SAPC   C12 4146   5.748   0.298  10.808 -0.0581 -0.7191  0.4685
   57SAPC  H12A 4147   5.856   0.293  10.818 -0.1059 -0.0591  1.3496
   57SAPC  H12B 4148   5.718   0.390  10.856  0.9635 -0.2958  0.3137
   57SAPC   C13 4149   5.544   0.176  10.866 -0.6654 -0.3033 -0.9443
   57SAPC  H13A 4150   5.495   0.098  10.924  0.1046 -0.6656 -0.7767
   57SAPC  H13B 4151   5.513   0.267  10.914  0.9680 -0.5459  0.5917
   57SAPC  H13C 4152   5.516   0.190  10.763 -1.2606  0.0936 -0.7302
   57SAPC   C14 4153   5.738   0.047  10.807 -0.1754 -0.1003 -0.1600
   57SAPC  H14A 4154   5.706   0.045  10.705  0.3906  1.0258 -0.3705
   57SAPC  H14B 4155   5.846   0.044  10.813 -0.1498  0.1019 -0.5115
   57SAPC  H14C 4156   5.702  -0.041  10.858  1.2443 -0.8244 -0.3705
   57SAPC   C15 4157   5.717   0.172  11.015 -0.0211 -0.3664 -0.2976
   57SAPC  H15A 4158   5.680   0.081  11.061  0.9653 -0.6351 -0.0287
   57SAPC  H15B 4159   5.823   0.174  11.037  0.3216 -1.5393 -1.7851
   57SAPC  H15C 4160   5.663   0.246  11.071 -0.3766 -1.7942  1.2886
   57SAPC   C11 4161   5.694   0.331  10.663  0.0130  0.5345 -0.0180
   57SAPC  H11A 4162   5.688   0.233  10.611  0.3019  0.6117 -0.1959
   57SAPC  H11B 4163   5.769   0.399  10.619  2.3091  1.6977  5.2522
   57SAPC     P 4164   5.547   0.538  10.702 -0.1166 -0.0238 -0.3730
   57SAPC   O13 4165   5.409   0.574  10.729 -0.6002 -0.0473 -0.3055
   57SAPC   O14 4166   5.632   0.566  10.815  0.7989 -1.0096 -0.1265
   57SAPC   O12 4167   5.565   0.389  10.666  0.8810 -0.2758  0.1036
   57SAPC   O11 4168   5.599   0.617  10.573  0.6069  0.3107  0.2081
   57SAPC    C1 4169   5.542   0.563  10.448 -0.7943  1.0458  0.2849
   57SAPC    HA 4170   5.595   0.473  10.412  0.2864  0.5626  2.9513
   57SAPC    HB 4171   5.432   0.550  10.457 -0.9647  0.7093 -2.0354
   57SAPC    C2 4172   5.556   0.662  10.323 -0.0465  0.0521  0.5741
   57SAPC    HS 4173   5.665   0.656  10.303 -0.0064 -0.9033  1.0918
   57SAPC   O21 4174   5.508   0.786  10.367  0.1174  0.0968  0.2837
   57SAPC   C21 4175   5.597   0.886  10.366  0.2453 -0.4699  0.1762
   57SAPC   O22 4176   5.708   0.885  10.311 -0.7569  0.0085  0.4894
   57SAPC   C22 4177   5.546   1.006  10.449 -0.0303  0.1373  0.3181
   57SAPC   H2R 4178   5.508   0.959  10.542 -1.3090  0.3047 -0.1124
   57SAPC   H2S 4179   5.636   1.068  10.471  0.0279  0.2761 -0.3054
   57SAPC    C3 4180   5.472   0.624  10.201  0.1441  0.4601  0.8301
   57SAPC    HX 4181   5.367   0.603  10.229  0.7911 -2.7024  0.9854
   57SAPC    HY 4182   5.520   0.529  10.169  0.6365  0.7111  0.8123
   57SAPC   O31 4183   5.482   0.715  10.089 -0.3902  0.5291  0.4018
   57SAPC   C31 4184   5.396   0.813  10.079 -0.0422  0.5389 -0.0816
   57SAPC   O32 4185   5.318   0.837  10.172 -0.0361  0.3340  0.4334
   57SAPC   C32 4186   5.411   0.893   9.951 -0.6882 -0.8635 -0.3757
   57SAPC   H2X 4187   5.366   0.826   9.875 -2.4864  0.4762 -0.5511
   57SAPC   H2Y 4188   5.520   0.903   9.932 -0.8301 -2.0178 -1.8688
   57SAPC   C23 4189   5.453   1.096  10.364  0.3675  1.0124 -0.0790
   57SAPC   H3R 4190   5.412   1.164  10.442  0.0321  2.1987 -1.2753
   57SAPC   H3S 4191   5.372   1.039  10.315  1.2249 -1.1632  0.9848
   57SAPC   C24 4192   5.515   1.196  10.270 -0.2178  0.8746 -0.0579
   57SAPC   H4R 4193   5.437   1.256  10.218 -0.9415 -1.4135 -1.6729
   57SAPC   H4S 4194   5.551   1.135  10.185  1.2412 -0.3135  1.3854
   57SAPC   C25 4195   5.611   1.297  10.331 -0.0332  0.2061 -0.5766
   57SAPC   H5R 4196   5.578   1.349  10.423  0.1447 -1.0920  0.2370
   57SAPC   C26 4197   5.736   1.333  10.283 -0.1795 -0.3554  0.4204
   57SAPC   H6R 4198   5.792   1.394  10.356 -1.1558  1.3571 -0.2366
   57SAPC   C27 4199   5.793   1.284  10.152 -0.2245 -0.6883 -0.1375
   57SAPC   H7R 4200   5.875   1.349  10.115  0.1046 -1.5191 -0.8826
   57SAPC   H7S 4201   5.709   1.294  10.081  0.2141  0.2826 -0.5250
   57SAPC   C28 4202   5.839   1.143  10.163  0.3884  0.2272 -0.0732
   57SAPC   H8R 4203   5.876   1.103  10.258  0.7833  0.6619 -0.0418
   57SAPC   C29 4204   5.850   1.055  10.060 -0.0236 -0.4698 -0.3610
   57SAPC   H9R 4205   5.887   0.952  10.074  0.0454 -0.5063 -0.8202
   57SAPC  C210 4206   5.805   1.086   9.919  0.0468  0.0818  0.0420
   57SAPC  H10R 4207   5.803   1.196   9.906 -0.3940 -0.2226 -2.6982
   57SAPC  H10S 4208   5.696   1.063   9.913  0.1336 -0.2622 -0.2008
   57SAPC  C211 4209   5.888   1.017   9.809 -0.1574 -0.6478 -0.1274
   57SAPC  H11R 4210   5.961   0.943   9.846 -0.8542 -1.8578 -1.1052
   57SAPC  C212 4211   5.869   1.048   9.675  0.7647  0.8023  0.0702
   57SAPC  H12R 4212   5.909   0.993   9.589 -0.6202  1.0367 -0.7270
   57SAPC  C213 4213   5.773   1.156   9.634  0.5768  0.2665  0.1213
   57SAPC  H13R 4214   5.830   1.240   9.590 -0.3297  0.5301 -0.5798
   57SAPC  H13S 4215   5.717   1.198   9.721 -2.9343 -0.3971 -1.7371
   57SAPC  C214 4216   5.673   1.104   9.530  0.0906 -0.3588 -0.0017
   57SAPC  H14R 4217   5.588   1.040   9.556 -0.1777  0.7047  1.8113
   57SAPC  C215 4218   5.684   1.144   9.401  0.1721  0.4785 -0.2627
   57SAPC  H15R 4219   5.608   1.118   9.326  1.1066  0.2860 -1.1397
   57SAPC  C216 4220   5.789   1.240   9.350  0.1550 -0.0571  0.1389
   57SAPC  H16R 4221   5.889   1.191   9.349  0.6599  0.9748 -1.7271
   57SAPC  H16S 4222   5.797   1.335   9.407  0.3500 -0.9890  1.6724
   57SAPC  C217 4223   5.752   1.282   9.205 -0.1666  0.6291 -0.2920
   57SAPC  H17R 4224   5.820   1.368   9.185 -0.6420  1.6185  2.1281
   57SAPC  H17S 4225   5.648   1.319   9.211 -1.1055 -2.2266  2.9746
   57SAPC  C218 4226   5.771   1.174   9.087 -0.0822  0.3943  0.1105
   57SAPC  H18R 4227   5.802   1.072   9.118 -1.1468 -0.4921 -1.6548
   57SAPC  H18S 4228   5.855   1.212   9.026  0.6340 -0.5324  0.4946
   57SAPC  C219 4229   5.644   1.165   8.999 -0.1443 -0.0051  0.5374
   57SAPC  H19R 4230   5.600   1.267   8.989 -0.7525 -0.2398  0.7835
   57SAPC  H19S 4231   5.566   1.112   9.059 -3.1785  0.7851 -2.5392
   57SAPC  C220 4232   5.659   1.101   8.863 -0.0376 -0.1698 -0.1694
   57SAPC  H20R 4233   5.717   1.008   8.879  0.2849  0.5683  3.4035
   57SAPC  H20S 4234   5.725   1.164   8.799 -1.3658 -0.2744 -1.6569
   57SAPC  H20T 4235   5.565   1.074   8.812  0.5631 -0.5519 -1.0886
   57SAPC   C33 4236   5.361   1.036   9.951  0.5757 -0.2775  0.2586
   57SAPC   H3X 4237   5.399   1.098  10.035 -0.6070 -1.1654  1.4658
   57SAPC   H3Y 4238   5.253   1.031   9.977  1.3727 -0.2426  3.7215
   57SAPC   C34 4239   5.370   1.090   9.808  0.1757 -0.2567 -0.0507
   57SAPC   H4X 4240   5.337   1.011   9.737 -0.2633 -0.9663  0.9161
   57SAPC   H4Y 4241   5.475   1.118   9.785 -0.1785  0.9921 -0.1927
   57SAPC   C35 4242   5.292   1.216   9.771  0.0726 -0.2477  0.6888
   57SAPC   H5X 4243   5.328   1.300   9.834  1.9794  0.4817 -1.2937
   57SAPC   H5Y 4244   5.185   1.193   9.791 -0.4592  0.4213 -1.2387
   57SAPC   C36 4245   5.315   1.252   9.622  0.5761  0.3893 -0.6910
   57SAPC   H6X 4246   5.295   1.160   9.563  0.4588 -0.3893  0.5432
   57SAPC   H6Y 4247   5.422   1.272   9.599 -0.2727  1.1233 -4.3438
   57SAPC   C37 4248   5.230   1.360   9.557  0.0750 -0.8668  0.0927
   57SAPC   H7X 4249   5.268   1.460   9.587  0.3972 -0.5605 -1.2749
   57SAPC   H7Y 4250   5.132   1.351   9.608  1.8013 -1.8844  3.3537
   57SAPC   C38 4251   5.234   1.348   9.409 -0.7376  1.0043 -0.1710
   57SAPC   H8X 4252   5.220   1.241   9.383 -0.8376  0.4596  2.0342
   57SAPC   H8Y 4253   5.340   1.367   9.381 -0.3299  0.7866  1.2071
   57SAPC   C39 4254   5.140   1.443   9.332  0.0794  0.2866  0.2407
   57SAPC   H9X 4255   5.148   1.541   9.383  0.7802  0.8518 -0.9614
   57SAPC   H9Y 4256   5.034   1.411   9.339  0.3176 -0.3889  1.0373
   57SAPC  C310 4257   5.185   1.474   9.183 -0.4544  0.4441  0.0429
   57SAPC  H10X 4258   5.291   1.504   9.182 -0.3343  0.0623 -2.5765
   57SAPC  H10Y 4259   5.121   1.554   9.139  0.3051  1.5862  0.9980
   57SAPC  C311 4260   5.169   1.363   9.076  0.3594 -0.1484  0.1377
   57SAPC  H11X 4261   5.062   1.340   9.054  0.3786 -0.6566  0.5797
   57SAPC  H11Y 4262   5.218   1.272   9.117 -1.8935 -0.7580  1.5559
   57SAPC  C312 4263   5.232   1.398   8.946 -0.0028 -0.0656  0.0832
   57SAPC  H12X 4264   5.343   1.405   8.953  0.0805 -0.0487 -1.0962
   57SAPC  H12Y 4265   5.203   1.500   8.911 -1.4001 -0.1186  1.0893
   57SAPC  C313 4266   5.191   1.315   8.815 -0.4374  0.3236  0.7900
   57SAPC  H13X 4267   5.244   1.354   8.726 -1.6873  3.3202  1.3036
   57SAPC  H13Y 4268   5.082   1.333   8.815  0.2184  4.8477  1.4200
   57SAPC  C314 4269   5.208   1.162   8.829  0.0931  1.2397  0.2767
   57SAPC  H14X 4270   5.140   1.129   8.910 -1.6834  0.7659 -1.3706
   57SAPC  H14Y 4271   5.310   1.129   8.860  0.6814  0.7228 -2.1029
   57SAPC  C315 4272   5.157   1.089   8.703  0.3844  0.5756 -0.6252
   57SAPC  H15X 4273   5.202   1.137   8.613  1.0934 -0.2432 -0.7199
   57SAPC  H15Y 4274   5.046   1.079   8.697  0.5322 -1.1714 -0.7862
   57SAPC  C316 4275   5.200   0.942   8.710 -0.4004  0.2877  1.4326
   57SAPC  H16X 4276   5.172   0.897   8.807  1.5323 -0.4758  1.6701
   57SAPC  H16Y 4277   5.311   0.944   8.702 -0.3785 -0.8562  1.4054
   57SAPC  C317 4278   5.140   0.845   8.604  0.0777 -0.5114 -0.2160
   57SAPC  H17X 4279   5.161   0.897   8.508  0.5731  0.6064  0.4984
   57SAPC  H17Y 4280   5.030   0.843   8.619  0.4703  1.6487  3.8008
   57SAPC  C318 4281   5.199   0.713   8.599 -1.5273  0.6335 -0.0109
   57SAPC  H18X 4282   5.201   0.651   8.691  3.0735  1.1382  0.3632
   57SAPC  H18Y 4283   5.309   0.709   8.581 -1.4261  2.4793  0.1006
   57SAPC  H18Z 4284   5.154   0.655   8.515  1.3808 -2.4878  0.4896
   58SAPC     N 4285   1.282   5.107  11.170  0.0946  0.1000  0.3081
   58SAPC   C12 4286   1.331   5.104  11.024  0.2264  0.0533  0.2237
   58SAPC  H12A 4287   1.430   5.062  11.023 -0.5572 -1.8049 -1.9995
   58SAPC  H12B 4288   1.327   5.203  10.982  0.9395 -1.0234 -2.4327
   58SAPC   C13 4289   1.155   5.182  11.200 -0.5529  0.0043 -0.4392
   58SAPC  H13A 4290   1.120   5.163  11.300 -0.7016  3.4712  0.2248
   58SAPC  H13B 4291   1.175   5.286  11.176  0.9946  0.5674  3.0349
   58SAPC  H13C 4292   1.076   5.156  11.131  0.0531 -0.7998 -0.8392
   58SAPC   C14 4293   1.279   4.966  11.212  0.1065 -0.0243 -0.0115
   58SAPC  H14A 4294   1.203   4.911  11.160  0.4500 -0.1760 -0.3519
   58SAPC  H14B 4295   1.378   4.922  11.207 -0.0531 -0.5217  1.0171
   58SAPC  H14C 4296   1.261   4.962  11.319 -1.6478 -0.9073 -0.3260
   58SAPC   C15 4297   1.399   5.176  11.242  0.0284  0.2530  0.1407
   58SAPC  H15A 4298   1.397   5.277  11.204  0.3906 -0.0429 -0.6748
   58SAPC  H15B 4299   1.401   5.169  11.349  3.9263 -3.3959 -0.0282
   58SAPC  H15C 4300   1.492   5.132  11.209 -0.3082 -0.2933 -0.1011
   58SAPC   C11 4301   1.240   5.018  10.929 -0.6787 -0.1267  0.3780
   58SAPC  H11A 4302   1.135   5.051  10.947 -0.5323  0.2749  0.5121
   58SAPC  H11B 4303   1.259   4.911  10.952  1.0458  0.2742  0.8969
   58SAPC     P 4304   1.267   5.204  10.742  0.1826 -0.4611 -0.0563
   58SAPC   O13 4305   1.145   5.263  10.795 -0.0796 -0.3033 -0.0270
   58SAPC   O14 4306   1.384   5.286  10.770 -0.1398  0.7450  0.3208
   58SAPC   O12 4307   1.284   5.054  10.796  0.2029 -0.3091  0.0013
   58SAPC   O11 4308   1.260   5.192  10.582  0.2036 -0.2936  0.1636
   58SAPC    C1 4309   1.276   5.070  10.517 -0.1793  0.2680  0.7572
   58SAPC    HA 4310   1.379   5.029  10.523 -0.0776  0.1892 -1.3564
   58SAPC    HB 4311   1.210   4.996  10.568  0.8787 -1.5918 -0.5291
   58SAPC    C2 4312   1.220   5.088  10.370 -0.1857 -0.0931 -0.0460
   58SAPC    HS 4313   1.212   4.993  10.313  1.2872 -1.1796  1.4970
   58SAPC   O21 4314   1.303   5.179  10.298 -0.3743  0.2996 -0.3574
   58SAPC   C21 4315   1.429   5.132  10.275  0.8893 -0.6423 -0.0492
   58SAPC   O22 4316   1.475   5.024  10.304 -0.1102 -0.4716  0.3075
   58SAPC   C22 4317   1.508   5.245  10.207  0.2139 -0.1060 -0.2287
   58SAPC   H2R 4318   1.449   5.338  10.224 -1.1306 -0.8627 -0.6249
   58SAPC   H2S 4319   1.602   5.232  10.264  0.3307 -4.4798 -1.1829
   58SAPC    C3 4320   1.076   5.151  10.377 -0.5730 -0.5295 -0.3384
   58SAPC    HX 4321   1.088   5.260  10.391 -0.1079 -0.6419  0.1716
   58SAPC    HY 4322   1.030   5.097  10.463  0.9512 -1.3994 -0.0409
   58SAPC   O31 4323   1.012   5.135  10.251  0.3596 -0.7283  0.4309
   58SAPC   C31 4324   0.892   5.088  10.247 -0.3011  0.2336  0.3950
   58SAPC   O32 4325   0.829   5.050  10.343  0.3603  0.2507 -0.3340
   58SAPC   C32 4326   0.840   5.111  10.108  0.0368  0.5915 -0.1824
   58SAPC   H2X 4327   0.916   5.150  10.037  0.2360  0.9218  0.2118
   58SAPC   H2Y 4328   0.767   5.193  10.125 -1.8919 -0.8335 -1.4173
   58SAPC   C23 4329   1.524   5.217  10.055 -0.1808  0.4826  0.2256
   58SAPC   H3R 4330   1.421   5.228  10.014 -0.1800 -0.6508 -0.0786
   58SAPC   H3S 4331   1.570   5.117  10.040 -1.1970  0.1897 -0.9728
   58SAPC   C24 4332   1.619   5.328  10.002 -0.5179 -0.7105  0.9841
   58SAPC   H4R 4333   1.716   5.318  10.056  1.3848  0.2580 -2.1157
   58SAPC   H4S 4334   1.578   5.426  10.036 -0.2214  0.7902 -2.7690
   58SAPC   C25 4335   1.635   5.321   9.854  0.2820  0.1629  0.4379
   58SAPC   H5R 4336   1.633   5.214   9.828  0.9868  0.0574  0.8033
   58SAPC   C26 4337   1.629   5.418   9.758  0.2082  0.0343  0.1426
   58SAPC   H6R 4338   1.637   5.402   9.649 -3.6949 -1.5449  0.0114
   58SAPC   C27 4339   1.604   5.565   9.795  0.9013 -0.3771  0.4893
   58SAPC   H7R 4340   1.695   5.602   9.846  1.2513 -1.0014  0.3152
   58SAPC   H7S 4341   1.529   5.577   9.877  0.0000 -0.2816 -0.3347
   58SAPC   C28 4342   1.562   5.662   9.683 -0.2788 -1.0903  0.9921
   58SAPC   H8R 4343   1.465   5.708   9.705  0.9559  2.5818 -0.7407
   58SAPC   C29 4344   1.625   5.693   9.567  0.2030 -0.7395  0.3498
   58SAPC   H9R 4345   1.570   5.775   9.517  0.4707  0.0321  1.3001
   58SAPC  C210 4346   1.759   5.647   9.509 -0.0639  0.5585 -0.1295
   58SAPC  H10R 4347   1.759   5.536   9.504  0.6241  0.5851 -0.9236
   58SAPC  H10S 4348   1.840   5.684   9.575  1.1446 -2.7265  0.3295
   58SAPC  C211 4349   1.787   5.705   9.371 -0.1403  0.8358 -0.9519
   58SAPC  H11R 4350   1.864   5.783   9.370  1.2213 -0.4773 -1.0493
   58SAPC  C212 4351   1.738   5.666   9.250  0.3342  0.9811 -0.2435
   58SAPC  H12R 4352   1.780   5.717   9.162 -2.8884  2.1621 -1.1490
   58SAPC  C213 4353   1.641   5.552   9.229 -0.2559 -0.4631 -0.3679
   58SAPC  H13R 4354   1.646   5.474   9.308  0.0629  1.7642  1.8975
   58SAPC  H13S 4355   1.665   5.504   9.132  1.7850 -1.2135  0.4835
   58SAPC  C214 4356   1.501   5.608   9.224  0.0008 -0.0381 -0.0516
   58SAPC  H14R 4357   1.460   5.653   9.316 -1.1862 -4.2172  1.5928
   58SAPC  C215 4358   1.414   5.591   9.123  0.1661  0.9692  0.4578
   58SAPC  H15R 4359   1.320   5.646   9.134 -1.4618 -1.6736  0.0626
   58SAPC  C216 4360   1.432   5.519   8.988 -0.4587 -0.2225 -0.1167
   58SAPC  H16R 4361   1.346   5.450   8.987 -1.0478  0.4784  1.3233
   58SAPC  H16S 4362   1.521   5.453   8.979  0.3146  1.1387 -3.4084
   58SAPC  C217 4363   1.423   5.606   8.859  0.1606 -0.1431  0.1424
   58SAPC  H17R 4364   1.332   5.669   8.849 -0.2486 -0.8045 -0.3618
   58SAPC  H17S 4365   1.405   5.538   8.773  0.9241  2.5250 -2.2051
   58SAPC  C218 4366   1.549   5.705   8.842  0.6783  0.1185 -0.9647
   58SAPC  H18R 4367   1.645   5.655   8.868  1.9975  2.4594 -1.2067
   58SAPC  H18S 4368   1.540   5.795   8.907 -0.8277 -0.3981 -0.4154
   58SAPC  C219 4369   1.567   5.751   8.701  0.3753 -0.2992 -0.5213
   58SAPC  H19R 4370   1.495   5.705   8.630  2.1439 -1.6811 -1.4695
   58SAPC  H19S 4371   1.671   5.720   8.676  0.2909 -0.5034 -0.6140
   58SAPC  C220 4372   1.549   5.903   8.687 -0.5455 -0.4159  0.6037
   58SAPC  H20R 4373   1.452   5.947   8.718 -0.5669  1.4784 -1.9841
   58SAPC  H20S 4374   1.552   5.927   8.579 -4.3304 -2.5422 -0.0794
   58SAPC  H20T 4375   1.628   5.957   8.744  0.1609 -0.0956 -0.6593
   58SAPC   C33 4376   0.753   4.998  10.047  0.2139  0.2954 -0.4169
   58SAPC   H3X 4377   0.672   4.959  10.113 -0.2060  1.5848 -0.1445
   58SAPC   H3Y 4378   0.828   4.917  10.036 -0.4500 -0.3654 -0.1253
   58SAPC   C34 4379   0.691   5.043   9.913 -0.4066 -0.1574  0.0525
   58SAPC   H4X 4380   0.611   5.119   9.921 -0.4633 -0.2923  0.8530
   58SAPC   H4Y 4381   0.655   4.947   9.868  0.4230  0.4038 -1.8600
   58SAPC   C35 4382   0.804   5.074   9.812  0.5397  0.7002 -0.7813
   58SAPC   H5X 4383   0.881   4.995   9.827 -0.9371 -0.7607 -0.7195
   58SAPC   H5Y 4384   0.834   5.176   9.843  0.8308  0.3240  0.1839
   58SAPC   C36 4385   0.738   5.079   9.676 -0.8862 -0.7094 -0.2509
   58SAPC   H6X 4386   0.657   5.154   9.674 -1.1114 -0.8601  1.6563
   58SAPC   H6Y 4387   0.685   4.984   9.652 -1.3023 -0.5524  0.0296
   58SAPC   C37 4388   0.832   5.119   9.557  0.6435 -0.4192 -0.0824
   58SAPC   H7X 4389   0.909   5.039   9.548  0.5701 -0.7051  1.7071
   58SAPC   H7Y 4390   0.880   5.215   9.585 -1.9795  0.6090  1.0386
   58SAPC   C38 4391   0.759   5.151   9.432 -0.4255  0.0705  0.4484
   58SAPC   H8X 4392   0.666   5.207   9.454 -0.0329  0.2137  1.7755
   58SAPC   H8Y 4393   0.734   5.052   9.390  0.6221 -0.4895  1.1248
   58SAPC   C39 4394   0.850   5.227   9.327  0.3093  0.1407 -0.1075
   58SAPC   H9X 4395   0.948   5.175   9.325 -0.1128 -0.6577 -2.8128
   58SAPC   H9Y 4396   0.871   5.329   9.364  0.9407 -0.4160  1.0804
   58SAPC  C310 4397   0.783   5.241   9.180  0.4743  0.5155 -0.4437
   58SAPC  H10X 4398   0.682   5.286   9.175  0.0110 -0.2156  1.8457
   58SAPC  H10Y 4399   0.767   5.135   9.152 -0.3263  0.5891 -0.2619
   58SAPC  C311 4400   0.884   5.302   9.078 -0.3074  0.4390 -0.6856
   58SAPC  H11X 4401   0.978   5.244   9.070 -1.4629 -1.3902 -1.3415
   58SAPC  H11Y 4402   0.907   5.403   9.117  0.8766 -0.9139  2.2232
   58SAPC  C312 4403   0.824   5.329   8.938  0.2343  0.2461  0.4496
   58SAPC  H12X 4404   0.732   5.392   8.943  0.7018  0.9241  0.6587
   58SAPC  H12Y 4405   0.791   5.241   8.879 -1.2531  0.9732  0.1517
   58SAPC  C313 4406   0.926   5.407   8.860 -0.9147 -0.3167  1.3910
   58SAPC  H13X 4407   1.013   5.338   8.867  0.1996  1.1535  2.4562
   58SAPC  H13Y 4408   0.956   5.508   8.895 -0.0924  0.6689 -2.0355
   58SAPC  C314 4409   0.897   5.422   8.707  0.0241 -1.1761  0.4557
   58SAPC  H14X 4410   0.833   5.512   8.694  1.1127 -0.4811 -0.2157
   58SAPC  H14Y 4411   0.864   5.334   8.647 -0.2069  0.9060 -2.5634
   58SAPC  C315 4412   1.022   5.443   8.618  0.0406 -0.5497  0.1395
   58SAPC  H15X 4413   1.078   5.347   8.622 -1.0163 -1.2069 -0.4264
   58SAPC  H15Y 4414   1.086   5.524   8.659  1.0634 -0.1411 -2.1961
   58SAPC  C316 4415   1.000   5.480   8.473  0.1605 -0.5274 -0.3134
   58SAPC  H16X 4416   0.936   5.570   8.459  0.0954 -0.7910 -1.8588
   58SAPC  H16Y 4417   0.947   5.405   8.410 -0.3159  0.9077 -1.6585
   58SAPC  C317 4418   1.139   5.513   8.404  0.4208  0.5437 -0.1359
   58SAPC  H17X 4419   1.201   5.422   8.390 -0.3288  0.0231 -0.1437
   58SAPC  H17Y 4420   1.193   5.579   8.476  1.6495 -0.5328 -0.0612
   58SAPC  C318 4421   1.112   5.580   8.276 -0.3198 -0.0611  0.4220
   58SAPC  H18X 4422   1.049   5.516   8.211 -0.5158  0.3053  0.2485
   58SAPC  H18Y 4423   1.210   5.597   8.226 -1.1895 -1.9614 -2.0516
   58SAPC  H18Z 4424   1.065   5.680   8.285 -1.3040 -0.3667 -1.1076
   59SAPC     N 4425   2.898   0.218  10.961  0.2813  0.0613 -0.2101
   59SAPC   C12 4426   2.962   0.319  11.058  0.7289 -0.0524 -0.0224
   59SAPC  H12A 4427   2.885   0.333  11.132  0.7390 -1.8402  0.3469
   59SAPC  H12B 4428   2.964   0.414  11.007  2.8359  0.7616  1.4790
   59SAPC   C13 4429   2.990   0.190  10.850  0.5247 -0.4753 -0.9650
   59SAPC  H13A 4430   2.986   0.257  10.766  0.5697 -0.4813 -0.9708
   59SAPC  H13B 4431   3.091   0.201  10.889 -0.0593 -0.3624  0.5759
   59SAPC  H13C 4432   2.963   0.091  10.817 -4.0019 -0.2171  1.5562
   59SAPC   C14 4433   2.865   0.096  11.039 -0.4997  0.1345 -0.1596
   59SAPC  H14A 4434   2.793   0.125  11.115 -0.1714  0.2455  0.1095
   59SAPC  H14B 4435   2.844   0.009  10.979 -0.8004 -0.4555  0.7752
   59SAPC  H14C 4436   2.955   0.069  11.092  0.6182  2.0912 -1.0229
   59SAPC   C15 4437   2.767   0.272  10.909  0.0799 -0.2678 -0.0571
   59SAPC  H15A 4438   2.769   0.369  10.860 -0.3829 -0.5697 -0.6775
   59SAPC  H15B 4439   2.729   0.204  10.835  1.6472 -1.5350  0.2744
   59SAPC  H15C 4440   2.703   0.294  10.994  0.3876 -0.6481  0.2736
   59SAPC   C11 4441   3.104   0.275  11.106  0.1650 -0.7928 -0.4371
   59SAPC  H11A 4442   3.111   0.164  11.104  2.4795 -0.6600 -0.3148
   59SAPC  H11B 4443   3.101   0.320  11.207  0.5035  0.2408 -0.8851
   59SAPC     P 4444   3.338   0.359  11.068 -0.2046 -0.2938  0.3315
   59SAPC   O13 4445   3.338   0.445  11.191 -0.1048 -0.4829  0.2892
   59SAPC   O14 4446   3.418   0.230  11.073 -0.6163  0.9002  0.3386
   59SAPC   O12 4447   3.191   0.331  11.019 -0.0940 -0.1149 -0.0967
   59SAPC   O11 4448   3.396   0.443  10.949 -0.4698 -0.3706 -0.5415
   59SAPC    C1 4449   3.327   0.548  10.889  0.1846 -1.1557  0.3121
   59SAPC    HA 4450   3.258   0.599  10.959 -0.0748 -1.6018  0.3876
   59SAPC    HB 4451   3.409   0.617  10.863 -1.7909  1.0640 -0.1811
   59SAPC    C2 4452   3.258   0.505  10.759  0.5662  0.6521  0.2238
   59SAPC    HS 4453   3.183   0.430  10.790 -0.5816  1.3851 -0.7483
   59SAPC   O21 4454   3.356   0.456  10.670  0.4065  0.1293  0.0443
   59SAPC   C21 4455   3.315   0.345  10.608  0.6635 -0.4183  0.4648
   59SAPC   O22 4456   3.208   0.293  10.630  0.4336  0.4373  0.1047
   59SAPC   C22 4457   3.411   0.306  10.496  0.8014 -0.1347 -0.0233
   59SAPC   H2R 4458   3.469   0.395  10.467  1.8081 -0.0587  2.1313
   59SAPC   H2S 4459   3.472   0.226  10.545  1.0184 -0.2807 -0.5240
   59SAPC    C3 4460   3.191   0.628  10.689  0.0731  0.0558 -0.0517
   59SAPC    HX 4461   3.259   0.710  10.660 -0.0535  0.1474 -0.0912
   59SAPC    HY 4462   3.132   0.676  10.770  3.0989  0.4716  1.9860
   59SAPC   O31 4463   3.128   0.580  10.567  0.1017  0.4197 -0.2310
   59SAPC   C31 4464   3.000   0.546  10.587 -0.7660 -0.0029  0.6907
   59SAPC   O32 4465   2.939   0.550  10.695 -0.0694  0.0231  0.3600
   59SAPC   C32 4466   2.946   0.491  10.456  0.2376 -0.0320 -0.6234
   59SAPC   H2X 4467   3.022   0.492  10.374 -1.7366  1.4144 -2.5076
   59SAPC   H2Y 4468   2.861   0.553  10.419 -0.9707 -1.2944 -0.0179
   59SAPC   C23 4469   3.328   0.259  10.373  0.3993 -0.4094 -0.6345
   59SAPC   H3R 4470   3.387   0.265  10.279 -0.6115 -1.2131 -1.3264
   59SAPC   H3S 4471   3.240   0.327  10.372  0.2257 -0.5638  1.4102
   59SAPC   C24 4472   3.294   0.111  10.360  0.0372  0.3722  0.3594
   59SAPC   H4R 4473   3.217   0.097  10.281 -0.1708 -1.4283  0.8649
   59SAPC   H4S 4474   3.247   0.085  10.457 -2.0979  2.7133  0.0164
   59SAPC   C25 4475   3.406   0.020  10.325  0.3545 -0.0212 -0.5211
   59SAPC   H5R 4476   3.469  -0.012  10.409 -0.4930  0.8492  0.4651
   59SAPC   C26 4477   3.446  -0.015  10.199 -0.0349 -0.2842 -0.3613
   59SAPC   H6R 4478   3.532  -0.083  10.189  0.1022 -0.2926  0.8120
   59SAPC   C27 4479   3.380   0.019  10.068  0.3636  0.6178  0.0478
   59SAPC   H7R 4480   3.438   0.106  10.031 -0.2232  1.0442  0.1294
   59SAPC   H7S 4481   3.277   0.061  10.074  1.0423  2.3533 -0.0905
   59SAPC   C28 4482   3.384  -0.096   9.970  0.2117  0.0441  0.2280
   59SAPC   H8R 4483   3.352  -0.190  10.018  1.5315  0.1256  1.3063
   59SAPC   C29 4484   3.430  -0.099   9.840  0.8620  0.2760 -0.6309
   59SAPC   H9R 4485   3.443  -0.195   9.787 -0.5049 -0.5174  0.4330
   59SAPC  C210 4486   3.477   0.021   9.765  0.2546  0.0446  0.2182
   59SAPC  H10R 4487   3.509   0.087   9.848 -1.7292  1.7791 -0.3372
   59SAPC  H10S 4488   3.395   0.078   9.715  0.6390  1.0171  0.6745
   59SAPC  C211 4489   3.587   0.007   9.668  0.0509 -0.5559  0.4057
   59SAPC  H11R 4490   3.685  -0.018   9.712 -0.3065 -4.2835 -0.7458
   59SAPC  C212 4491   3.583   0.006   9.533 -0.1806  0.8536  0.2494
   59SAPC  H12R 4492   3.674  -0.002   9.472  0.4346  0.2413  1.2147
   59SAPC  C213 4493   3.468   0.022   9.439  0.3431  0.0734 -0.0959
   59SAPC  H13R 4494   3.374   0.000   9.494  0.5943 -1.8544 -0.4095
   59SAPC  H13S 4495   3.465  -0.057   9.361  1.4918 -0.6596  0.6034
   59SAPC  C214 4496   3.458   0.163   9.391  0.1564 -1.0784  0.4142
   59SAPC  H14R 4497   3.485   0.230   9.474  2.8466  1.9319 -2.7322
   59SAPC  C215 4498   3.430   0.212   9.263 -0.3437 -0.5493  0.1487
   59SAPC  H15R 4499   3.422   0.320   9.247 -0.9381 -0.0499  3.4310
   59SAPC  C216 4500   3.394   0.130   9.144  0.1585 -0.9520 -0.4769
   59SAPC  H16R 4501   3.405   0.020   9.156 -1.2134 -1.0414  0.0783
   59SAPC  H16S 4502   3.454   0.167   9.058  0.9364  0.0240  0.4711
   59SAPC  C217 4503   3.250   0.185   9.117  0.3055 -0.3372 -0.1627
   59SAPC  H17R 4504   3.250   0.272   9.048  1.5252  0.7241  1.1508
   59SAPC  H17S 4505   3.192   0.200   9.211  4.0070  1.2225  1.9670
   59SAPC  C218 4506   3.173   0.076   9.034  0.1247  0.1112 -0.4654
   59SAPC  H18R 4507   3.073   0.121   9.018  1.0808  2.8880  0.9814
   59SAPC  H18S 4508   3.153  -0.019   9.088  1.3714  0.4375  0.6031
   59SAPC  C219 4509   3.251   0.040   8.905  0.3632  0.7445  0.0639
   59SAPC  H19R 4510   3.358   0.015   8.922  0.5838  1.4351 -0.3201
   59SAPC  H19S 4511   3.249   0.128   8.838 -1.1110  3.1390  3.1193
   59SAPC  C220 4512   3.180  -0.069   8.820  0.3378  0.1254 -0.3534
   59SAPC  H20R 4513   3.083  -0.031   8.781 -1.3876 -0.8480  2.7846
   59SAPC  H20S 4514   3.157  -0.148   8.896  0.9072  0.5343  0.2459
   59SAPC  H20T 4515   3.251  -0.104   8.743  1.9252  1.1080  0.6443
   59SAPC   C33 4516   2.878   0.355  10.479 -0.4400 -0.4224 -0.0276
   59SAPC   H3X 4517   2.813   0.374  10.567 -0.3825  0.1833 -0.1183
   59SAPC   H3Y 4518   2.956   0.278  10.498  1.2147  0.8812 -1.3643
   59SAPC   C34 4519   2.789   0.302  10.367  0.8283  0.0086  0.4599
   59SAPC   H4X 4520   2.708   0.378  10.356 -1.7091 -2.0588  3.9851
   59SAPC   H4Y 4521   2.729   0.210  10.387  2.8516 -1.7918 -1.4460
   59SAPC   C35 4522   2.854   0.279  10.232 -0.8773  0.4466  0.2093
   59SAPC   H5X 4523   2.917   0.187  10.238  3.0226  3.1238  2.3746
   59SAPC   H5Y 4524   2.915   0.366  10.199 -3.0333  1.8302 -0.2162
   59SAPC   C36 4525   2.769   0.266  10.111  0.6148 -0.0427  0.2089
   59SAPC   H6X 4526   2.714   0.363  10.104  0.8437  0.0310 -0.5735
   59SAPC   H6Y 4527   2.692   0.186  10.119  2.3251 -2.0417 -2.5168
   59SAPC   C37 4528   2.845   0.247   9.979 -1.0201  0.4935  0.1923
   59SAPC   H7X 4529   2.917   0.164   9.995 -0.4723  1.0742  0.7690
   59SAPC   H7Y 4530   2.908   0.338   9.968  2.1221 -1.9040 -2.6332
   59SAPC   C38 4531   2.755   0.241   9.859  0.3052  0.4655 -0.0675
   59SAPC   H8X 4532   2.690   0.330   9.847  0.3663  0.3770 -1.0803
   59SAPC   H8Y 4533   2.687   0.154   9.871  0.2061  0.7517  1.5282
   59SAPC   C39 4534   2.848   0.239   9.732  0.0790 -0.6782  0.1968
   59SAPC   H9X 4535   2.927   0.163   9.751 -0.8299 -1.4241  1.0894
   59SAPC   H9Y 4536   2.898   0.336   9.715  1.7124 -1.7372 -1.2118
   59SAPC  C310 4537   2.762   0.190   9.606 -0.5454  0.6250 -0.4222
   59SAPC  H10X 4538   2.679   0.264   9.602  1.4941  3.1901  2.2330
   59SAPC  H10Y 4539   2.726   0.092   9.645 -0.2818  0.5208 -0.4366
   59SAPC  C311 4540   2.846   0.182   9.481 -0.0641  0.7973  0.4262
   59SAPC  H11X 4541   2.939   0.123   9.494 -0.9062 -0.4068  1.0503
   59SAPC  H11Y 4542   2.882   0.285   9.460  0.2924  0.8757  1.3963
   59SAPC  C312 4543   2.763   0.143   9.362 -0.0198  0.4306  0.2046
   59SAPC  H12X 4544   2.809   0.203   9.281  0.1634  0.1950  0.1330
   59SAPC  H12Y 4545   2.654   0.153   9.384 -0.1260  0.2154 -0.2122
   59SAPC  C313 4546   2.782  -0.003   9.314 -0.3610  0.8000  0.0099
   59SAPC  H13X 4547   2.751  -0.070   9.396  0.7295 -1.2565 -1.2374
   59SAPC  H13Y 4548   2.886  -0.019   9.281 -0.1355  0.7908  0.7333
   59SAPC  C314 4549   2.692  -0.037   9.191 -0.0057 -0.4285 -0.1738
   59SAPC  H14X 4550   2.683   0.062   9.143 -0.6983  0.1535  1.1276
   59SAPC  H14Y 4551   2.595  -0.075   9.229  0.1256 -0.2003  0.4005
   59SAPC  C315 4552   2.744  -0.149   9.104  0.0830  0.1411  0.0908
   59SAPC  H15X 4553   2.825  -0.112   9.038  0.2872  1.4717  1.0645
   59SAPC  H15Y 4554   2.662  -0.182   9.037 -0.7468 -0.8863  1.5704
   59SAPC  C316 4555   2.788  -0.272   9.186 -0.2625  0.1428  0.1387
   59SAPC  H16X 4556   2.707  -0.305   9.254  1.3649 -2.2294  1.0097
   59SAPC  H16Y 4557   2.874  -0.248   9.253  2.2431 -2.0463 -2.1329
   59SAPC  C317 4558   2.827  -0.384   9.088 -0.1164  0.5097  0.2632
   59SAPC  H17X 4559   2.741  -0.432   9.036 -0.1020  1.5902 -0.7758
   59SAPC  H17Y 4560   2.859  -0.465   9.157 -0.7016 -0.2709 -0.3644
   59SAPC  C318 4561   2.932  -0.355   8.978  0.1862 -0.2227  0.2470
   59SAPC  H18X 4562   2.881  -0.292   8.903 -0.6385 -1.5435 -0.3238
   59SAPC  H18Y 4563   2.962  -0.446   8.922 -0.1712 -0.0509 -0.2292
   59SAPC  H18Z 4564   3.018  -0.301   9.023 -0.9233  0.0917  2.0745
   60SAPC     N 4565   4.391   4.916  11.077 -1.2121  0.4952  0.3695
   60SAPC   C12 4566   4.316   4.907  10.945 -0.1751  0.8612 -0.0968
   60SAPC  H12A 4567   4.264   4.814  10.959  0.5157  0.5695  0.5558
   60SAPC  H12B 4568   4.394   4.890  10.873 -0.6239  2.7784 -1.0588
   60SAPC   C13 4569   4.285   4.917  11.181  0.2770 -0.3464 -0.2761
   60SAPC  H13A 4570   4.208   4.843  11.165  0.6014 -0.1793 -2.7370
   60SAPC  H13B 4571   4.330   4.909  11.279  0.7510  1.2375 -0.3562
   60SAPC  H13C 4572   4.223   5.005  11.191 -0.1843 -0.9252  2.1945
   60SAPC   C14 4573   4.479   4.793  11.100  0.0071  0.2718  0.6775
   60SAPC  H14A 4574   4.528   4.794  11.196 -1.2750  0.8056  1.3358
   60SAPC  H14B 4575   4.424   4.700  11.104  1.1709 -0.5425 -1.3771
   60SAPC  H14C 4576   4.565   4.787  11.035 -0.0118  1.0048  0.5861
   60SAPC   C15 4577   4.484   5.042  11.086 -0.2089  0.1158 -0.7469
   60SAPC  H15A 4578   4.529   5.049  11.184 -1.4595  0.9249 -0.2216
   60SAPC  H15B 4579   4.561   5.037  11.010 -0.2235  2.0066 -0.8951
   60SAPC  H15C 4580   4.427   5.131  11.066  1.9278  2.0041  1.3401
   60SAPC   C11 4581   4.221   5.013  10.904 -0.2221  0.1862  0.2131
   60SAPC  H11A 4582   4.140   5.034  10.976 -0.3865 -0.3407  0.1816
   60SAPC  H11B 4583   4.175   4.989  10.806  1.5273  0.4820 -0.7149
   60SAPC     P 4584   4.391   5.150  10.763  0.2145  0.1240  0.0375
   60SAPC   O13 4585   4.472   5.268  10.796  0.7372 -0.4202  0.4610
   60SAPC   O14 4586   4.462   5.023  10.729  0.3403 -0.0438 -0.0609
   60SAPC   O12 4587   4.300   5.133  10.882  0.3538  0.1454  0.0075
   60SAPC   O11 4588   4.298   5.182  10.648  1.0402  0.8658 -0.5906
   60SAPC    C1 4589   4.222   5.308  10.645  0.1790  0.5869  0.3962
   60SAPC    HA 4590   4.121   5.287  10.684  0.7161 -3.6631 -0.2659
   60SAPC    HB 4591   4.272   5.385  10.708  0.9136  0.6025 -0.1896
   60SAPC    C2 4592   4.219   5.357  10.497 -0.3739 -0.6693 -0.3510
   60SAPC    HS 4593   4.135   5.429  10.499 -1.2012 -1.6220  0.1055
   60SAPC   O21 4594   4.183   5.256  10.403  0.6027 -0.5848  0.5720
   60SAPC   C21 4595   4.059   5.213  10.415  1.0417  0.9161 -0.3159
   60SAPC   O22 4596   3.974   5.249  10.493 -0.1052  0.1227  0.0936
   60SAPC   C22 4597   4.019   5.128  10.286  0.0559 -0.2099 -0.7260
   60SAPC   H2R 4598   4.114   5.088  10.245 -0.5394 -3.3064  0.7385
   60SAPC   H2S 4599   3.956   5.044  10.325 -1.5885  1.6819  0.7907
   60SAPC    C3 4600   4.352   5.429  10.462 -0.5585 -0.4495  0.1488
   60SAPC    HX 4601   4.428   5.349  10.463  0.7877  0.6921 -3.2681
   60SAPC    HY 4602   4.367   5.511  10.536 -0.6171 -1.7155  1.5941
   60SAPC   O31 4603   4.350   5.495  10.335 -0.0647  0.2114 -0.0301
   60SAPC   C31 4604   4.467   5.545  10.300  0.3978 -0.8615 -0.3435
   60SAPC   O32 4605   4.561   5.555  10.381 -0.5265 -0.9058  0.7693
   60SAPC   C32 4606   4.463   5.586  10.152 -0.2607 -0.2998 -0.3586
   60SAPC   H2X 4607   4.523   5.679  10.149  1.1189 -1.2078 -1.6974
   60SAPC   H2Y 4608   4.362   5.615  10.116 -0.4833 -0.4373  0.1525
   60SAPC   C23 4609   3.928   5.212  10.189 -0.7090  0.6704  0.3499
   60SAPC   H3R 4610   3.832   5.237  10.239 -0.1035  0.7402  1.4737
   60SAPC   H3S 4611   3.919   5.149  10.098  1.3244 -0.4472  0.8907
   60SAPC   C24 4612   3.992   5.337  10.127  0.4315 -0.0105 -0.0741
   60SAPC   H4R 4613   3.992   5.415  10.207  2.2372 -0.3577  0.2897
   60SAPC   H4S 4614   3.917   5.382  10.059  1.1405  2.8162  0.9440
   60SAPC   C25 4615   4.127   5.321  10.070 -0.1808  1.1628  0.9041
   60SAPC   H5R 4616   4.206   5.319  10.147 -1.1695  1.3247  1.9500
   60SAPC   C26 4617   4.160   5.289   9.942  0.3784 -0.4133 -0.2459
   60SAPC   H6R 4618   4.265   5.300   9.911  0.5103  2.3175  1.0627
   60SAPC   C27 4619   4.067   5.264   9.820  0.0830  0.2601  0.4316
   60SAPC   H7R 4620   4.102   5.338   9.745 -1.2755 -1.7620 -2.2615
   60SAPC   H7S 4621   3.963   5.289   9.848 -0.1640 -1.0623  0.7075
   60SAPC   C28 4622   4.081   5.123   9.781  0.2259  1.4152 -1.0393
   60SAPC   H8R 4623   4.037   5.054   9.854  0.9800  0.3931 -1.5339
   60SAPC   C29 4624   4.128   5.078   9.669  0.0243  0.0682 -0.5475
   60SAPC   H9R 4625   4.121   4.969   9.657 -0.7375 -0.1646  1.7876
   60SAPC  C210 4626   4.182   5.156   9.550 -0.5237  0.5009 -0.0919
   60SAPC  H10R 4627   4.265   5.098   9.503  0.3455 -0.8724  3.0105
   60SAPC  H10S 4628   4.219   5.259   9.568 -1.5921  1.4614 -3.1206
   60SAPC  C211 4629   4.064   5.173   9.460 -0.5394 -0.6377  0.3280
   60SAPC  H11R 4630   3.964   5.172   9.506  0.3685 -0.0777  2.3318
   60SAPC  C212 4631   4.076   5.179   9.320  0.6318  0.1625  0.7025
   60SAPC  H12R 4632   3.984   5.176   9.260  1.6194 -2.2233 -0.7825
   60SAPC  C213 4633   4.204   5.156   9.248  0.5605  0.8642  0.1459
   60SAPC  H13R 4634   4.217   5.055   9.205 -2.2393  0.5612 -0.0938
   60SAPC  H13S 4635   4.297   5.169   9.307  0.4798 -0.1424  0.5020
   60SAPC  C214 4636   4.211   5.258   9.133  0.1635  0.4441  0.2836
   60SAPC  H14R 4637   4.218   5.363   9.165  0.0829  0.3205  0.7191
   60SAPC  C215 4638   4.206   5.221   9.005 -0.2023  0.2126  0.5456
   60SAPC  H15R 4639   4.225   5.293   8.925 -1.1456 -1.0321 -0.8236
   60SAPC  C216 4640   4.185   5.076   8.961 -0.1034 -0.2891 -0.5999
   60SAPC  H16R 4641   4.089   5.049   9.009  0.9161  0.2997  1.8163
   60SAPC  H16S 4642   4.261   5.005   9.000 -0.5768 -0.8261 -0.6485
   60SAPC  C217 4643   4.177   5.057   8.802  0.1157 -0.4416  0.3210
   60SAPC  H17R 4644   4.119   5.145   8.766  1.3462  0.1156 -0.3341
   60SAPC  H17S 4645   4.122   4.966   8.769  0.4037 -0.7347  0.6385
   60SAPC  C218 4646   4.314   5.045   8.736 -0.4174 -0.1215  0.2078
   60SAPC  H18R 4647   4.370   4.953   8.765 -1.5471 -1.5249 -1.9912
   60SAPC  H18S 4648   4.361   5.140   8.769 -0.1618 -0.0429 -0.3781
   60SAPC  C219 4649   4.314   5.059   8.583 -1.0911 -0.3475  0.3061
   60SAPC  H19R 4650   4.301   5.167   8.563  0.7721 -0.0194  0.7892
   60SAPC  H19S 4651   4.222   5.013   8.540 -0.9718  0.2544 -0.6216
   60SAPC  C220 4652   4.446   4.999   8.525  0.3595 -0.4153  0.0144
   60SAPC  H20R 4653   4.536   5.022   8.586 -0.7736  2.4508  0.6876
   60SAPC  H20S 4654   4.445   5.038   8.421  1.0189 -0.9158 -0.1766
   60SAPC  H20T 4655   4.432   4.889   8.518  2.0390 -0.5850 -0.7133
   60SAPC   C33 4656   4.530   5.487  10.059  0.1313  0.8001  0.6613
   60SAPC   H3X 4657   4.473   5.392  10.061  1.3667  0.0530  1.7482
   60SAPC   H3Y 4658   4.629   5.462  10.103  0.6777  0.4460 -0.7391
   60SAPC   C34 4659   4.543   5.542   9.921 -0.2812  0.0001 -0.0411
   60SAPC   H4X 4660   4.613   5.628   9.928 -1.3196  1.0142 -1.6678
   60SAPC   H4Y 4661   4.445   5.588   9.893  0.6038  1.3014 -1.0847
   60SAPC   C35 4662   4.568   5.440   9.811  0.0973 -0.2562 -0.1014
   60SAPC   H5X 4663   4.473   5.383   9.815  0.9255 -1.6722 -0.0912
   60SAPC   H5Y 4664   4.647   5.364   9.829 -0.8504 -1.2739 -0.1807
   60SAPC   C36 4665   4.581   5.507   9.672 -0.0886  0.3587 -0.1473
   60SAPC   H6X 4666   4.675   5.566   9.664 -0.2144  0.3039 -2.3058
   60SAPC   H6Y 4667   4.494   5.575   9.662  2.4068  3.7103  0.0530
   60SAPC   C37 4668   4.569   5.414   9.547  0.3519  0.4401  0.0421
   60SAPC   H7X 4669   4.470   5.363   9.549 -0.2757  1.4580 -2.4858
   60SAPC   H7Y 4670   4.647   5.336   9.546  0.0765  0.1417 -1.9761
   60SAPC   C38 4671   4.594   5.499   9.417  0.8563 -0.0716 -0.7841
   60SAPC   H8X 4672   4.703   5.520   9.409  1.1576 -1.1381  0.3493
   60SAPC   H8Y 4673   4.539   5.596   9.423 -0.0903 -0.6994  1.3334
   60SAPC   C39 4674   4.545   5.423   9.293 -0.2824 -0.4502 -0.1502
   60SAPC   H9X 4675   4.438   5.395   9.304 -0.8928  1.8182 -0.0940
   60SAPC   H9Y 4676   4.598   5.325   9.290 -2.7456 -1.8980  1.5788
   60SAPC  C310 4677   4.562   5.498   9.166 -0.2350  0.1126  0.0269
   60SAPC  H10X 4678   4.669   5.527   9.160  0.2397 -1.7504 -0.8790
   60SAPC  H10Y 4679   4.503   5.592   9.171 -0.0974  0.1666  0.6895
   60SAPC  C311 4680   4.511   5.416   9.040  0.6914 -0.2094 -0.3867
   60SAPC  H11X 4681   4.401   5.426   9.029  0.6257 -0.1857  0.2828
   60SAPC  H11Y 4682   4.534   5.309   9.062 -0.4141 -0.8506 -2.2092
   60SAPC  C312 4683   4.566   5.449   8.895 -0.5991  0.4693  1.0094
   60SAPC  H12X 4684   4.667   5.404   8.901 -0.3394  0.8434 -0.3987
   60SAPC  H12Y 4685   4.576   5.560   8.888 -0.3235  0.4520  1.1119
   60SAPC  C313 4686   4.480   5.385   8.782 -0.1750 -0.1975 -0.1194
   60SAPC  H13X 4687   4.372   5.409   8.792 -0.4374 -0.2246 -2.6694
   60SAPC  H13Y 4688   4.487   5.276   8.801 -0.0343 -0.0168  0.8920
   60SAPC  C314 4689   4.525   5.421   8.636  0.4274 -0.1914  0.2453
   60SAPC  H14X 4690   4.524   5.325   8.581  0.0678 -0.1760  0.2215
   60SAPC  H14Y 4691   4.633   5.445   8.647  0.2537  0.5984  0.2855
   60SAPC  C315 4692   4.451   5.536   8.575  0.1845 -0.1314 -0.3390
   60SAPC  H15X 4693   4.522   5.595   8.514  0.8794 -0.7891 -0.1721
   60SAPC  H15Y 4694   4.431   5.619   8.646  1.3525 -2.2796  2.6452
   60SAPC  C316 4695   4.343   5.482   8.487  0.9511  0.4263 -0.3558
   60SAPC  H16X 4696   4.257   5.448   8.548 -0.4769  0.4441 -2.3036
   60SAPC  H16Y 4697   4.367   5.390   8.429 -1.9235  0.9091 -2.4752
   60SAPC  C317 4698   4.279   5.596   8.402 -1.4913  0.1198 -0.2753
   60SAPC  H17X 4699   4.362   5.649   8.350  0.1826 -0.5789  1.6244
   60SAPC  H17Y 4700   4.234   5.671   8.471  2.1447  0.3011  2.0733
   60SAPC  C318 4701   4.170   5.557   8.307  0.8300  0.0347 -0.1613
   60SAPC  H18X 4702   4.120   5.648   8.267  0.6687  0.0743  0.1290
   60SAPC  H18Y 4703   4.097   5.494   8.363  0.3730  0.5130 -0.2155
   60SAPC  H18Z 4704   4.209   5.489   8.229 -0.1896 -0.7861  0.0388
   61SAPC     N 4705   5.466   4.347  11.149  0.0513  0.6162 -0.2420
   61SAPC   C12 4706   5.437   4.297  11.004 -0.3317  0.8873 -0.0705
   61SAPC  H12A 4707   5.365   4.217  11.010  0.5426  0.0409 -0.6709
   61SAPC  H12B 4708   5.528   4.261  10.959 -0.3961 -0.6980  1.0474
   61SAPC   C13 4709   5.345   4.384  11.234 -0.2979  0.1851 -0.4176
   61SAPC  H13A 4710   5.294   4.466  11.185 -0.0333  1.8996  2.1039
   61SAPC  H13B 4711   5.275   4.306  11.257 -2.8862  2.2736 -0.9125
   61SAPC  H13C 4712   5.378   4.431  11.325  0.1199 -1.4916  0.3100
   61SAPC   C14 4713   5.531   4.231  11.214 -0.7857  0.8935  0.1257
   61SAPC  H14A 4714   5.574   4.257  11.310 -0.4074  0.7928 -0.0118
   61SAPC  H14B 4715   5.454   4.157  11.226  1.4946 -1.7594 -0.9924
   61SAPC  H14C 4716   5.613   4.203  11.149 -1.1998 -0.0811  0.0128
   61SAPC   C15 4717   5.558   4.468  11.150  0.0710  0.1112 -0.3172
   61SAPC  H15A 4718   5.657   4.444  11.116 -0.0624  0.2006 -0.7706
   61SAPC  H15B 4719   5.528   4.542  11.078  0.3413  0.2162 -0.3205
   61SAPC  H15C 4720   5.563   4.519  11.245 -1.9743  1.1841 -0.7486
   61SAPC   C11 4721   5.384   4.395  10.905  0.6385 -0.0801 -0.9827
   61SAPC  H11A 4722   5.403   4.381  10.796 -1.0664  1.0193 -1.4301
   61SAPC  H11B 4723   5.451   4.483  10.918  0.6067 -0.2349  0.3101
   61SAPC     P 4724   5.139   4.316  10.877 -0.2734  0.3132  0.2324
   61SAPC   O13 4725   5.179   4.184  10.931 -0.3384  0.0208 -0.4943
   61SAPC   O14 4726   4.999   4.356  10.895 -0.0357 -0.8120  0.4472
   61SAPC   O12 4727   5.241   4.430  10.932  0.8284  0.0246 -0.6612
   61SAPC   O11 4728   5.179   4.315  10.721  0.5835 -0.2248 -0.0174
   61SAPC    C1 4729   5.170   4.437  10.646  0.3669 -0.5755 -0.1531
   61SAPC    HA 4730   5.072   4.489  10.638  0.2417 -0.8471 -0.3697
   61SAPC    HB 4731   5.244   4.512  10.682  0.5857 -0.2531 -1.2589
   61SAPC    C2 4732   5.211   4.403  10.499 -0.2519  1.2184  0.0479
   61SAPC    HS 4733   5.191   4.494  10.439  2.7640 -0.2390 -3.3889
   61SAPC   O21 4734   5.143   4.286  10.452  0.2079 -0.6461  0.0371
   61SAPC   C21 4735   5.015   4.296  10.418 -0.0589 -0.2650  0.7910
   61SAPC   O22 4736   4.953   4.402  10.418 -0.8348  0.2784 -0.1479
   61SAPC   C22 4737   4.963   4.161  10.379 -0.9700 -0.0059 -0.9378
   61SAPC   H2R 4738   5.032   4.080  10.411 -1.2161 -0.5494 -1.7706
   61SAPC   H2S 4739   4.864   4.157  10.429 -0.1030  1.1319  0.9531
   61SAPC    C3 4740   5.367   4.371  10.491  0.4315 -0.7671 -0.0072
   61SAPC    HX 4741   5.383   4.281  10.555 -2.0913 -0.9127  0.4627
   61SAPC    HY 4742   5.431   4.451  10.535 -0.4818  0.8359 -1.5153
   61SAPC   O31 4743   5.404   4.359  10.356 -0.5312  0.3636  0.6363
   61SAPC   C31 4744   5.416   4.233  10.309  0.1242 -0.1367  0.1166
   61SAPC   O32 4745   5.399   4.133  10.373  0.2753 -0.1080  0.0431
   61SAPC   C32 4746   5.460   4.236  10.161  0.0110 -1.3290  0.0104
   61SAPC   H2X 4747   5.570   4.253  10.160 -0.1840 -0.0467 -0.1341
   61SAPC   H2Y 4748   5.411   4.320  10.108 -1.0029 -1.9674 -0.0871
   61SAPC   C23 4749   4.939   4.133  10.232  0.0987  1.2378  1.0265
   61SAPC   H3R 4750   4.854   4.191  10.192  0.3154  0.9212  0.0984
   61SAPC   H3S 4751   4.910   4.025  10.234  0.3725  1.0653 -2.2689
   61SAPC   C24 4752   5.064   4.147  10.149  0.0096  0.4519 -0.9833
   61SAPC   H4R 4753   5.145   4.090  10.200  1.6620  1.9428 -1.9223
   61SAPC   H4S 4754   5.100   4.251  10.145  0.1675  0.4891  0.7991
   61SAPC   C25 4755   5.040   4.078  10.018 -0.3470 -0.0061  0.3363
   61SAPC   H5R 4756   5.012   3.974  10.042 -0.0122  0.1816  1.5811
   61SAPC   C26 4757   5.056   4.130   9.892 -0.5311  0.1244 -0.4949
   61SAPC   H6R 4758   5.026   4.062   9.811  0.3886  0.3814 -1.0636
   61SAPC   C27 4759   5.090   4.270   9.855  0.5109  0.6423  0.2155
   61SAPC   H7R 4760   5.200   4.280   9.864  0.3695  1.5971  0.9001
   61SAPC   H7S 4761   5.031   4.339   9.919 -3.5736  0.4570 -3.1243
   61SAPC   C28 4762   5.056   4.300   9.711 -1.0634 -0.3024 -0.2249
   61SAPC   H8R 4763   4.958   4.347   9.700 -1.0839 -0.4954 -0.9006
   61SAPC   C29 4764   5.135   4.282   9.602  0.5124 -0.1344 -0.4622
   61SAPC   H9R 4765   5.092   4.310   9.505 -1.8523 -2.0058 -0.0072
   61SAPC  C210 4766   5.273   4.228   9.596  0.6076 -0.3588  0.5631
   61SAPC  H10R 4767   5.255   4.125   9.559 -2.4988 -0.3925  2.0061
   61SAPC  H10S 4768   5.318   4.218   9.697 -0.8958  1.0338  1.4001
   61SAPC  C211 4769   5.378   4.291   9.505 -0.3314 -0.4844  0.6059
   61SAPC  H11R 4770   5.433   4.224   9.437  1.8410  1.5880  0.2627
   61SAPC  C212 4771   5.408   4.419   9.493  0.4553 -0.5254 -0.0587
   61SAPC  H12R 4772   5.487   4.454   9.425  2.5703 -0.7982  2.1835
   61SAPC  C213 4773   5.354   4.531   9.573 -0.0251  0.9589 -0.6944
   61SAPC  H13R 4774   5.354   4.510   9.682  0.1099  0.6538 -0.7505
   61SAPC  H13S 4775   5.247   4.555   9.558  0.3991  2.4440 -1.4343
   61SAPC  C214 4776   5.408   4.666   9.544 -0.3674  1.3165 -0.3152
   61SAPC  H14R 4777   5.477   4.675   9.459  0.5678  1.0887  0.4098
   61SAPC  C215 4778   5.384   4.780   9.612 -0.1579 -0.6921 -1.7332
   61SAPC  H15R 4779   5.451   4.866   9.593  2.3734 -1.9410  1.0624
   61SAPC  C216 4780   5.298   4.780   9.738  0.4235 -0.5143  0.7262
   61SAPC  H16R 4781   5.223   4.699   9.726  0.7101 -0.5662 -0.9011
   61SAPC  H16S 4782   5.236   4.872   9.727 -2.6398 -2.7139 -1.0265
   61SAPC  C217 4783   5.361   4.782   9.874  0.7493 -0.1312 -0.2022
   61SAPC  H17R 4784   5.427   4.871   9.880 -0.0257  0.5193 -1.2024
   61SAPC  H17S 4785   5.435   4.700   9.892  0.6664 -0.3867 -1.0004
   61SAPC  C218 4786   5.255   4.782   9.983 -0.4733  0.2228  0.0904
   61SAPC  H18R 4787   5.212   4.681   9.996 -0.5973  0.2877  0.1960
   61SAPC  H18S 4788   5.175   4.849   9.945  0.4954  1.7931  0.7702
   61SAPC  C219 4789   5.299   4.838  10.114  0.1130 -0.5881 -0.1652
   61SAPC  H19R 4790   5.294   4.949  10.111  1.3762 -0.4829  1.0271
   61SAPC  H19S 4791   5.406   4.821  10.138  0.6720  2.1835 -0.4594
   61SAPC  C220 4792   5.226   4.772  10.232  0.8789 -0.1743 -0.3357
   61SAPC  H20R 4793   5.235   4.661  10.237 -1.7551 -0.6058 -3.2594
   61SAPC  H20S 4794   5.119   4.800  10.230  0.9928  0.4032  1.0550
   61SAPC  H20T 4795   5.260   4.819  10.327 -0.1536  1.8651 -0.9643
   61SAPC   C33 4796   5.445   4.095  10.093  0.9620  0.2453 -0.0335
   61SAPC   H3X 4797   5.340   4.057  10.094  0.0346  2.7390 -0.7395
   61SAPC   H3Y 4798   5.519   4.026  10.139 -1.7547 -2.8436 -0.0879
   61SAPC   C34 4799   5.491   4.109   9.944 -0.5711  0.0389 -0.2951
   61SAPC   H4X 4800   5.602   4.112   9.946 -0.5330 -1.5027  2.2851
   61SAPC   H4Y 4801   5.460   4.207   9.901  0.9568  0.0245 -1.4468
   61SAPC   C35 4802   5.449   3.996   9.861  0.4341 -0.2210  0.5467
   61SAPC   H5X 4803   5.338   4.000   9.858  0.3551 -1.0839  2.1579
   61SAPC   H5Y 4804   5.477   3.909   9.924  0.3716 -0.0507  0.8101
   61SAPC   C36 4805   5.498   4.001   9.718 -0.6825 -0.4730 -0.2994
   61SAPC   H6X 4806   5.608   4.003   9.732 -0.7650  1.8500  0.1532
   61SAPC   H6Y 4807   5.468   4.091   9.660  1.8333  0.5994 -0.0090
   61SAPC   C37 4808   5.448   3.881   9.644 -0.0334  0.4301  0.4995
   61SAPC   H7X 4809   5.338   3.886   9.633 -0.0532 -0.7259  0.0907
   61SAPC   H7Y 4810   5.466   3.789   9.704 -1.8468 -0.1941  0.0935
   61SAPC   C38 4811   5.506   3.871   9.499  0.6917 -0.3165 -0.2523
   61SAPC   H8X 4812   5.613   3.846   9.514  0.5815 -0.0115  1.1564
   61SAPC   H8Y 4813   5.501   3.972   9.454  1.4751  0.1649  0.7350
   61SAPC   C39 4814   5.434   3.758   9.419  0.7291 -0.7437 -0.4920
   61SAPC   H9X 4815   5.327   3.771   9.392  0.1984  0.0699  1.8731
   61SAPC   H9Y 4816   5.428   3.674   9.492 -0.8347 -0.2442 -0.0214
   61SAPC  C310 4817   5.527   3.721   9.297  0.4314  0.6129 -0.0257
   61SAPC  H10X 4818   5.627   3.679   9.318  0.4760  2.0137  2.8787
   61SAPC  H10Y 4819   5.541   3.824   9.258 -1.3120  1.6134  1.8938
   61SAPC  C311 4820   5.455   3.630   9.198  0.0170 -0.4134 -0.5798
   61SAPC  H11X 4821   5.355   3.665   9.164  0.1307  2.3476  1.7457
   61SAPC  H11Y 4822   5.437   3.540   9.260 -0.5187  1.1817  1.6528
   61SAPC  C312 4823   5.551   3.597   9.079 -0.0687 -0.0016  0.2297
   61SAPC  H12X 4824   5.629   3.530   9.122 -0.9341 -0.3180  1.3349
   61SAPC  H12Y 4825   5.598   3.695   9.052 -0.0938  0.7387  2.7048
   61SAPC  C313 4826   5.482   3.540   8.954  0.6697 -0.2527  0.3373
   61SAPC  H13X 4827   5.421   3.459   8.999 -0.7373  1.8436  2.3077
   61SAPC  H13Y 4828   5.551   3.500   8.877 -0.6493 -1.1590 -0.3789
   61SAPC  C314 4829   5.384   3.645   8.890 -0.8427 -0.3509  0.5493
   61SAPC  H14X 4830   5.287   3.665   8.941 -1.6917  0.8420 -1.4779
   61SAPC  H14Y 4831   5.352   3.602   8.792 -1.6290  1.0860  0.1595
   61SAPC  C315 4832   5.451   3.771   8.833  0.7558  0.6026 -0.1087
   61SAPC  H15X 4833   5.546   3.747   8.779  1.4768  2.1637  0.4431
   61SAPC  H15Y 4834   5.490   3.830   8.919 -0.3244  2.7140 -1.0347
   61SAPC  C316 4835   5.357   3.857   8.760  0.2203  0.0403  0.1749
   61SAPC  H16X 4836   5.266   3.886   8.817  1.9794  2.9413  1.6248
   61SAPC  H16Y 4837   5.314   3.804   8.672 -1.2227  1.5271 -0.0426
   61SAPC  C317 4838   5.420   3.987   8.709  0.8569  0.5123 -0.0577
   61SAPC  H17X 4839   5.460   4.051   8.791 -0.3786  2.4855 -0.9587
   61SAPC  H17Y 4840   5.340   4.040   8.653 -0.7040  1.0925  2.6659
   61SAPC  C318 4841   5.538   3.958   8.611 -0.3929 -0.1050  0.2717
   61SAPC  H18X 4842   5.578   4.058   8.582  1.2295 -1.9661 -4.4474
   61SAPC  H18Y 4843   5.526   3.899   8.517 -1.0002  0.1178  0.2069
   61SAPC  H18Z 4844   5.624   3.916   8.668  1.0242 -0.5535 -2.1216
   62SAPC     N 4845   4.856   3.829  10.857  0.2660  0.6022 -0.2569
   62SAPC   C12 4846   4.728   3.749  10.849  0.6824 -0.0677  0.4320
   62SAPC  H12A 4847   4.646   3.817  10.865  1.4533  0.7332  1.0615
   62SAPC  H12B 4848   4.727   3.692  10.941  0.4402  0.6782  0.9003
   62SAPC   C13 4849   4.970   3.736  10.859  0.9178 -0.2436 -0.0425
   62SAPC  H13A 4850   5.056   3.800  10.876  1.1979 -0.8256  0.7891
   62SAPC  H13B 4851   4.950   3.663  10.936 -0.9949 -0.9165 -1.1635
   62SAPC  H13C 4852   4.990   3.683  10.767  0.6236 -1.2451  0.4679
   62SAPC   C14 4853   4.876   3.927  10.748  0.2055  0.0019  0.2700
   62SAPC  H14A 4854   4.889   3.882  10.650  1.1901 -0.5674  0.6541
   62SAPC  H14B 4855   4.791   3.994  10.741 -1.1659 -1.7448 -0.1244
   62SAPC  H14C 4856   4.966   3.985  10.761 -0.2403  0.9441 -0.6790
   62SAPC   C15 4857   4.862   3.886  10.996  0.1752 -0.2191  0.1853
   62SAPC  H15A 4858   4.956   3.936  11.016 -0.8085  2.3282 -1.3273
   62SAPC  H15B 4859   4.788   3.965  11.004 -1.8583 -2.2029  1.6081
   62SAPC  H15C 4860   4.852   3.809  11.071 -2.6119 -0.2862 -0.2216
   62SAPC   C11 4861   4.698   3.667  10.726  0.4719  0.4073 -0.0269
   62SAPC  H11A 4862   4.716   3.732  10.638 -3.0774  0.7219 -0.5848
   62SAPC  H11B 4863   4.590   3.644  10.719  0.3191  1.0226  0.2722
   62SAPC     P 4864   4.859   3.503  10.599  0.2061  0.1602  0.1287
   62SAPC   O13 4865   4.983   3.577  10.591 -0.9891 -0.0428 -0.2465
   62SAPC   O14 4866   4.877   3.362  10.610 -0.2679  0.1646  0.1005
   62SAPC   O12 4867   4.771   3.545  10.717  0.5318 -0.1300  0.0523
   62SAPC   O11 4868   4.774   3.540  10.467  0.3968  0.3453  0.2273
   62SAPC    C1 4869   4.648   3.485  10.450  0.1591  0.3515  0.0465
   62SAPC    HA 4870   4.627   3.390  10.503 -2.1961 -0.0135 -1.4499
   62SAPC    HB 4871   4.561   3.549  10.478  0.9967  1.4642  0.1419
   62SAPC    C2 4872   4.637   3.449  10.296  0.4891 -0.2063  0.6568
   62SAPC    HS 4873   4.719   3.381  10.266 -0.3014 -0.2139 -1.6299
   62SAPC   O21 4874   4.635   3.578  10.222 -0.3882  0.1890 -0.4527
   62SAPC   C21 4875   4.703   3.588  10.110  0.7383 -0.5160 -0.5061
   62SAPC   O22 4876   4.772   3.497  10.057  0.0438  0.1293  0.0334
   62SAPC   C22 4877   4.694   3.730  10.053 -0.5569  0.8142 -0.4013
   62SAPC   H2R 4878   4.713   3.811  10.128  1.9408 -0.0957  0.0108
   62SAPC   H2S 4879   4.772   3.736   9.974 -0.1122 -1.2276 -0.1458
   62SAPC    C3 4880   4.509   3.366  10.271 -0.2310  0.2567  0.1338
   62SAPC    HX 4881   4.425   3.424  10.315  0.9501  1.7814  0.4290
   62SAPC    HY 4882   4.504   3.268  10.322 -2.1618  0.0128 -0.4992
   62SAPC   O31 4883   4.475   3.342  10.133  0.0621  0.3548  0.8469
   62SAPC   C31 4884   4.541   3.246  10.065  0.2939  0.2423 -1.2118
   62SAPC   O32 4885   4.626   3.169  10.111 -0.3185 -0.0448 -0.1914
   62SAPC   C32 4886   4.491   3.238   9.913  0.5411 -0.2548  0.1563
   62SAPC   H2X 4887   4.453   3.340   9.892  1.2391  0.1993  1.0615
   62SAPC   H2Y 4888   4.405   3.168   9.920  0.1114  0.1993 -0.5701
   62SAPC   C23 4889   4.554   3.755   9.993 -0.3340 -0.1451 -0.0938
   62SAPC   H3R 4890   4.546   3.865   9.977 -1.8117  0.1172  2.1737
   62SAPC   H3S 4891   4.483   3.735  10.077  1.6417  0.0738  1.6555
   62SAPC   C24 4892   4.525   3.672   9.864  0.2202  0.4801  0.1738
   62SAPC   H4R 4893   4.528   3.563   9.887 -3.2681  0.6600  1.8469
   62SAPC   H4S 4894   4.608   3.691   9.793 -1.0920  2.0491 -0.9740
   62SAPC   C25 4895   4.398   3.713   9.802 -0.3686 -0.7160 -0.3314
   62SAPC   H5R 4896   4.320   3.724   9.879 -0.6588  1.4258 -0.8815
   62SAPC   C26 4897   4.384   3.763   9.673  0.4697 -0.4207 -0.0482
   62SAPC   H6R 4898   4.282   3.786   9.640  0.4090 -1.2069 -0.4175
   62SAPC   C27 4899   4.491   3.775   9.563 -0.2039  0.4559 -0.1729
   62SAPC   H7R 4900   4.594   3.763   9.603 -0.1865  1.6251  0.1496
   62SAPC   H7S 4901   4.490   3.871   9.507 -0.5181  0.2411 -0.5351
   62SAPC   C28 4902   4.463   3.653   9.483  0.2610  0.0869 -0.6732
   62SAPC   H8R 4903   4.479   3.558   9.536 -0.3313 -0.4637 -1.4605
   62SAPC   C29 4904   4.429   3.649   9.353 -0.0263  0.4002 -0.3297
   62SAPC   H9R 4905   4.418   3.550   9.308  3.0339 -0.9846  1.7732
   62SAPC  C210 4906   4.419   3.773   9.257  1.5737  1.0366  0.8097
   62SAPC  H10R 4907   4.516   3.772   9.203  0.7908  1.2516 -0.6337
   62SAPC  H10S 4908   4.407   3.873   9.306 -1.7829  0.3365  1.5640
   62SAPC  C211 4909   4.309   3.755   9.153 -0.5531 -0.4914 -0.0243
   62SAPC  H11R 4910   4.223   3.819   9.178  1.3218  2.3853 -0.6224
   62SAPC  C212 4911   4.315   3.684   9.037  0.1075  0.3787 -0.1383
   62SAPC  H12R 4912   4.227   3.670   8.972 -1.0901 -0.2812  1.6001
   62SAPC  C213 4913   4.424   3.588   8.999  0.0934 -0.3564  0.0628
   62SAPC  H13R 4914   4.484   3.561   9.089 -0.0073 -2.0326 -0.3460
   62SAPC  H13S 4915   4.491   3.638   8.926 -0.5037  3.0971  1.7827
   62SAPC  C214 4916   4.370   3.460   8.945  0.5758  0.3723 -0.3395
   62SAPC  H14R 4917   4.333   3.386   9.018 -1.2380  0.8207 -0.7893
   62SAPC  C215 4918   4.364   3.418   8.812 -0.6310 -0.1637  1.0693
   62SAPC  H15R 4919   4.336   3.314   8.788  0.4352  0.0269 -1.1666
   62SAPC  C216 4920   4.410   3.495   8.687 -0.4670  0.3497  0.8053
   62SAPC  H16R 4921   4.417   3.602   8.715  2.3632  0.9080 -1.8590
   62SAPC  H16S 4922   4.329   3.500   8.612 -1.6663  0.0377  2.0540
   62SAPC  C217 4923   4.536   3.447   8.623  0.5306 -0.4520 -0.5200
   62SAPC  H17R 4924   4.516   3.339   8.603  2.3895 -0.6680 -1.2916
   62SAPC  H17S 4925   4.622   3.464   8.691 -0.9015 -0.4415  1.3193
   62SAPC  C218 4926   4.562   3.482   8.475  0.0258 -0.4788  0.6935
   62SAPC  H18R 4927   4.594   3.586   8.456  0.4563 -0.8368 -0.6279
   62SAPC  H18S 4928   4.469   3.470   8.416 -0.1671  1.1715  0.6379
   62SAPC  C219 4929   4.676   3.389   8.420  0.0589  0.3332 -0.3494
   62SAPC  H19R 4930   4.633   3.287   8.422 -2.1319  1.1971 -2.0144
   62SAPC  H19S 4931   4.767   3.405   8.483 -0.2927  1.4415 -0.1030
   62SAPC  C220 4932   4.715   3.422   8.278 -0.0921 -0.3406  0.1135
   62SAPC  H20R 4933   4.774   3.343   8.225 -0.8105 -0.4779 -0.4922
   62SAPC  H20S 4934   4.782   3.510   8.282  1.6083 -1.6119  0.2310
   62SAPC  H20T 4935   4.625   3.449   8.220 -0.0092  0.3912  0.3252
   62SAPC   C33 4936   4.596   3.203   9.809 -0.0033 -0.6738 -0.0417
   62SAPC   H3X 4937   4.592   3.094   9.788 -0.7930 -0.1367 -2.8502
   62SAPC   H3Y 4938   4.697   3.234   9.845  0.1077 -2.6604  1.4207
   62SAPC   C34 4939   4.573   3.277   9.684  0.1796 -0.5981  0.4855
   62SAPC   H4X 4940   4.562   3.386   9.704  3.8898 -0.4356  1.9089
   62SAPC   H4Y 4941   4.474   3.235   9.656  0.0249  0.4231 -0.5408
   62SAPC   C35 4942   4.668   3.237   9.566 -0.0752 -0.0343 -0.4092
   62SAPC   H5X 4943   4.677   3.128   9.548 -0.1230  0.1774 -1.7239
   62SAPC   H5Y 4944   4.771   3.274   9.584  0.3207 -0.7094 -1.2867
   62SAPC   C36 4945   4.619   3.297   9.437  0.5744  0.1883  0.5723
   62SAPC   H6X 4946   4.572   3.395   9.462 -0.4929 -0.6752  2.0324
   62SAPC   H6Y 4947   4.532   3.242   9.396 -0.2375  2.3852 -0.7897
   62SAPC   C37 4948   4.731   3.294   9.339 -0.3270 -0.9377 -0.1806
   62SAPC   H7X 4949   4.765   3.188   9.338  0.4337 -0.7120 -1.9842
   62SAPC   H7Y 4950   4.811   3.360   9.378  1.5966 -2.8045 -0.8885
   62SAPC   C38 4951   4.681   3.331   9.198  0.0710 -0.6837 -0.4871
   62SAPC   H8X 4952   4.636   3.433   9.200 -0.2676 -0.6983 -3.9582
   62SAPC   H8Y 4953   4.602   3.256   9.176  0.9072 -1.7723  0.2072
   62SAPC   C39 4954   4.780   3.319   9.086  0.0316 -0.4080  0.7950
   62SAPC   H9X 4955   4.814   3.213   9.079  2.6399  0.4203  0.4363
   62SAPC   H9Y 4956   4.872   3.377   9.105 -0.1943 -0.4748  2.1211
   62SAPC  C310 4957   4.731   3.349   8.946 -0.2282 -0.1020 -0.3500
   62SAPC  H10X 4958   4.715   3.459   8.933  2.1214  0.4309  1.0088
   62SAPC  H10Y 4959   4.634   3.299   8.929 -0.9658  0.7071  1.4378
   62SAPC  C311 4960   4.831   3.295   8.842 -0.7843 -0.6605 -0.0321
   62SAPC  H11X 4961   4.782   3.281   8.743 -1.9630  3.5074 -0.1374
   62SAPC  H11Y 4962   4.883   3.201   8.871  2.0127  0.5229 -0.9624
   62SAPC  C312 4963   4.955   3.388   8.823  0.3531 -0.4332 -0.8923
   62SAPC  H12X 4964   5.024   3.360   8.906 -1.3854 -1.3144  0.2989
   62SAPC  H12Y 4965   4.925   3.493   8.843  0.8484 -0.1483 -1.6373
   62SAPC  C313 4966   5.029   3.389   8.685 -0.6465 -0.1810 -0.0567
   62SAPC  H13X 4967   5.004   3.301   8.622 -2.3251 -0.2661  0.6957
   62SAPC  H13Y 4968   5.137   3.381   8.711 -0.6596 -4.0365 -0.8939
   62SAPC  C314 4969   5.012   3.523   8.616 -0.3522 -0.6597  0.1877
   62SAPC  H14X 4970   5.061   3.602   8.677 -0.0531  0.0204 -0.9292
   62SAPC  H14Y 4971   4.904   3.546   8.608 -0.1656  0.2482  0.2381
   62SAPC  C315 4972   5.072   3.521   8.470 -0.5106 -0.4190 -0.5992
   62SAPC  H15X 4973   4.999   3.579   8.410  0.3145  2.1142  0.7836
   62SAPC  H15Y 4974   5.065   3.418   8.427 -0.3062 -1.1103  0.9806
   62SAPC  C316 4975   5.206   3.588   8.443 -0.0833  0.6268  0.3415
   62SAPC  H16X 4976   5.211   3.675   8.513 -0.2004  1.0256 -0.1423
   62SAPC  H16Y 4977   5.220   3.618   8.337 -0.4309  0.9500  0.3854
   62SAPC  C317 4978   5.327   3.505   8.479 -0.2519 -0.1567 -0.5030
   62SAPC  H17X 4979   5.324   3.409   8.422  0.7385 -0.5915  0.1644
   62SAPC  H17Y 4980   5.310   3.483   8.587  0.8771 -3.0134 -0.8618
   62SAPC  C318 4981   5.456   3.595   8.476 -0.2107 -0.5106  0.2550
   62SAPC  H18X 4982   5.549   3.537   8.492 -0.7443 -1.8102 -1.2677
   62SAPC  H18Y 4983   5.441   3.688   8.535 -2.1336 -0.1545 -0.7883
   62SAPC  H18Z 4984   5.453   3.627   8.370  3.3037  0.1896  0.2993
   63SAPC     N 4985   3.038   2.050   6.320  0.4955  0.1873  0.1933
   63SAPC   C12 4986   3.028   1.901   6.303  0.5173 -0.4323 -1.1369
   63SAPC  H12A 4987   3.116   1.851   6.339  1.4689  1.3431 -0.9597
   63SAPC  H12B 4988   3.032   1.883   6.196 -1.8321 -0.5690 -1.2456
   63SAPC   C13 4989   3.139   2.101   6.225 -0.2233 -0.4563  0.3285
   63SAPC  H13A 4990   3.164   2.202   6.256  0.6374 -0.3180 -0.7666
   63SAPC  H13B 4991   3.229   2.041   6.219  0.8776  0.9378  2.5162
   63SAPC  H13C 4992   3.098   2.108   6.125  0.7335  0.6540  0.0049
   63SAPC   C14 4993   2.917   2.128   6.283 -0.4842  0.4812 -0.6980
   63SAPC  H14A 4994   2.897   2.118   6.177 -0.4879  1.8206 -0.8295
   63SAPC  H14B 4995   2.837   2.078   6.335  1.0759 -1.7211 -0.3083
   63SAPC  H14C 4996   2.935   2.229   6.315 -0.7338 -0.7596  3.6005
   63SAPC   C15 4997   3.077   2.075   6.469 -0.4537 -0.2365  0.2985
   63SAPC  H15A 4998   3.171   2.023   6.484 -0.2487  0.3400  1.1056
   63SAPC  H15B 4999   3.097   2.181   6.474  0.8438 -0.4563  0.0528
   63SAPC  H15C 5000   3.001   2.040   6.538 -1.2634  0.4717 -0.2209
   63SAPC   C11 5001   2.905   1.839   6.376  0.3280  0.7322 -0.0638
   63SAPC  H11A 5002   2.899   1.878   6.480 -0.3639  0.7086 -0.0945
   63SAPC  H11B 5003   2.929   1.731   6.385  0.2079  0.8508  1.9092
   63SAPC     P 5004   2.652   1.899   6.367  0.3644  0.5401  0.2777
   63SAPC   O13 5005   2.580   1.978   6.266  0.1764 -0.2139  0.5961
   63SAPC   O14 5006   2.578   1.785   6.424  0.3021  0.3086 -0.8860
   63SAPC   O12 5007   2.786   1.848   6.296 -0.6632  0.3607  0.1985
   63SAPC   O11 5008   2.702   1.990   6.479 -0.3825  0.4240 -0.5021
   63SAPC    C1 5009   2.644   2.117   6.512  0.0168  0.4158 -0.4952
   63SAPC    HA 5010   2.638   2.187   6.426 -2.7727 -1.4333 -1.8640
   63SAPC    HB 5011   2.542   2.103   6.554  0.4044 -0.1782  0.2637
   63SAPC    C2 5012   2.732   2.184   6.624  0.1656 -1.2096  0.2328
   63SAPC    HS 5013   2.835   2.183   6.582  0.0375 -0.3331 -0.1122
   63SAPC   O21 5014   2.723   2.115   6.749  0.5328  0.1898  0.1020
   63SAPC   C21 5015   2.812   2.032   6.779  0.8470  0.0906  0.2028
   63SAPC   O22 5016   2.915   2.009   6.720 -0.2880 -0.1873 -0.0277
   63SAPC   C22 5017   2.776   1.968   6.916  0.0326  0.2550  0.1719
   63SAPC   H2R 5018   2.757   2.053   6.985 -0.1160 -0.1171  0.5928
   63SAPC   H2S 5019   2.692   1.895   6.911  2.0353 -2.2326  1.5744
   63SAPC    C3 5020   2.703   2.338   6.634 -0.3623  0.4250 -0.0831
   63SAPC    HX 5021   2.595   2.331   6.659 -0.5535  0.9120 -0.7615
   63SAPC    HY 5022   2.701   2.398   6.541  0.8397  3.0376  1.5060
   63SAPC   O31 5023   2.794   2.398   6.734  0.1164 -0.0390 -0.3397
   63SAPC   C31 5024   2.918   2.425   6.689  0.0251 -0.1027  0.3942
   63SAPC   O32 5025   2.950   2.413   6.571  0.3332 -0.1399  0.1067
   63SAPC   C32 5026   3.014   2.477   6.794  0.0757 -0.6494  0.0283
   63SAPC   H2X 5027   2.957   2.499   6.887  0.2832  0.0269  0.0011
   63SAPC   H2Y 5028   3.060   2.574   6.764  0.5563 -0.6369  0.8182
   63SAPC   C23 5029   2.902   1.898   6.967 -0.0987  0.4463 -0.3251
   63SAPC   H3R 5030   2.982   1.971   6.988 -1.5532  2.0351 -0.2066
   63SAPC   H3S 5031   2.929   1.822   6.890  1.2595 -1.2478  1.7485
   63SAPC   C24 5032   2.875   1.810   7.088  0.5142 -1.0948  0.0257
   63SAPC   H4R 5033   2.966   1.750   7.110  2.7931  1.6889 -1.3699
   63SAPC   H4S 5034   2.788   1.744   7.068  0.8530 -1.3515 -0.6362
   63SAPC   C25 5035   2.830   1.889   7.211  0.1344 -0.0377  0.6793
   63SAPC   H5R 5036   2.732   1.937   7.196  0.2289 -0.5112 -1.6861
   63SAPC   C26 5037   2.908   1.928   7.318  0.6178 -0.0120 -0.2675
   63SAPC   H6R 5038   2.856   1.981   7.400 -0.8965 -1.3808 -0.3142
   63SAPC   C27 5039   3.056   1.897   7.340  0.5733 -0.7270  0.7977
   63SAPC   H7R 5040   3.099   1.857   7.246  2.0287  1.5790  0.4504
   63SAPC   H7S 5041   3.065   1.813   7.412  2.9095 -0.4161  0.9153
   63SAPC   C28 5042   3.119   2.029   7.387  0.5244  0.3473  0.0865
   63SAPC   H8R 5043   3.167   2.090   7.309 -1.2192  0.6844 -0.7692
   63SAPC   C29 5044   3.107   2.077   7.514  0.3192 -0.7010 -0.2019
   63SAPC   H9R 5045   3.134   2.181   7.539  1.9695 -0.7021 -1.8522
   63SAPC  C210 5046   3.038   1.997   7.625 -0.3906 -0.4362 -0.1090
   63SAPC  H10R 5047   3.042   1.887   7.606 -1.1231 -0.6986  1.1685
   63SAPC  H10S 5048   2.934   2.035   7.642  0.5193  1.6518  0.9728
   63SAPC  C211 5049   3.099   2.022   7.768 -0.2529 -0.1123 -0.0349
   63SAPC  H11R 5050   3.194   1.967   7.776 -1.5547 -2.4281 -0.0936
   63SAPC  C212 5051   3.062   2.114   7.857 -0.4066  0.2427  0.9571
   63SAPC  H12R 5052   3.124   2.118   7.948  1.5673  1.1844 -0.3978
   63SAPC  C213 5053   2.952   2.216   7.852  0.2365  0.8962 -0.0074
   63SAPC  H13R 5054   2.879   2.227   7.934  1.5828 -0.4042  1.4128
   63SAPC  H13S 5055   2.886   2.181   7.770 -0.3640  2.6454 -0.2824
   63SAPC  C214 5056   3.006   2.354   7.827 -0.4961  0.7674 -0.2339
   63SAPC  H14R 5057   3.084   2.390   7.895 -0.4272  0.3896 -0.1101
   63SAPC  C215 5058   2.979   2.430   7.712  0.1643 -0.0545 -0.8856
   63SAPC  H15R 5059   3.024   2.530   7.700 -0.9935  0.3608 -1.8652
   63SAPC  C216 5060   2.872   2.395   7.607  0.1032  0.2936  0.1300
   63SAPC  H16R 5061   2.780   2.454   7.627 -2.5290 -3.2050 -1.1700
   63SAPC  H16S 5062   2.852   2.286   7.600  0.9569  0.2462 -1.8531
   63SAPC  C217 5063   2.913   2.441   7.470 -0.0941 -0.8794 -0.3572
   63SAPC  H17R 5064   2.979   2.375   7.410 -0.2952 -0.6734 -0.8055
   63SAPC  H17S 5065   2.962   2.541   7.468 -0.6693 -0.5655  0.7321
   63SAPC  C218 5066   2.790   2.470   7.375 -0.5653  0.5538  0.4371
   63SAPC  H18R 5067   2.745   2.567   7.402  0.1097  0.6478  1.2280
   63SAPC  H18S 5068   2.715   2.388   7.384 -1.5164  1.4797  1.0716
   63SAPC  C219 5069   2.844   2.473   7.235  0.6733  0.0787  0.5232
   63SAPC  H19R 5070   2.889   2.378   7.199 -0.8412 -0.4693  0.0628
   63SAPC  H19S 5071   2.918   2.556   7.236 -0.2809  0.9381  0.8285
   63SAPC  C220 5072   2.729   2.495   7.132 -1.0300  0.1488  0.2675
   63SAPC  H20R 5073   2.661   2.408   7.121 -2.7549  1.6233 -0.8500
   63SAPC  H20S 5074   2.771   2.505   7.029 -2.3664 -0.1137 -0.3020
   63SAPC  H20T 5075   2.675   2.591   7.142 -0.0321  0.8589 -0.8924
   63SAPC   C33 5076   3.124   2.384   6.838  0.2742 -0.7051 -0.6311
   63SAPC   H3X 5077   3.202   2.366   6.760  0.0835 -0.1384 -0.9546
   63SAPC   H3Y 5078   3.070   2.287   6.847 -2.5068  0.9606  1.1241
   63SAPC   C34 5079   3.188   2.416   6.971  0.7094  0.1255 -0.1893
   63SAPC   H4X 5080   3.119   2.489   7.017 -1.1860 -2.4494  1.1458
   63SAPC   H4Y 5081   3.285   2.469   6.959 -0.4884  1.8274 -2.7800
   63SAPC   C35 5082   3.179   2.297   7.074 -0.6035  0.4798 -0.0793
   63SAPC   H5X 5083   3.246   2.220   7.030  0.3657  0.5639  1.2457
   63SAPC   H5Y 5084   3.084   2.240   7.077  0.5721 -1.4689  1.2799
   63SAPC   C36 5085   3.229   2.343   7.214  0.3443  0.2449  0.4114
   63SAPC   H6X 5086   3.249   2.264   7.289  0.4161 -1.3376 -1.2246
   63SAPC   H6Y 5087   3.152   2.409   7.259 -0.4422  0.4286 -1.1766
   63SAPC   C37 5088   3.362   2.419   7.212  0.1617 -0.5273 -0.3379
   63SAPC   H7X 5089   3.341   2.514   7.158 -1.4599 -1.3182 -1.1574
   63SAPC   H7Y 5090   3.446   2.366   7.161  0.9627 -0.9090  1.3679
   63SAPC   C38 5091   3.421   2.463   7.343 -0.5722 -0.3456 -1.0139
   63SAPC   H8X 5092   3.355   2.525   7.408 -0.2684 -0.1694 -0.8726
   63SAPC   H8Y 5093   3.506   2.526   7.311 -0.6559 -0.3244 -1.1991
   63SAPC   C39 5094   3.478   2.340   7.416  0.6535  0.0098  0.0879
   63SAPC   H9X 5095   3.516   2.271   7.338  0.7305  0.6550 -0.4509
   63SAPC   H9Y 5096   3.405   2.274   7.467  0.5882 -0.0255 -0.0511
   63SAPC  C310 5097   3.583   2.371   7.521 -0.3603  0.4114 -0.1353
   63SAPC  H10X 5098   3.607   2.282   7.583 -2.1114  1.1381  1.6457
   63SAPC  H10Y 5099   3.541   2.450   7.587  0.4622  1.8411 -1.3048
   63SAPC  C311 5100   3.724   2.420   7.475  0.6448 -0.1852 -0.2016
   63SAPC  H11X 5101   3.695   2.513   7.423 -1.2970 -0.3869  0.4922
   63SAPC  H11Y 5102   3.777   2.359   7.398 -0.9370  0.7285 -2.0546
   63SAPC  C312 5103   3.825   2.446   7.586  0.6279 -0.9216 -0.0497
   63SAPC  H12X 5104   3.797   2.532   7.649  1.1181 -0.2462 -0.7468
   63SAPC  H12Y 5105   3.920   2.479   7.538  0.1162 -1.6643 -1.6156
   63SAPC  C313 5106   3.852   2.324   7.673 -0.7289  0.4332 -0.2778
   63SAPC  H13X 5107   3.891   2.240   7.612  0.6858  0.6168  0.3552
   63SAPC  H13Y 5108   3.763   2.290   7.732 -0.0638 -1.2256 -0.2114
   63SAPC  C314 5109   3.965   2.350   7.773  0.3262  0.8582  0.6268
   63SAPC  H14X 5110   3.935   2.437   7.835 -0.2553  1.1999 -0.1195
   63SAPC  H14Y 5111   4.058   2.377   7.720  1.6414 -0.7214  2.0780
   63SAPC  C315 5112   3.994   2.220   7.853 -0.0195 -0.2291 -1.2403
   63SAPC  H15X 5113   4.007   2.140   7.777  1.2252 -1.0463 -0.1873
   63SAPC  H15Y 5114   3.901   2.185   7.904  0.2706  0.2364 -0.3806
   63SAPC  C316 5115   4.107   2.228   7.963 -0.3009  0.5482  0.5818
   63SAPC  H16X 5116   4.069   2.283   8.052  1.7602  0.2821  1.6451
   63SAPC  H16Y 5117   4.173   2.303   7.915  0.0077  1.1601  1.9375
   63SAPC  C317 5118   4.176   2.093   7.990 -0.3772  0.6249 -0.2177
   63SAPC  H17X 5119   4.287   2.102   7.994 -0.2339 -1.1958 -0.0088
   63SAPC  H17Y 5120   4.141   2.030   7.906 -0.4254 -1.3973  1.2868
   63SAPC  C318 5121   4.133   2.028   8.125 -0.0475  0.5382 -0.0253
   63SAPC  H18X 5122   4.202   1.941   8.135  0.0505  0.6717  0.4480
   63SAPC  H18Y 5123   4.033   1.987   8.099 -0.2187  1.5618 -1.0210
   63SAPC  H18Z 5124   4.127   2.094   8.214  3.1239  1.8328 -0.6945
   64SAPC     N 5125   4.990   2.365   5.774  0.2656  0.0564 -0.0500
   64SAPC   C12 5126   5.119   2.315   5.841 -0.1762  0.2406 -0.0641
   64SAPC  H12A 5127   5.194   2.393   5.833 -0.5972  0.7535  0.9503
   64SAPC  H12B 5128   5.162   2.237   5.780 -1.9100 -0.1575 -0.8043
   64SAPC   C13 5129   4.908   2.460   5.861 -0.1611 -0.0607  0.7994
   64SAPC  H13A 5130   4.814   2.472   5.809 -0.9758 -1.4269  1.9192
   64SAPC  H13B 5131   4.879   2.409   5.951  0.2458  0.9483  1.4988
   64SAPC  H13C 5132   4.961   2.551   5.881 -0.6069 -0.0682  2.0685
   64SAPC   C14 5133   5.007   2.422   5.636  0.8869 -0.3556  0.3583
   64SAPC  H14A 5134   4.915   2.428   5.580  0.3276  0.3001  1.3155
   64SAPC  H14B 5135   5.031   2.528   5.639 -0.5643  0.0117 -0.3190
   64SAPC  H14C 5136   5.082   2.373   5.577 -1.8069 -1.4830 -2.2420
   64SAPC   C15 5137   4.913   2.242   5.759  0.2663 -0.1681 -0.6335
   64SAPC  H15A 5138   4.916   2.179   5.847 -0.6715 -1.9874 -1.8736
   64SAPC  H15B 5139   4.811   2.272   5.737  0.0575 -1.0715 -0.9061
   64SAPC  H15C 5140   4.953   2.183   5.678 -0.7069 -1.4379 -0.2028
   64SAPC   C11 5141   5.120   2.264   5.987  0.2835  0.2142  0.6692
   64SAPC  H11A 5142   5.090   2.340   6.063 -3.0546 -2.0350  1.7553
   64SAPC  H11B 5143   5.220   2.226   6.017 -1.0601 -1.7532  2.8887
   64SAPC     P 5144   5.075   2.002   5.993 -0.2426  0.2060 -0.3297
   64SAPC   O13 5145   4.953   1.914   5.992 -0.1951 -0.0685 -0.6043
   64SAPC   O14 5146   5.177   1.983   5.884 -0.3132 -0.1873  0.0927
   64SAPC   O12 5147   5.031   2.154   5.998 -0.8986  0.1954  0.4085
   64SAPC   O11 5148   5.148   1.996   6.134 -0.0690 -0.2345 -0.6730
   64SAPC    C1 5149   5.085   2.045   6.261  0.0203 -0.9637  0.2035
   64SAPC    HA 5150   5.118   2.150   6.276 -2.0631  0.0384 -1.8337
   64SAPC    HB 5151   4.974   2.044   6.248 -0.2692  1.6108  2.0837
   64SAPC    C2 5152   5.122   1.961   6.385 -0.4921  0.4537  0.5630
   64SAPC    HS 5153   5.063   1.991   6.474 -0.5968 -2.5078  1.5322
   64SAPC   O21 5154   5.265   1.967   6.412 -0.3249 -0.2540 -0.3492
   64SAPC   C21 5155   5.302   2.087   6.475  0.3510 -0.5316  0.1021
   64SAPC   O22 5156   5.221   2.175   6.509 -0.0257  0.0055 -0.3165
   64SAPC   C22 5157   5.454   2.084   6.497  0.4229  0.0201  0.7318
   64SAPC   H2R 5158   5.466   2.008   6.577 -1.7537 -0.4247  0.6655
   64SAPC   H2S 5159   5.512   2.040   6.413 -1.1624 -2.2924  0.7950
   64SAPC    C3 5160   5.081   1.809   6.360 -0.0967  0.4448 -0.2173
   64SAPC    HX 5161   5.151   1.775   6.280  0.2697  0.4244  0.1115
   64SAPC    HY 5162   4.981   1.803   6.312 -0.6017 -0.1713  0.8799
   64SAPC   O31 5163   5.078   1.741   6.488 -0.3240 -0.7254  0.0163
   64SAPC   C31 5164   5.168   1.652   6.507  0.5930 -0.4128 -0.6050
   64SAPC   O32 5165   5.265   1.632   6.436  0.3780  0.0991 -0.1484
   64SAPC   C32 5166   5.148   1.576   6.632  0.5165 -0.1532  0.0934
   64SAPC   H2X 5167   5.151   1.466   6.619 -2.1833 -0.2137 -0.1948
   64SAPC   H2Y 5168   5.050   1.607   6.673  0.2457  0.0623 -0.7007
   64SAPC   C23 5169   5.517   2.219   6.527 -0.3940 -0.5394  0.7386
   64SAPC   H3R 5170   5.464   2.295   6.466  0.7291  0.0915  0.5306
   64SAPC   H3S 5171   5.626   2.214   6.505 -0.4290  0.0486  0.4286
   64SAPC   C24 5172   5.485   2.259   6.674 -0.3464 -0.0018 -0.1253
   64SAPC   H4R 5173   5.537   2.184   6.737  1.5612  2.0490  0.8052
   64SAPC   H4S 5174   5.374   2.256   6.678 -0.3995 -1.6972 -1.7764
   64SAPC   C25 5175   5.542   2.394   6.710  0.1494 -0.1922 -0.5649
   64SAPC   H5R 5176   5.489   2.476   6.659 -3.1622 -1.9051  0.0147
   64SAPC   C26 5177   5.647   2.424   6.793 -0.2946 -0.8636  0.2813
   64SAPC   H6R 5178   5.662   2.529   6.822  0.5796 -0.8302 -0.2753
   64SAPC   C27 5179   5.724   2.314   6.857 -0.5299 -0.0701  0.5519
   64SAPC   H7R 5180   5.769   2.253   6.776  0.5885 -0.4109  1.4238
   64SAPC   H7S 5181   5.657   2.250   6.918  0.2353 -3.2108 -1.7948
   64SAPC   C28 5182   5.853   2.358   6.923  0.6338  0.9838  0.0300
   64SAPC   H8R 5183   5.938   2.380   6.856  0.4901 -0.5696 -0.6824
   64SAPC   C29 5184   5.856   2.384   7.053  0.0088  0.3307 -0.2863
   64SAPC   H9R 5185   5.951   2.418   7.099 -0.7540  0.7965  0.9636
   64SAPC  C210 5186   5.733   2.370   7.140 -0.1053  0.2831  0.5973
   64SAPC  H10R 5187   5.700   2.264   7.140  0.3543  0.1121 -2.5078
   64SAPC  H10S 5188   5.654   2.432   7.094 -0.0300 -0.3313 -0.3820
   64SAPC  C211 5189   5.767   2.417   7.280  0.6072 -0.4925 -0.2925
   64SAPC  H11R 5190   5.818   2.344   7.344  0.0992 -1.5233 -1.0424
   64SAPC  C212 5191   5.721   2.529   7.342  0.0003  0.5263  0.4578
   64SAPC  H12R 5192   5.750   2.534   7.448 -1.1894  2.2305  0.7227
   64SAPC  C213 5193   5.623   2.629   7.287  0.1929 -1.0112 -0.7074
   64SAPC  H13R 5194   5.546   2.650   7.364  1.5559 -0.9700  0.6671
   64SAPC  H13S 5195   5.564   2.585   7.203  0.2531 -0.9747 -0.7698
   64SAPC  C214 5196   5.685   2.759   7.238  0.0950  0.1588  0.1717
   64SAPC  H14R 5197   5.778   2.760   7.180 -0.8427  1.3394 -1.3448
   64SAPC  C215 5198   5.641   2.884   7.276 -0.4995 -0.0563 -0.0303
   64SAPC  H15R 5199   5.691   2.973   7.236  0.8680 -1.1538 -0.8042
   64SAPC  C216 5200   5.530   2.909   7.368  0.1655  0.4099 -0.1805
   64SAPC  H16R 5201   5.455   2.828   7.380 -0.5425  1.1004  0.1104
   64SAPC  H16S 5202   5.469   2.991   7.323 -2.2240 -0.7543  0.8450
   64SAPC  C217 5203   5.582   2.946   7.508 -0.1109  0.0156  0.4273
   64SAPC  H17R 5204   5.639   3.041   7.498 -2.0248  1.1977  0.5239
   64SAPC  H17S 5205   5.659   2.869   7.534  0.2927  0.6243  1.0729
   64SAPC  C218 5206   5.482   2.951   7.615 -0.1167  0.2058  0.4797
   64SAPC  H18R 5207   5.397   2.879   7.606  0.6158 -0.7468  1.1320
   64SAPC  H18S 5208   5.427   3.046   7.595 -1.5938 -0.8155 -0.3882
   64SAPC  C219 5209   5.548   2.959   7.750 -0.1483  0.8493 -0.0646
   64SAPC  H19R 5210   5.603   3.054   7.738  0.5236  0.3131 -1.3974
   64SAPC  H19S 5211   5.636   2.895   7.776  0.6328  1.6623 -0.6661
   64SAPC  C220 5212   5.452   2.953   7.864  0.7509 -0.2752  0.6240
   64SAPC  H20R 5213   5.388   3.040   7.841 -0.7338 -1.8414 -1.3479
   64SAPC  H20S 5214   5.498   2.948   7.965  2.0891  0.3806  0.0678
   64SAPC  H20T 5215   5.387   2.863   7.858  0.5809 -0.0434 -1.6633
   64SAPC   C33 5216   5.262   1.623   6.724 -0.6259 -0.5161 -0.2418
   64SAPC   H3X 5217   5.363   1.619   6.678  0.3847  1.5676  1.6777
   64SAPC   H3Y 5218   5.268   1.556   6.813  1.8194  0.1170  0.1233
   64SAPC   C34 5219   5.239   1.773   6.772  0.1339 -0.3549  0.8426
   64SAPC   H4X 5220   5.139   1.774   6.821 -0.5520  1.2355 -0.5467
   64SAPC   H4Y 5221   5.235   1.843   6.686  0.4019 -2.2721 -0.7440
   64SAPC   C35 5222   5.340   1.825   6.869 -0.0290 -0.4145 -0.3997
   64SAPC   H5X 5223   5.440   1.820   6.823  0.1811 -1.9131  0.1817
   64SAPC   H5Y 5224   5.339   1.756   6.957 -0.4495 -0.8587 -0.7467
   64SAPC   C36 5225   5.314   1.974   6.913  0.2614  0.0151  0.1765
   64SAPC   H6X 5226   5.214   1.988   6.957  0.9350  2.3142  1.0522
   64SAPC   H6Y 5227   5.309   2.032   6.818  0.1838 -1.4857 -0.7436
   64SAPC   C37 5228   5.415   2.042   7.008 -1.3719  0.0525 -0.0783
   64SAPC   H7X 5229   5.376   2.138   7.049  0.1742 -0.2278  2.1782
   64SAPC   H7Y 5230   5.513   2.073   6.966 -0.5366 -0.3103  1.5569
   64SAPC   C38 5231   5.449   1.951   7.128  0.0268 -0.0819  0.1795
   64SAPC   H8X 5232   5.518   1.869   7.102  0.5421  0.2357  0.5426
   64SAPC   H8Y 5233   5.352   1.905   7.157 -0.0176  0.4309  0.8879
   64SAPC   C39 5234   5.514   2.011   7.251  0.3682  0.6595  0.8893
   64SAPC   H9X 5235   5.617   2.046   7.230 -0.4432  1.6705 -1.5582
   64SAPC   H9Y 5236   5.527   1.935   7.332  2.8971  2.6603  2.4443
   64SAPC  C310 5237   5.427   2.119   7.314 -0.0806  0.6654  0.1924
   64SAPC  H10X 5238   5.323   2.081   7.323 -0.1901  0.4203 -1.8916
   64SAPC  H10Y 5239   5.428   2.209   7.249  2.4493 -0.2520 -1.1278
   64SAPC  C311 5240   5.470   2.161   7.456 -0.1759  0.1885 -0.0340
   64SAPC  H11X 5241   5.424   2.259   7.479 -0.7444 -0.3468  1.1200
   64SAPC  H11Y 5242   5.578   2.188   7.453  0.4304 -2.1108  0.2290
   64SAPC  C312 5243   5.423   2.067   7.569  0.3945  0.3762  0.3988
   64SAPC  H12X 5244   5.465   1.964   7.572  0.0831  0.2288 -0.2926
   64SAPC  H12Y 5245   5.313   2.062   7.554  0.3658 -1.2046  1.0200
   64SAPC  C313 5246   5.446   2.121   7.711 -0.1772  0.5077 -0.7306
   64SAPC  H13X 5247   5.424   2.229   7.726  1.2087  0.3186  3.0903
   64SAPC  H13Y 5248   5.554   2.117   7.737 -0.4892  1.1410  0.7191
   64SAPC  C314 5249   5.364   2.036   7.817  0.1109 -0.0691 -0.6010
   64SAPC  H14X 5250   5.404   1.933   7.812  0.7682  0.1409  0.2515
   64SAPC  H14Y 5251   5.262   2.023   7.775 -0.7938 -0.2656  1.5961
   64SAPC  C315 5252   5.349   2.098   7.956 -0.0209  0.6646  0.0927
   64SAPC  H15X 5253   5.281   2.036   8.018 -0.4710  1.4230  0.3738
   64SAPC  H15Y 5254   5.305   2.200   7.953 -1.4907  0.0394 -0.1155
   64SAPC  C316 5255   5.489   2.119   8.025  0.4119  0.0482 -0.2999
   64SAPC  H16X 5256   5.543   2.190   7.959  1.4485 -0.3166  0.1412
   64SAPC  H16Y 5257   5.556   2.030   8.021 -1.6051 -1.4173 -2.2572
   64SAPC  C317 5258   5.475   2.174   8.169  0.1918 -0.0103 -0.0691
   64SAPC  H17X 5259   5.408   2.262   8.171  1.4272  0.9502 -0.3189
   64SAPC  H17Y 5260   5.574   2.219   8.191  1.3861 -0.8895 -3.3206
   64SAPC  C318 5261   5.434   2.074   8.277  0.7103 -0.1720  0.1308
   64SAPC  H18X 5262   5.416   2.131   8.371  3.3390  0.7858  0.0952
   64SAPC  H18Y 5263   5.524   2.013   8.295  1.1309  0.1416 -0.9024
   64SAPC  H18Z 5264   5.337   2.025   8.255  0.0709  0.9230  0.4446
   65SAPC     N 5265   5.334   4.610   6.046 -0.1062  0.4202 -0.0658
   65SAPC   C12 5266   5.246   4.616   5.919 -0.4520 -0.4601  0.0757
   65SAPC  H12A 5267   5.202   4.520   5.897 -2.6391  1.1468 -2.8986
   65SAPC  H12B 5268   5.308   4.644   5.835 -0.5471 -2.1823 -0.5992
   65SAPC   C13 5269   5.256   4.552   6.153 -0.2150  0.0633  0.4393
   65SAPC  H13A 5270   5.236   4.446   6.138  0.9395 -0.0825 -0.1206
   65SAPC  H13B 5271   5.311   4.556   6.245  1.3035 -4.7682 -0.0946
   65SAPC  H13C 5272   5.162   4.604   6.162  0.3055  1.1367 -0.2363
   65SAPC   C14 5273   5.456   4.530   6.019  0.2048 -0.3437 -0.5375
   65SAPC  H14A 5274   5.508   4.525   6.114  0.0091  2.2400 -0.2525
   65SAPC  H14B 5275   5.436   4.428   5.987  0.6058 -0.1818 -1.3198
   65SAPC  H14C 5276   5.511   4.582   5.942 -0.2618 -1.7025 -1.8120
   65SAPC   C15 5277   5.380   4.747   6.071 -0.0778 -0.0387  0.0312
   65SAPC  H15A 5278   5.456   4.776   5.999 -0.6746 -0.2937 -0.7156
   65SAPC  H15B 5279   5.293   4.810   6.060  0.9043  1.6328  1.5444
   65SAPC  H15C 5280   5.426   4.756   6.168 -2.2893  1.0399  0.9977
   65SAPC   C11 5281   5.118   4.708   5.917  0.6078 -0.4127  0.5336
   65SAPC  H11A 5282   5.076   4.708   5.814  2.9003 -2.1486 -0.4249
   65SAPC  H11B 5283   5.141   4.815   5.936 -1.3206  0.3436 -1.1775
   65SAPC     P 5284   4.875   4.716   6.004 -0.2450 -0.4760 -0.6206
   65SAPC   O13 5285   4.890   4.863   6.016  0.0630  0.2509 -0.0933
   65SAPC   O14 5286   4.818   4.659   5.880 -0.2860  0.0912 -0.3856
   65SAPC   O12 5287   5.023   4.658   6.014 -0.0616  0.0342 -0.1467
   65SAPC   O11 5288   4.811   4.656   6.136  0.1728  0.2558 -0.5985
   65SAPC    C1 5289   4.898   4.611   6.249  0.0644  0.3111  0.7727
   65SAPC    HA 5290   4.930   4.506   6.232  0.4057  0.7607 -1.6205
   65SAPC    HB 5291   4.992   4.670   6.258  0.4757 -0.4029  1.1970
   65SAPC    C2 5292   4.836   4.614   6.396 -0.0787 -0.3624 -0.3701
   65SAPC    HS 5293   4.833   4.723   6.413 -0.1696 -0.6918  1.9372
   65SAPC   O21 5294   4.913   4.543   6.497  0.5424 -0.0118 -0.2024
   65SAPC   C21 5295   5.017   4.593   6.543  0.0417  0.5424  0.1785
   65SAPC   O22 5296   5.064   4.704   6.518  0.4684 -0.3042  1.0295
   65SAPC   C22 5297   5.083   4.502   6.648 -0.1911 -0.0961 -0.3768
   65SAPC   H2R 5298   5.023   4.411   6.666 -2.3504  0.8092 -2.7468
   65SAPC   H2S 5299   5.170   4.467   6.588  0.6607 -1.3286  1.5099
   65SAPC    C3 5300   4.690   4.565   6.378  0.4883 -0.4523 -0.0410
   65SAPC    HX 5301   4.682   4.470   6.322  1.9666 -0.1446 -0.7959
   65SAPC    HY 5302   4.642   4.646   6.320  0.8183 -0.6620 -0.6041
   65SAPC   O31 5303   4.637   4.539   6.512 -0.4309 -0.4013 -1.5260
   65SAPC   C31 5304   4.574   4.644   6.575 -0.1286  0.2736  0.0479
   65SAPC   O32 5305   4.582   4.754   6.542  1.1081 -0.1934 -0.5334
   65SAPC   C32 5306   4.509   4.595   6.709  0.7794  0.7159  0.3794
   65SAPC   H2X 5307   4.432   4.670   6.735 -0.1482 -0.6042  1.5247
   65SAPC   H2Y 5308   4.599   4.596   6.774  2.5871 -0.9887 -1.9846
   65SAPC   C23 5309   5.129   4.578   6.769 -0.3231  0.0079  0.8801
   65SAPC   H3R 5310   5.192   4.661   6.731  1.3184 -1.6612 -0.0991
   65SAPC   H3S 5311   5.189   4.518   6.841  0.3355 -0.7508 -0.2879
   65SAPC   C24 5312   5.014   4.621   6.867  0.2532 -1.4650 -0.2902
   65SAPC   H4R 5313   5.065   4.633   6.966  0.0869  3.2143 -0.6523
   65SAPC   H4S 5314   4.937   4.542   6.881 -1.0392 -0.2833 -0.6568
   65SAPC   C25 5315   4.942   4.750   6.830 -0.0311  0.5198  0.0039
   65SAPC   H5R 5316   4.988   4.787   6.737 -0.3225 -1.5574 -1.0128
   65SAPC   C26 5317   4.836   4.804   6.887 -0.4851 -0.7534 -0.2793
   65SAPC   H6R 5318   4.798   4.899   6.844 -0.5133  0.7271  2.8704
   65SAPC   C27 5319   4.774   4.736   7.006  0.0920  0.3754 -1.0872
   65SAPC   H7R 5320   4.824   4.639   7.027  1.0419  1.6644  3.1006
   65SAPC   H7S 5321   4.675   4.705   6.966 -1.6312  1.5874  2.0182
   65SAPC   C28 5322   4.751   4.816   7.136 -0.4456 -0.4362  0.1224
   65SAPC   H8R 5323   4.716   4.919   7.120  1.7697  0.6199  1.8115
   65SAPC   C29 5324   4.780   4.785   7.261  0.5223 -0.0708 -0.1434
   65SAPC   H9R 5325   4.756   4.859   7.339  4.2852  2.3981 -1.1682
   65SAPC  C210 5326   4.849   4.662   7.302  0.3700  0.0149 -0.3574
   65SAPC  H10R 5327   4.943   4.684   7.358 -0.7821  0.6284  1.3740
   65SAPC  H10S 5328   4.892   4.598   7.222 -1.8421 -3.1481  0.8975
   65SAPC  C211 5329   4.755   4.572   7.381  0.1296 -0.7176 -0.4431
   65SAPC  H11R 5330   4.691   4.516   7.311 -2.3163 -0.7312  1.7407
   65SAPC  C212 5331   4.740   4.571   7.510 -0.4226  0.1151 -0.3618
   65SAPC  H12R 5332   4.658   4.511   7.553  1.2751 -1.6317  0.5351
   65SAPC  C213 5333   4.823   4.653   7.606  0.9246 -0.5315  0.2885
   65SAPC  H13R 5334   4.931   4.630   7.605  1.0452 -0.1388  2.3665
   65SAPC  H13S 5335   4.797   4.611   7.705  1.1136 -1.2648  0.0271
   65SAPC  C214 5336   4.799   4.803   7.613  0.0167 -0.2722  0.0646
   65SAPC  H14R 5337   4.699   4.838   7.584  0.2372  2.6007  2.5285
   65SAPC  C215 5338   4.883   4.902   7.658 -0.0335 -0.2508 -0.0781
   65SAPC  H15R 5339   4.849   5.006   7.665 -0.1634 -0.3512  0.8140
   65SAPC  C216 5340   5.024   4.870   7.717 -0.4761 -0.2349  0.2835
   65SAPC  H16R 5341   5.089   4.959   7.700  1.1423 -1.4530 -0.1420
   65SAPC  H16S 5342   5.073   4.782   7.670 -1.9363 -0.5999 -0.5743
   65SAPC  C217 5343   5.028   4.836   7.858 -0.9562 -0.5976 -0.3816
   65SAPC  H17R 5344   4.992   4.737   7.893  0.3795 -0.2460  2.1736
   65SAPC  H17S 5345   4.964   4.902   7.921 -1.0932 -0.8772 -0.2208
   65SAPC  C218 5346   5.171   4.844   7.915 -0.1256 -0.4672  0.8622
   65SAPC  H18R 5347   5.221   4.939   7.885  3.4419 -2.1802  1.1772
   65SAPC  H18S 5348   5.232   4.773   7.856 -0.8732  1.2535 -2.0840
   65SAPC  C219 5349   5.174   4.831   8.066 -0.6289  0.7502  0.6338
   65SAPC  H19R 5350   5.104   4.751   8.100 -1.3747  1.6169  1.1562
   65SAPC  H19S 5351   5.137   4.921   8.119  0.5042  0.8373  1.2751
   65SAPC  C220 5352   5.318   4.812   8.113 -0.3974 -0.5188 -0.7358
   65SAPC  H20R 5353   5.360   4.715   8.080  0.3183 -0.4677  0.0173
   65SAPC  H20S 5354   5.314   4.797   8.223  3.4671  0.9605 -0.3190
   65SAPC  H20T 5355   5.381   4.902   8.093 -2.5575  1.3358  0.5933
   65SAPC   C33 5356   4.448   4.455   6.724 -0.3315  0.0254 -0.2765
   65SAPC   H3X 5357   4.533   4.385   6.736 -0.7182 -0.5262 -0.7297
   65SAPC   H3Y 5358   4.386   4.422   6.638 -1.2194  0.8508  0.0326
   65SAPC   C34 5359   4.382   4.433   6.859  0.0257 -0.0811 -0.1597
   65SAPC   H4X 5360   4.393   4.325   6.883  1.5185 -0.3756 -2.0209
   65SAPC   H4Y 5361   4.277   4.455   6.832  0.3201 -0.9953 -2.1571
   65SAPC   C35 5362   4.441   4.508   6.983 -0.7173 -0.1591  0.4347
   65SAPC   H5X 5363   4.436   4.618   6.968  4.2329  0.0742  0.0067
   65SAPC   H5Y 5364   4.548   4.482   6.995 -0.0601  0.9438 -2.6123
   65SAPC   C36 5365   4.361   4.499   7.113 -1.0369  0.1044 -0.3179
   65SAPC   H6X 5366   4.339   4.395   7.143 -0.4039  0.0365 -0.0829
   65SAPC   H6Y 5367   4.271   4.558   7.087 -0.3457  0.6787 -1.5034
   65SAPC   C37 5368   4.420   4.571   7.241  0.1515 -0.0408 -0.6264
   65SAPC   H7X 5369   4.472   4.667   7.223  0.1490  0.1349  0.2839
   65SAPC   H7Y 5370   4.495   4.500   7.281  0.6215  0.1111 -1.2310
   65SAPC   C38 5371   4.314   4.598   7.353 -0.2493 -0.5407  0.3270
   65SAPC   H8X 5372   4.252   4.507   7.373 -1.0098 -0.5329 -1.7563
   65SAPC   H8Y 5373   4.248   4.671   7.301 -0.6030 -0.4114  0.9486
   65SAPC   C39 5374   4.375   4.667   7.475 -0.4430  0.4385  0.5910
   65SAPC   H9X 5375   4.404   4.768   7.439 -0.1579 -0.6755 -2.3846
   65SAPC   H9Y 5376   4.475   4.623   7.495  0.9390  2.9268 -0.6824
   65SAPC  C310 5377   4.280   4.682   7.591  0.1190  0.0378 -0.0201
   65SAPC  H10X 5378   4.261   4.587   7.646  0.5017 -0.8048 -1.3138
   65SAPC  H10Y 5379   4.181   4.723   7.561 -0.6868 -1.4128  0.5926
   65SAPC  C311 5380   4.344   4.779   7.693 -0.6714  1.0393  0.0727
   65SAPC  H11X 5381   4.270   4.819   7.766 -1.4531 -0.2304 -0.0063
   65SAPC  H11Y 5382   4.379   4.874   7.648 -1.1153  0.9636 -0.4288
   65SAPC  C312 5383   4.459   4.714   7.777  0.5200  0.2921 -0.5050
   65SAPC  H12X 5384   4.540   4.690   7.705  1.1884  0.2602  0.2425
   65SAPC  H12Y 5385   4.437   4.622   7.836 -1.1323  0.2298 -1.2015
   65SAPC  C313 5386   4.534   4.819   7.867  0.2644 -0.3322 -0.6491
   65SAPC  H13X 5387   4.461   4.852   7.944 -0.0663  0.9492 -1.4924
   65SAPC  H13Y 5388   4.550   4.912   7.809 -0.0833  0.6649  0.8252
   65SAPC  C314 5389   4.657   4.764   7.935  0.3536 -1.6953 -0.0326
   65SAPC  H14X 5390   4.736   4.760   7.857 -2.0364  2.0647 -2.8000
   65SAPC  H14Y 5391   4.638   4.660   7.970  0.7369 -1.5752  0.5530
   65SAPC  C315 5392   4.692   4.851   8.055  0.0753 -0.2303 -0.2087
   65SAPC  H15X 5393   4.789   4.818   8.099 -0.9796  1.2354  3.4208
   65SAPC  H15Y 5394   4.610   4.836   8.128 -1.1720 -1.1115 -1.7516
   65SAPC  C316 5395   4.707   5.000   8.011 -0.3787 -1.3924  0.0998
   65SAPC  H16X 5396   4.604   5.035   7.984  0.0598 -0.8381 -0.8762
   65SAPC  H16Y 5397   4.762   5.003   7.914  0.3887 -0.2026  0.5656
   65SAPC  C317 5398   4.768   5.101   8.111 -0.7363 -0.6839  0.7877
   65SAPC  H17X 5399   4.747   5.198   8.060 -0.4810 -1.1687 -0.2639
   65SAPC  H17Y 5400   4.877   5.091   8.129 -0.1021 -0.8053 -2.7688
   65SAPC  C318 5401   4.687   5.102   8.247 -0.5146  0.5929 -0.0019
   65SAPC  H18X 5402   4.582   5.128   8.222 -0.7734  0.8437  1.2830
   65SAPC  H18Y 5403   4.730   5.181   8.313 -0.5762  2.0034 -1.6077
   65SAPC  H18Z 5404   4.686   5.006   8.303  1.3722  0.6421  0.1624
   66SAPC     N 5405   3.554   3.265   5.859 -0.1818  0.0704  0.0810
   66SAPC   C12 5406   3.456   3.279   5.970 -0.1243 -0.4302  0.0816
   66SAPC  H12A 5407   3.491   3.232   6.061  0.6121 -0.3974 -0.1753
   66SAPC  H12B 5408   3.361   3.233   5.947 -0.9530  1.9803 -1.4318
   66SAPC   C13 5409   3.558   3.116   5.827  0.2259 -0.6003 -0.4548
   66SAPC  H13A 5410   3.458   3.089   5.799 -0.3637 -0.2713  1.2619
   66SAPC  H13B 5411   3.624   3.093   5.745  1.9260 -1.1440  1.0266
   66SAPC  H13C 5412   3.599   3.065   5.913  1.3387 -1.4282 -1.4592
   66SAPC   C14 5413   3.513   3.339   5.737  0.1629  0.5007 -0.1974
   66SAPC  H14A 5414   3.586   3.347   5.658  0.0950 -0.8060 -0.4107
   66SAPC  H14B 5415   3.425   3.296   5.691  0.9235 -0.2718 -0.9527
   66SAPC  H14C 5416   3.485   3.438   5.769  1.9607  2.7537 -5.0691
   66SAPC   C15 5417   3.693   3.313   5.896 -0.1994  0.0527  0.1844
   66SAPC  H15A 5418   3.721   3.265   5.989  3.2039  0.6463 -0.4886
   66SAPC  H15B 5419   3.763   3.288   5.818  0.2207 -0.4373  0.7160
   66SAPC  H15C 5420   3.693   3.421   5.904 -0.2613  0.1487 -1.0182
   66SAPC   C11 5421   3.435   3.426   6.010 -0.0385 -0.1142  0.4337
   66SAPC  H11A 5422   3.530   3.483   6.020 -0.2880  0.2003  1.0696
   66SAPC  H11B 5423   3.403   3.407   6.115  1.1264  0.1573  0.8480
   66SAPC     P 5424   3.184   3.457   5.957 -0.1565 -0.1065 -0.1138
   66SAPC   O13 5425   3.095   3.573   5.938  0.0477  0.0095 -0.4834
   66SAPC   O14 5426   3.156   3.341   5.868  1.2762 -0.6322  0.7334
   66SAPC   O12 5427   3.339   3.498   5.936 -0.0988  0.7543  0.0658
   66SAPC   O11 5428   3.179   3.414   6.108  0.8626  0.1513  0.1645
   66SAPC    C1 5429   3.130   3.495   6.210 -0.0922 -0.2387 -0.7088
   66SAPC    HA 5430   3.210   3.561   6.250 -1.1676 -0.0892  1.2119
   66SAPC    HB 5431   3.039   3.555   6.188 -0.7937 -1.0053  0.0812
   66SAPC    C2 5432   3.089   3.401   6.324  0.0914  0.1808  0.0885
   66SAPC    HS 5433   2.996   3.351   6.290  1.6644 -0.1045 -4.0181
   66SAPC   O21 5434   3.065   3.480   6.442 -0.7387 -0.2603 -0.0959
   66SAPC   C21 5435   2.995   3.429   6.545 -0.3865  0.4602  0.1047
   66SAPC   O22 5436   2.914   3.342   6.531 -0.1584  0.1261  0.3081
   66SAPC   C22 5437   3.037   3.487   6.673  0.1491 -0.3031 -0.2054
   66SAPC   H2R 5438   3.122   3.555   6.649  2.7233 -3.7669 -1.2051
   66SAPC   H2S 5439   2.954   3.542   6.723  1.1796  0.5333  0.6251
   66SAPC    C3 5440   3.207   3.292   6.345 -0.1553  0.1973 -0.9411
   66SAPC    HX 5441   3.292   3.353   6.384 -1.6673  1.1992  0.8786
   66SAPC    HY 5442   3.243   3.247   6.250 -0.5394  0.2131 -1.0915
   66SAPC   O31 5443   3.168   3.201   6.440  0.4883 -0.4868  0.2978
   66SAPC   C31 5444   3.080   3.108   6.414 -0.8383 -0.5363 -0.2949
   66SAPC   O32 5445   3.038   3.074   6.302  0.0191  0.0441 -0.4376
   66SAPC   C32 5446   3.037   3.045   6.549  0.1363 -0.8628 -0.0742
   66SAPC   H2X 5447   3.012   3.134   6.612 -1.3817 -1.2288 -0.1539
   66SAPC   H2Y 5448   3.135   3.004   6.584 -0.3233 -2.1737 -0.3267
   66SAPC   C23 5449   3.094   3.393   6.785  0.2547  0.3417 -0.1316
   66SAPC   H3R 5450   3.141   3.455   6.865  0.8891 -0.6139  0.2555
   66SAPC   H3S 5451   3.177   3.330   6.744 -1.2317 -2.3014  0.8487
   66SAPC   C24 5452   2.994   3.286   6.846 -0.4874 -0.4986 -0.0441
   66SAPC   H4R 5453   3.047   3.207   6.902 -0.7390 -0.1020  0.7656
   66SAPC   H4S 5454   2.949   3.228   6.762  0.3661 -0.3206 -0.6296
   66SAPC   C25 5455   2.887   3.340   6.940  0.9072  0.1434  0.2533
   66SAPC   H5R 5456   2.813   3.404   6.891  0.1025 -0.0778  1.1692
   66SAPC   C26 5457   2.888   3.333   7.074 -0.1296 -0.4126  0.7089
   66SAPC   H6R 5458   2.806   3.380   7.131 -1.3686 -0.3419 -1.0866
   66SAPC   C27 5459   2.989   3.266   7.163 -0.2564  0.3580  0.5291
   66SAPC   H7R 5460   3.038   3.182   7.109  0.5712  0.9486  0.3528
   66SAPC   H7S 5461   2.928   3.217   7.242  0.2645 -0.8658  0.1797
   66SAPC   C28 5462   3.097   3.363   7.217 -0.2888  0.6136  0.1268
   66SAPC   H8R 5463   3.154   3.404   7.132 -0.2491  1.4171  0.5385
   66SAPC   C29 5464   3.136   3.381   7.345 -0.5545 -0.4627  0.2856
   66SAPC   H9R 5465   3.224   3.448   7.354 -0.1280 -0.9421 -0.2559
   66SAPC  C210 5466   3.073   3.339   7.474 -0.0463  0.3521 -0.3686
   66SAPC  H10R 5467   3.147   3.314   7.553 -0.6671 -0.3976 -0.0175
   66SAPC  H10S 5468   3.036   3.236   7.457  0.0200  0.2722 -0.0276
   66SAPC  C211 5469   2.952   3.419   7.513 -0.5602  0.6790 -0.2412
   66SAPC  H11R 5470   2.904   3.480   7.436  2.5134  0.3593 -2.5118
   66SAPC  C212 5471   2.901   3.414   7.638 -0.4764 -0.4985  0.0554
   66SAPC  H12R 5472   2.816   3.478   7.667  1.8678  2.3993  0.7428
   66SAPC  C213 5473   2.945   3.324   7.754 -0.0904  0.1397  0.2141
   66SAPC  H13R 5474   3.003   3.236   7.722 -0.0720  1.2290 -2.9411
   66SAPC  H13S 5475   2.852   3.277   7.792  0.6864 -1.9543 -0.4169
   66SAPC  C214 5476   3.016   3.409   7.859 -0.8689  0.1863 -0.3825
   66SAPC  H14R 5477   3.099   3.469   7.819  1.2534 -2.9613 -0.9493
   66SAPC  C215 5478   2.998   3.400   7.988  0.2517  0.3045 -0.7304
   66SAPC  H15R 5479   3.043   3.476   8.054  1.4261  0.5655 -1.8155
   66SAPC  C216 5480   2.904   3.305   8.061 -0.4497  0.3772  0.5162
   66SAPC  H16R 5481   2.854   3.245   7.982  3.0927 -1.5523 -0.4056
   66SAPC  H16S 5482   2.829   3.356   8.125 -0.9411 -4.4640  4.0521
   66SAPC  C217 5483   2.968   3.216   8.168 -0.8694  0.4159 -0.5597
   66SAPC  H17R 5484   2.986   3.271   8.262 -2.1049  0.6965 -0.4879
   66SAPC  H17S 5485   3.069   3.177   8.139 -1.0192 -1.2693  1.0531
   66SAPC  C218 5486   2.876   3.096   8.207  0.2309 -0.3434  0.3548
   66SAPC  H18R 5487   2.911   3.023   8.282 -0.0240 -0.4152  0.4044
   66SAPC  H18S 5488   2.856   3.051   8.108 -0.6026  1.9693 -0.5670
   66SAPC  C219 5489   2.734   3.142   8.254 -0.3104  0.7561  0.1166
   66SAPC  H19R 5490   2.657   3.064   8.235  2.2576 -1.5206 -1.3183
   66SAPC  H19S 5491   2.704   3.231   8.194 -0.2141 -0.1610 -1.3128
   66SAPC  C220 5492   2.734   3.175   8.401 -0.4151 -0.2127 -0.3209
   66SAPC  H20R 5493   2.739   3.078   8.455  2.5320 -0.1740 -0.4629
   66SAPC  H20S 5494   2.644   3.236   8.426 -0.8201 -0.5571 -0.9193
   66SAPC  H20T 5495   2.823   3.239   8.420  0.2618 -1.9609  2.8366
   66SAPC   C33 5496   2.928   2.937   6.535  0.7679  0.6588  0.1093
   66SAPC   H3X 5497   2.942   2.876   6.443  2.0147 -1.1255  1.4387
   66SAPC   H3Y 5498   2.826   2.978   6.527  0.2331 -0.9910 -1.8226
   66SAPC   C34 5499   2.931   2.847   6.660 -0.6870 -0.6324 -0.6972
   66SAPC   H4X 5500   3.018   2.778   6.657  0.1233  0.2152  1.8443
   66SAPC   H4Y 5501   2.837   2.788   6.665 -1.7461  1.1164  0.7398
   66SAPC   C35 5502   2.939   2.931   6.788 -0.0772  0.2332 -0.4923
   66SAPC   H5X 5503   2.851   2.999   6.785  1.7890  3.0734  4.0652
   66SAPC   H5Y 5504   3.027   2.997   6.792 -0.5263  0.8662 -0.9839
   66SAPC   C36 5505   2.936   2.837   6.908  0.2621 -0.0974 -0.0830
   66SAPC   H6X 5506   3.036   2.795   6.935 -0.8402 -2.6612  0.1328
   66SAPC   H6Y 5507   2.861   2.759   6.886 -1.3767  1.5172 -0.3191
   66SAPC   C37 5508   2.904   2.923   7.036  0.2554 -0.5324 -0.2840
   66SAPC   H7X 5509   2.821   2.994   7.014  0.7777  0.4865  0.9591
   66SAPC   H7Y 5510   2.985   2.995   7.061  0.0816 -1.2307  2.4575
   66SAPC   C38 5511   2.880   2.841   7.160 -0.3876 -0.0405 -0.2481
   66SAPC   H8X 5512   2.966   2.772   7.180 -1.2081 -0.1533  3.2522
   66SAPC   H8Y 5513   2.784   2.784   7.155 -0.5172  0.0612  0.8451
   66SAPC   C39 5514   2.876   2.934   7.283 -0.5030 -0.0520 -0.5190
   66SAPC   H9X 5515   2.800   3.013   7.271 -1.4144 -0.6222  1.2906
   66SAPC   H9Y 5516   2.972   2.987   7.301 -0.4012 -0.5380  0.4359
   66SAPC  C310 5517   2.850   2.860   7.420 -0.0511 -0.2863  0.2602
   66SAPC  H10X 5518   2.937   2.805   7.463  0.1205 -0.4681 -0.3116
   66SAPC  H10Y 5519   2.775   2.781   7.400 -1.9683  0.7167  3.1365
   66SAPC  C311 5520   2.797   2.951   7.537 -0.2198 -0.0843 -0.9626
   66SAPC  H11X 5521   2.694   2.985   7.513 -0.6077  0.7111  1.6737
   66SAPC  H11Y 5522   2.843   3.052   7.552  2.3495 -1.4613  0.8966
   66SAPC  C312 5523   2.815   2.900   7.681  0.4297  1.1225 -0.1993
   66SAPC  H12X 5524   2.801   2.988   7.748 -0.7424  0.4621  0.4399
   66SAPC  H12Y 5525   2.916   2.864   7.710  0.3375  0.3407 -0.8565
   66SAPC  C313 5526   2.726   2.785   7.722 -0.1405  0.1886  0.7309
   66SAPC  H13X 5527   2.744   2.700   7.653  2.2175  1.3383 -0.1465
   66SAPC  H13Y 5528   2.620   2.811   7.704  0.3902  0.7405 -1.8821
   66SAPC  C314 5529   2.749   2.737   7.859  0.2819  0.2283  0.5338
   66SAPC  H14X 5530   2.738   2.828   7.922  1.0602  0.4923  0.2920
   66SAPC  H14Y 5531   2.851   2.696   7.849  0.2874  0.6948 -1.5300
   66SAPC  C315 5532   2.651   2.634   7.924  0.4253  0.5774  0.1436
   66SAPC  H15X 5533   2.652   2.547   7.855 -0.8264  2.0742 -1.8318
   66SAPC  H15Y 5534   2.553   2.687   7.929  0.4007  0.7504 -1.7789
   66SAPC  C316 5535   2.679   2.591   8.070  0.6417  0.0197  0.6335
   66SAPC  H16X 5536   2.584   2.564   8.119 -0.2955  2.6793  0.3415
   66SAPC  H16Y 5537   2.712   2.671   8.139 -0.3347 -1.4066  2.7959
   66SAPC  C317 5538   2.773   2.474   8.071 -0.2594  0.6960  0.2548
   66SAPC  H17X 5539   2.863   2.495   8.009 -0.1188  0.7570  0.4785
   66SAPC  H17Y 5540   2.719   2.394   8.017 -2.4999 -0.6558  4.2317
   66SAPC  C318 5541   2.822   2.423   8.210  0.3951  0.7347  0.2370
   66SAPC  H18X 5542   2.742   2.381   8.274 -1.5977  0.8216 -2.0870
   66SAPC  H18Y 5543   2.862   2.513   8.261 -1.1151  2.7561 -1.9940
   66SAPC  H18Z 5544   2.907   2.355   8.191  0.1244  0.3351  0.4693
   67SAPC     N 5545   4.513   5.439   5.992 -0.1066 -0.5525  0.1457
   67SAPC   C12 5546   4.438   5.379   6.117 -0.4516  0.4513  0.2287
   67SAPC  H12A 5547   4.391   5.284   6.094  0.8879  0.0480 -0.9032
   67SAPC  H12B 5548   4.353   5.442   6.135 -1.0913  0.3524 -2.2162
   67SAPC   C13 5549   4.415   5.436   5.873 -0.6739  0.2366  0.2498
   67SAPC  H13A 5550   4.381   5.336   5.854 -2.2536  0.9627 -0.8762
   67SAPC  H13B 5551   4.337   5.510   5.887  0.8897  1.8096  0.9119
   67SAPC  H13C 5552   4.478   5.451   5.787 -0.4371 -2.3217 -0.0511
   67SAPC   C14 5553   4.567   5.572   6.003  0.7710 -0.7971  0.1708
   67SAPC  H14A 5554   4.488   5.641   6.029  1.1150 -0.1562 -0.4759
   67SAPC  H14B 5555   4.646   5.568   6.077  2.5882 -3.1138 -1.7983
   67SAPC  H14C 5556   4.604   5.591   5.903  0.2156 -2.3049 -0.3374
   67SAPC   C15 5557   4.638   5.346   5.959  0.6779  0.0464  0.2482
   67SAPC  H15A 5558   4.709   5.323   6.037 -0.1254 -3.1750  0.1046
   67SAPC  H15B 5559   4.596   5.251   5.931  1.1524 -0.1855  0.3185
   67SAPC  H15C 5560   4.696   5.384   5.876 -0.1789 -3.1565 -1.9134
   67SAPC   C11 5561   4.513   5.356   6.243  0.3607 -0.4045 -0.0553
   67SAPC  H11A 5562   4.601   5.423   6.249 -1.7221  2.7862 -3.1266
   67SAPC  H11B 5563   4.560   5.255   6.245  2.0386  0.3711  0.5341
   67SAPC     P 5564   4.436   5.462   6.479 -0.2206 -0.6938 -0.0512
   67SAPC   O13 5565   4.475   5.599   6.441 -0.2090 -0.4405  0.0293
   67SAPC   O14 5566   4.317   5.452   6.559  0.2633  0.3528 -0.4120
   67SAPC   O12 5567   4.422   5.373   6.353  0.0710 -0.5211  0.3261
   67SAPC   O11 5568   4.544   5.392   6.566 -0.1277  0.7982 -0.5295
   67SAPC    C1 5569   4.552   5.251   6.573  0.0838  0.2313  0.5783
   67SAPC    HA 5570   4.485   5.218   6.656 -0.2917  2.4428  1.1908
   67SAPC    HB 5571   4.522   5.203   6.477  3.0130 -0.9429  0.2059
   67SAPC    C2 5572   4.695   5.204   6.611  0.8673 -0.1814 -0.1286
   67SAPC    HS 5573   4.688   5.093   6.622  0.6251 -0.5173 -3.2147
   67SAPC   O21 5574   4.735   5.269   6.735  0.4482  0.5968 -0.3488
   67SAPC   C21 5575   4.688   5.217   6.849  0.5853 -0.0079 -0.0902
   67SAPC   O22 5576   4.607   5.129   6.855  0.6013 -0.1985  0.4308
   67SAPC   C22 5577   4.741   5.291   6.970  0.9770 -0.1280  0.6365
   67SAPC   H2R 5578   4.852   5.282   6.970  1.0114  0.2986 -0.2532
   67SAPC   H2S 5579   4.708   5.397   6.971  1.2360 -0.0281  3.8186
   67SAPC    C3 5580   4.786   5.248   6.492 -0.0064  0.1046 -0.3082
   67SAPC    HX 5581   4.782   5.359   6.490  1.5739  0.1650 -0.5674
   67SAPC    HY 5582   4.741   5.203   6.401  1.1081 -2.3394  0.3094
   67SAPC   O31 5583   4.918   5.196   6.502 -0.5453  0.7987 -0.4501
   67SAPC   C31 5584   5.007   5.284   6.550  0.3183  0.4758  0.4351
   67SAPC   O32 5585   4.977   5.395   6.590  0.5764  0.3793 -0.0411
   67SAPC   C32 5586   5.137   5.209   6.566  0.0090  0.0569 -0.8498
   67SAPC   H2X 5587   5.198   5.297   6.596  0.5128 -0.9798  1.3164
   67SAPC   H2Y 5588   5.181   5.175   6.470 -0.7131 -0.8847 -0.8443
   67SAPC   C23 5589   4.701   5.240   7.110  0.0717 -0.1502 -0.6277
   67SAPC   H3R 5590   4.765   5.151   7.128  0.8851  0.7011  0.7703
   67SAPC   H3S 5591   4.593   5.223   7.087 -0.0191  2.6579 -2.5706
   67SAPC   C24 5592   4.714   5.336   7.232 -0.2698  0.7041  0.2769
   67SAPC   H4R 5593   4.655   5.293   7.315 -0.5937  0.2318 -0.1912
   67SAPC   H4S 5594   4.682   5.440   7.211  2.7948  1.9749  1.5813
   67SAPC   C25 5595   4.856   5.343   7.280 -0.8621 -0.2061  0.1259
   67SAPC   H5R 5596   4.933   5.363   7.204 -0.8371  1.2011  0.5132
   67SAPC   C26 5597   4.896   5.348   7.408 -0.8156 -0.2383 -0.0649
   67SAPC   H6R 5598   5.005   5.345   7.426 -0.7869 -1.8477 -0.4402
   67SAPC   C27 5599   4.802   5.347   7.528 -0.1956  0.7030 -0.1018
   67SAPC   H7R 5600   4.828   5.254   7.582  1.9628 -1.3824 -4.5128
   67SAPC   H7S 5601   4.693   5.335   7.510 -0.3298  0.7489  0.6414
   67SAPC   C28 5602   4.816   5.466   7.608  0.0917 -0.6093  0.2344
   67SAPC   H8R 5603   4.790   5.560   7.557 -2.3647 -1.1945  0.3417
   67SAPC   C29 5604   4.860   5.481   7.731  0.1082  0.4418  0.7078
   67SAPC   H9R 5605   4.871   5.586   7.762 -0.5062  0.9637 -0.8022
   67SAPC  C210 5606   4.907   5.375   7.831 -0.1364  0.1043 -0.3268
   67SAPC  H10R 5607   4.826   5.305   7.860 -0.6344  0.9935  0.4689
   67SAPC  H10S 5608   4.921   5.425   7.929 -1.2565  1.2916 -0.7473
   67SAPC  C211 5609   5.028   5.296   7.787  0.1357 -0.6280 -0.5818
   67SAPC  H11R 5610   5.049   5.303   7.679 -1.0624  1.6789 -0.7055
   67SAPC  C212 5611   5.108   5.224   7.865  0.2377  0.2720 -0.3013
   67SAPC  H12R 5612   5.179   5.161   7.810  0.8368  0.5953  0.0903
   67SAPC  C213 5613   5.094   5.208   8.014 -0.2559  0.1537 -0.8878
   67SAPC  H13R 5614   5.083   5.102   8.048  0.8180  0.5552  0.7772
   67SAPC  H13S 5615   5.009   5.271   8.046  0.7424  0.4493  1.2860
   67SAPC  C214 5616   5.231   5.237   8.079  0.5254 -0.0855  0.3336
   67SAPC  H14R 5617   5.306   5.157   8.076  2.6036  1.8471 -0.8110
   67SAPC  C215 5618   5.259   5.351   8.147 -0.4046  0.7222 -0.4795
   67SAPC  H15R 5619   5.359   5.362   8.192 -0.8079 -2.5885  1.3492
   67SAPC  C216 5620   5.176   5.467   8.177 -0.5623  0.1210 -0.3201
   67SAPC  H16R 5621   5.202   5.515   8.274 -1.3164  0.8873 -0.4941
   67SAPC  H16S 5622   5.067   5.445   8.176 -0.1842 -2.3206  2.6898
   67SAPC  C217 5623   5.214   5.578   8.073 -0.8088  0.9234 -0.6552
   67SAPC  H17R 5624   5.136   5.657   8.079  0.2488  1.9004  0.3823
   67SAPC  H17S 5625   5.211   5.535   7.970  0.8896  0.7131 -0.6379
   67SAPC  C218 5626   5.354   5.640   8.105 -0.2493  0.2030  0.5481
   67SAPC  H18R 5627   5.419   5.551   8.092  1.0541  0.9579  1.7312
   67SAPC  H18S 5628   5.347   5.674   8.210 -1.0122 -0.4508  0.7140
   67SAPC  C219 5629   5.386   5.758   8.015  0.7643 -0.1113 -0.0696
   67SAPC  H19R 5630   5.478   5.806   8.054  1.7639 -1.2877 -0.9352
   67SAPC  H19S 5631   5.299   5.826   8.007  1.3058  0.3967 -2.0761
   67SAPC  C220 5632   5.412   5.705   7.876  0.1242  0.1752  0.9254
   67SAPC  H20R 5633   5.456   5.788   7.817  3.4652 -1.5462  0.8522
   67SAPC  H20S 5634   5.320   5.663   7.830 -0.8425  2.1888  0.9744
   67SAPC  H20T 5635   5.476   5.617   7.897  0.2325 -0.2439 -1.0600
   67SAPC   C33 5636   5.150   5.093   6.668  0.0137 -0.3697 -0.2735
   67SAPC   H3X 5637   5.253   5.055   6.654 -0.0687  0.2383 -2.7818
   67SAPC   H3Y 5638   5.087   5.002   6.659 -0.0894 -0.2873 -0.3801
   67SAPC   C34 5639   5.107   5.144   6.804  0.8500 -0.1351 -0.3448
   67SAPC   H4X 5640   4.996   5.151   6.798  0.9466  0.8240 -1.0310
   67SAPC   H4Y 5641   5.137   5.248   6.828 -1.1727  0.2474  0.6436
   67SAPC   C35 5642   5.147   5.057   6.929 -0.0508  0.0520  0.1767
   67SAPC   H5X 5643   5.257   5.068   6.938 -0.1355  0.5309  0.6297
   67SAPC   H5Y 5644   5.120   4.952   6.906 -1.2801  0.1118  1.3290
   67SAPC   C36 5645   5.099   5.115   7.060  0.3572  0.2612 -0.1338
   67SAPC   H6X 5646   4.995   5.076   7.064 -0.7041  2.6541 -2.7008
   67SAPC   H6Y 5647   5.098   5.226   7.068 -1.5137  0.3827 -1.6785
   67SAPC   C37 5648   5.168   5.049   7.179 -0.0386  0.6195 -0.2335
   67SAPC   H7X 5649   5.119   5.095   7.268 -0.9816 -1.9183  0.6033
   67SAPC   H7Y 5650   5.276   5.074   7.185  0.1141 -0.1857  0.5174
   67SAPC   C38 5651   5.144   4.897   7.188  0.1388  0.0746 -0.1994
   67SAPC   H8X 5652   5.202   4.847   7.107  3.9603  0.5279  2.1740
   67SAPC   H8Y 5653   5.038   4.876   7.161  0.3324 -1.0658 -0.0722
   67SAPC   C39 5654   5.178   4.838   7.316  0.1304  0.5915 -0.1607
   67SAPC   H9X 5655   5.159   4.729   7.313 -0.2212  0.5899  1.3868
   67SAPC   H9Y 5656   5.115   4.887   7.393 -0.2526  0.7865 -0.6010
   67SAPC  C310 5657   5.324   4.825   7.355 -0.2870 -0.3313  0.2627
   67SAPC  H10X 5658   5.376   4.911   7.307 -1.5330  1.2838  1.7406
   67SAPC  H10Y 5659   5.365   4.730   7.314  2.1563 -0.1261  2.1040
   67SAPC  C311 5660   5.337   4.823   7.510  0.0778  0.1204  0.1612
   67SAPC  H11X 5661   5.334   4.716   7.539 -0.9867 -0.5137 -2.1651
   67SAPC  H11Y 5662   5.275   4.886   7.578 -2.1931 -1.4395 -0.3873
   67SAPC  C312 5663   5.476   4.889   7.555 -0.1487  0.4988  0.5045
   67SAPC  H12X 5664   5.477   4.995   7.521 -0.7581  0.6560  0.9697
   67SAPC  H12Y 5665   5.553   4.835   7.496 -1.2173  1.3749 -1.7793
   67SAPC  C313 5666   5.504   4.885   7.701  0.1739 -0.1459  0.5238
   67SAPC  H13X 5667   5.500   4.776   7.721  1.4773  0.1751  2.6625
   67SAPC  H13Y 5668   5.439   4.953   7.760  1.7281  1.6503  0.2093
   67SAPC  C314 5669   5.644   4.932   7.737  0.1822  0.1011 -0.6189
   67SAPC  H14X 5670   5.651   5.037   7.703  1.6636  0.2443  0.0993
   67SAPC  H14Y 5671   5.719   4.876   7.676  1.8127  2.5249 -0.8750
   67SAPC  C315 5672   5.692   4.917   7.882  0.5899 -0.1234 -0.4658
   67SAPC  H15X 5673   5.627   4.989   7.936 -1.1555 -1.9641 -0.0175
   67SAPC  H15Y 5674   5.796   4.956   7.883  0.9123 -0.9819 -0.2289
   67SAPC  C316 5675   5.670   4.787   7.959 -0.7070 -0.1495  1.0713
   67SAPC  H16X 5676   5.737   4.713   7.911 -2.1517 -0.8225  0.0403
   67SAPC  H16Y 5677   5.570   4.742   7.942 -0.4740 -0.4405  0.4511
   67SAPC  C317 5678   5.719   4.793   8.106  0.6017 -0.6249 -0.3039
   67SAPC  H17X 5679   5.649   4.857   8.163 -2.4727 -1.1142 -3.3744
   67SAPC  H17Y 5680   5.824   4.829   8.118  1.1743 -1.6025 -2.0683
   67SAPC  C318 5681   5.708   4.653   8.178  0.1306 -0.4350  1.0982
   67SAPC  H18X 5682   5.600   4.625   8.176  0.3784 -1.3837  0.8163
   67SAPC  H18Y 5683   5.734   4.657   8.286  2.4794  1.9282  0.4865
   67SAPC  H18Z 5684   5.776   4.581   8.129 -0.5140  0.6069 -1.3824
   68SAPC     N 5685   3.485   4.717   5.696 -0.0882  0.2408 -0.6937
   68SAPC   C12 5686   3.444   4.592   5.772  0.3028 -0.6510  1.0274
   68SAPC  H12A 5687   3.454   4.503   5.711 -0.2981 -0.4849  0.6895
   68SAPC  H12B 5688   3.340   4.584   5.798 -0.4125  2.5482 -0.6892
   68SAPC   C13 5689   3.633   4.699   5.673 -0.2682  0.3825  0.0433
   68SAPC  H13A 5690   3.670   4.781   5.612  1.3872 -0.4028 -0.0167
   68SAPC  H13B 5691   3.694   4.702   5.762  0.4236  2.1614 -0.4756
   68SAPC  H13C 5692   3.663   4.609   5.623 -0.3122 -0.2689  1.1724
   68SAPC   C14 5693   3.410   4.724   5.566 -0.7386  1.0483  0.0005
   68SAPC  H14A 5694   3.428   4.816   5.513  1.2156  0.2734 -0.7150
   68SAPC  H14B 5695   3.443   4.643   5.503 -3.6018  1.1798 -1.7414
   68SAPC  H14C 5696   3.302   4.715   5.574 -0.9060  0.0049 -3.0444
   68SAPC   C15 5697   3.464   4.836   5.793 -0.0459 -0.4006  0.0811
   68SAPC  H15A 5698   3.471   4.935   5.751 -0.2634 -0.8074 -0.9263
   68SAPC  H15B 5699   3.367   4.831   5.840 -0.5672  1.4926 -0.7581
   68SAPC  H15C 5700   3.529   4.830   5.879 -0.2078 -0.6289  0.1865
   68SAPC   C11 5701   3.519   4.570   5.907  0.3015 -0.5769 -0.6448
   68SAPC  H11A 5702   3.521   4.659   5.973  0.7786 -2.5694  2.1639
   68SAPC  H11B 5703   3.622   4.530   5.889  0.5838 -0.2536  0.2316
   68SAPC     P 5704   3.357   4.499   6.100  0.0156  0.6667  0.0078
   68SAPC   O13 5705   3.425   4.600   6.183 -0.7242 -0.5377 -0.2521
   68SAPC   O14 5706   3.224   4.534   6.045 -0.3179  0.3721 -0.0166
   68SAPC   O12 5707   3.457   4.460   5.978  0.0178  0.8495  0.1389
   68SAPC   O11 5708   3.352   4.361   6.171  0.6410 -0.7533  0.5193
   68SAPC    C1 5709   3.473   4.288   6.198 -0.4918  0.9081 -0.2609
   68SAPC    HA 5710   3.479   4.188   6.149  0.3141 -0.0240  1.6560
   68SAPC    HB 5711   3.562   4.337   6.154 -0.1929  0.3031 -0.3466
   68SAPC    C2 5712   3.509   4.269   6.353 -0.1445  0.9091 -0.5754
   68SAPC    HS 5713   3.618   4.251   6.367 -0.5011 -0.3605  0.5990
   68SAPC   O21 5714   3.425   4.160   6.409  0.2301 -0.2248  0.9756
   68SAPC   C21 5715   3.461   4.037   6.360 -0.0266  0.3722  0.1590
   68SAPC   O22 5716   3.560   4.009   6.296  0.1448  0.0669  1.0493
   68SAPC   C22 5717   3.353   3.935   6.400  0.1035 -0.7662 -0.2856
   68SAPC   H2R 5718   3.314   3.977   6.495 -0.7639 -2.5072  0.1422
   68SAPC   H2S 5719   3.280   3.956   6.318 -0.2623  3.7156  1.0374
   68SAPC    C3 5720   3.470   4.398   6.427 -0.7487 -0.1912 -0.2245
   68SAPC    HX 5721   3.363   4.424   6.412 -0.5329  0.2321 -1.0414
   68SAPC    HY 5722   3.525   4.476   6.371 -2.8437  0.4005 -1.5054
   68SAPC   O31 5723   3.503   4.390   6.563 -0.6332 -0.3097 -0.6366
   68SAPC   C31 5724   3.486   4.497   6.627 -0.1840  1.1838 -0.0170
   68SAPC   O32 5725   3.447   4.607   6.583 -0.5241  0.7939  0.3837
   68SAPC   C32 5726   3.518   4.474   6.775  0.5939  0.0560 -0.0127
   68SAPC   H2X 5727   3.502   4.366   6.796  0.6654  0.1172  0.3711
   68SAPC   H2Y 5728   3.441   4.530   6.832 -0.5849 -1.0769 -0.4721
   68SAPC   C23 5729   3.378   3.789   6.401  0.7489 -0.7441  0.0782
   68SAPC   H3R 5730   3.435   3.765   6.309 -0.5356 -3.1743 -0.1232
   68SAPC   H3S 5731   3.292   3.719   6.392 -0.2224  0.3197  0.9877
   68SAPC   C24 5732   3.448   3.737   6.528  0.0113 -0.3550  0.1929
   68SAPC   H4R 5733   3.548   3.783   6.514 -0.6847  0.3977 -2.4767
   68SAPC   H4S 5734   3.473   3.629   6.525  0.7050 -0.1750 -0.6843
   68SAPC   C25 5735   3.369   3.740   6.658  0.6242 -0.3146  1.0036
   68SAPC   H5R 5736   3.287   3.668   6.666  0.6873 -0.1639  3.4531
   68SAPC   C26 5737   3.408   3.800   6.772 -0.2892 -0.4918 -0.5936
   68SAPC   H6R 5738   3.344   3.811   6.861  2.5069 -1.1585  1.5720
   68SAPC   C27 5739   3.540   3.880   6.778 -0.2350  0.1090  0.1048
   68SAPC   H7R 5740   3.608   3.859   6.692 -1.7481 -0.2929 -1.0128
   68SAPC   H7S 5741   3.594   3.839   6.867  0.9717  1.9885  0.2501
   68SAPC   C28 5742   3.493   4.024   6.785 -0.5688 -0.0269 -0.9953
   68SAPC   H8R 5743   3.478   4.069   6.686  1.2495  2.1392 -0.3244
   68SAPC   C29 5744   3.483   4.092   6.900  0.4000  0.1281 -0.0887
   68SAPC   H9R 5745   3.458   4.199   6.901  0.0042  0.0916 -2.4226
   68SAPC  C210 5746   3.499   4.033   7.040 -0.8292  0.1297  0.7476
   68SAPC  H10R 5747   3.499   3.922   7.041 -1.4556  0.1203  0.3107
   68SAPC  H10S 5748   3.412   4.052   7.107  0.7556  2.4451  2.2303
   68SAPC  C211 5749   3.621   4.086   7.096  0.3539 -0.3169 -0.5439
   68SAPC  H11R 5750   3.684   4.148   7.031  0.8355 -0.1783  0.0526
   68SAPC  C212 5751   3.656   4.065   7.225 -0.9372 -0.0229 -0.3609
   68SAPC  H12R 5752   3.757   4.096   7.255  0.8230 -5.5482  0.0928
   68SAPC  C213 5753   3.585   3.981   7.325 -0.3514  0.1664 -0.3416
   68SAPC  H13R 5754   3.515   3.909   7.278  1.3441 -0.1968 -2.4024
   68SAPC  H13S 5755   3.519   4.039   7.393 -0.3898  0.2363 -0.4390
   68SAPC  C214 5756   3.678   3.878   7.392 -0.5577 -0.2113  0.5335
   68SAPC  H14R 5757   3.717   3.800   7.325  0.2783  1.3391 -0.8129
   68SAPC  C215 5758   3.723   3.880   7.520  0.4788  0.4806  0.7239
   68SAPC  H15R 5759   3.795   3.801   7.545  0.2454 -0.0557 -0.2733
   68SAPC  C216 5760   3.694   3.986   7.628 -0.2477 -0.7867  0.4331
   68SAPC  H16R 5761   3.602   4.043   7.601  0.4272 -0.9217 -2.3171
   68SAPC  H16S 5762   3.760   4.075   7.623 -1.9084  0.4336 -0.2628
   68SAPC  C217 5763   3.674   3.938   7.770 -0.0975  0.3794 -0.5548
   68SAPC  H17R 5764   3.638   3.833   7.765  0.2215  0.1349  1.8234
   68SAPC  H17S 5765   3.601   3.995   7.832  0.2247 -0.9319  1.0612
   68SAPC  C218 5766   3.802   3.913   7.853 -0.1553  0.1134 -0.3670
   68SAPC  H18R 5767   3.876   3.854   7.795 -0.1447 -1.5013  1.2445
   68SAPC  H18S 5768   3.770   3.850   7.939 -0.8286 -0.8646 -1.3226
   68SAPC  C219 5769   3.864   4.046   7.908 -0.3664 -1.1108  0.0130
   68SAPC  H19R 5770   3.784   4.077   7.980  1.1536  1.2098  0.7484
   68SAPC  H19S 5771   3.870   4.126   7.831 -1.9811  0.6674  1.6789
   68SAPC  C220 5772   4.001   4.022   7.976 -0.3965 -0.3953  0.0901
   68SAPC  H20R 5773   4.024   4.115   8.031  0.9311 -0.9206  0.4411
   68SAPC  H20S 5774   4.082   3.991   7.906 -1.8280 -2.4652 -0.7049
   68SAPC  H20T 5775   3.983   3.942   8.051  0.5175  1.5029  2.4088
   68SAPC   C33 5776   3.656   4.523   6.820  0.1728  0.5209 -0.3673
   68SAPC   H3X 5777   3.659   4.537   6.930  1.7013  0.9211 -0.4502
   68SAPC   H3Y 5778   3.678   4.622   6.775 -0.8272 -0.8716 -4.1309
   68SAPC   C34 5779   3.774   4.433   6.774 -0.1105  0.3395 -0.2591
   68SAPC   H4X 5780   3.860   4.502   6.787  0.1315 -0.2176  1.1848
   68SAPC   H4Y 5781   3.762   4.396   6.670 -0.8451  0.8415 -0.3563
   68SAPC   C35 5782   3.824   4.308   6.847  0.4713 -0.5133  0.0279
   68SAPC   H5X 5783   3.747   4.229   6.836 -0.1362  0.1012 -0.1542
   68SAPC   H5Y 5784   3.835   4.333   6.954  0.5641 -1.7167  0.3049
   68SAPC   C36 5785   3.963   4.274   6.784  0.2502 -0.3610 -0.4463
   68SAPC   H6X 5786   4.024   4.366   6.800  0.6446 -1.0594  2.2430
   68SAPC   H6Y 5787   3.948   4.264   6.674  0.1592  2.5687 -0.7624
   68SAPC   C37 5788   4.031   4.144   6.845 -0.3824 -0.1338  0.1119
   68SAPC   H7X 5789   4.098   4.101   6.768  0.1234  2.3277 -0.8437
   68SAPC   H7Y 5790   3.954   4.068   6.870 -0.7480  0.7397  1.7511
   68SAPC   C38 5791   4.118   4.180   6.966  0.1222  0.3107 -0.5460
   68SAPC   H8X 5792   4.173   4.268   6.926  0.6626 -0.0751 -0.6480
   68SAPC   H8Y 5793   4.202   4.111   6.986 -1.2582 -1.5461 -1.0475
   68SAPC   C39 5794   4.038   4.203   7.095  0.0323  0.2062 -0.5772
   68SAPC   H9X 5795   4.078   4.130   7.170  0.9725 -2.3803 -3.4721
   68SAPC   H9Y 5796   3.936   4.163   7.081  0.1529 -0.6546  0.9013
   68SAPC  C310 5797   4.030   4.346   7.150  0.4035  0.2851  0.3589
   68SAPC  H10X 5798   4.028   4.421   7.068  0.0451 -1.2854 -1.0915
   68SAPC  H10Y 5799   4.121   4.362   7.211  0.9926  0.8010 -0.6324
   68SAPC  C311 5800   3.904   4.371   7.244  0.0778 -0.1240 -0.6965
   68SAPC  H11X 5801   3.928   4.318   7.339 -1.1507  0.0813 -0.2647
   68SAPC  H11Y 5802   3.815   4.319   7.202 -0.2861  0.7914 -1.0473
   68SAPC  C312 5803   3.871   4.515   7.258 -0.0447 -0.1808  0.1351
   68SAPC  H12X 5804   3.813   4.550   7.170  0.4312 -1.3211 -0.6511
   68SAPC  H12Y 5805   3.960   4.581   7.260  0.4869 -0.9212  0.9266
   68SAPC  C313 5806   3.791   4.544   7.380  0.0462  0.3724  0.4530
   68SAPC  H13X 5807   3.711   4.466   7.381  0.5938 -0.1838  1.4015
   68SAPC  H13Y 5808   3.743   4.644   7.371  0.0076  0.3601  0.5219
   68SAPC  C314 5809   3.878   4.528   7.505  0.0097  0.2332  0.0083
   68SAPC  H14X 5810   3.963   4.600   7.503 -0.5926  0.9541  0.1059
   68SAPC  H14Y 5811   3.918   4.427   7.527  0.3656  0.1725 -0.8893
   68SAPC  C315 5812   3.790   4.567   7.624  0.2349  0.5482  0.4086
   68SAPC  H15X 5813   3.704   4.497   7.635  0.6070  0.2543  1.4571
   68SAPC  H15Y 5814   3.753   4.670   7.604  1.8826  1.4742  1.9812
   68SAPC  C316 5815   3.854   4.554   7.760  0.3370  0.7294  0.1265
   68SAPC  H16X 5816   3.941   4.622   7.773  1.6771 -1.0928  0.8980
   68SAPC  H16Y 5817   3.894   4.451   7.770 -2.4350 -0.4833 -0.8565
   68SAPC  C317 5818   3.750   4.587   7.868 -0.0430  0.0757  0.0936
   68SAPC  H17X 5819   3.653   4.543   7.838 -0.5961  0.6210  1.0725
   68SAPC  H17Y 5820   3.749   4.698   7.875  1.5247  0.0488  1.0746
   68SAPC  C318 5821   3.777   4.538   8.007  0.7609 -0.1504 -0.8369
   68SAPC  H18X 5822   3.696   4.564   8.079  0.6626 -1.3494 -0.5102
   68SAPC  H18Y 5823   3.860   4.604   8.040  1.8768 -2.1029  0.3936
   68SAPC  H18Z 5824   3.809   4.432   7.998 -0.9430 -0.7989  0.4932
   69SLPC     N 5825   0.435   2.736  11.067  0.2097 -0.0265  0.4007
   69SLPC   C13 5826   0.356   2.817  10.974 -0.3080 -0.9059 -0.0295
   69SLPC  H13A 5827   0.412   2.908  10.954 -1.7309  0.2405  1.0594
   69SLPC  H13B 5828   0.331   2.765  10.883 -0.6365 -0.8531  0.0309
   69SLPC  H13C 5829   0.261   2.853  11.011  1.4544  0.5008  3.4160
   69SLPC   C14 5830   0.476   2.832  11.179  0.1600 -0.3789  0.5958
   69SLPC  H14A 5831   0.392   2.898  11.195  0.4138 -0.0203  0.4626
   69SLPC  H14B 5832   0.498   2.779  11.270 -0.2016 -1.0503  0.3017
   69SLPC  H14C 5833   0.567   2.888  11.161  0.9066 -2.0828 -1.1822
   69SLPC   C15 5834   0.561   2.694  10.999  0.2556 -1.3944 -0.3773
   69SLPC  H15A 5835   0.621   2.772  10.955 -0.0920  1.0257  3.1546
   69SLPC  H15B 5836   0.627   2.642  11.067 -2.8008 -1.6694  2.4860
   69SLPC  H15C 5837   0.540   2.618  10.926  3.6117 -0.2848 -2.6121
   69SLPC   C12 5838   0.354   2.621  11.121  0.3361 -0.0775  0.3151
   69SLPC  H12A 5839   0.264   2.664  11.161 -0.0563 -0.8717  0.2943
   69SLPC  H12B 5840   0.405   2.566  11.199 -0.5811 -2.5662 -0.7599
   69SLPC   C11 5841   0.323   2.510  11.004 -0.1136  0.1561  0.9389
   69SLPC  H11A 5842   0.305   2.409  11.046  1.3488 -1.8375 -3.0121
   69SLPC  H11B 5843   0.415   2.495  10.943 -0.9831 -1.0659 -0.0912
   69SLPC     P 5844   0.077   2.569  10.951 -0.3398  0.5803  0.0404
   69SLPC   O13 5845   0.041   2.493  11.071  0.2766  0.0318 -0.2596
   69SLPC   O14 5846   0.065   2.719  10.963 -0.2025 -0.5560  0.1705
   69SLPC   O12 5847   0.224   2.540  10.914 -0.1501 -0.3414 -0.2536
   69SLPC   O11 5848  -0.003   2.512  10.827 -0.0708 -0.2511  0.1669
   69SLPC    C1 5849   0.008   2.379  10.765 -0.1384 -0.6445  0.5164
   69SLPC    HA 5850   0.117   2.360  10.754  0.0942  2.0626 -2.7596
   69SLPC    HB 5851  -0.035   2.298  10.827  0.7189 -0.2889  1.5873
   69SLPC    C2 5852  -0.065   2.369  10.625  0.0325  0.3511  0.0058
   69SLPC    HS 5853  -0.093   2.266  10.597  0.8218  0.5117 -1.4225
   69SLPC   O21 5854   0.020   2.425  10.527 -0.1937 -0.6222 -0.1680
   69SLPC   C21 5855   0.111   2.348  10.466 -0.0522  0.4821 -0.3417
   69SLPC   O22 5856   0.143   2.236  10.509 -0.0822  0.0594 -0.2987
   69SLPC   C22 5857   0.150   2.398  10.331 -0.6111 -0.0958 -0.2152
   69SLPC   H2R 5858   0.159   2.509  10.329  0.0545 -0.0664  2.4726
   69SLPC   H2S 5859   0.257   2.370  10.322 -0.1154  2.1484 -1.9122
   69SLPC    C3 5860  -0.188   2.460  10.622  0.4772 -0.0615 -0.1913
   69SLPC    HX 5861  -0.175   2.563  10.661  0.0200 -0.2204  0.3959
   69SLPC    HY 5862  -0.252   2.427  10.706  2.0214  1.3571  1.5891
   69SLPC   O31 5863  -0.265   2.449  10.503  0.2619 -0.1797  0.3639
   69SLPC   C31 5864  -0.266   2.541  10.411 -0.1589 -0.5403 -0.8174
   69SLPC   O32 5865  -0.201   2.648  10.426 -0.0010  0.0225 -0.2400
   69SLPC   C32 5866  -0.360   2.518  10.296  0.1935  0.2265 -0.7007
   69SLPC   H2X 5867  -0.431   2.603  10.291 -1.4629 -1.0667  0.2480
   69SLPC   H2Y 5868  -0.429   2.432  10.307  0.6022  0.2817  2.6376
   69SLPC   C23 5869   0.074   2.325  10.215 -0.8039 -0.0220  0.6041
   69SLPC   H3R 5870  -0.010   2.390  10.184 -1.0570 -0.7208 -0.1708
   69SLPC   H3S 5871   0.019   2.233  10.247 -0.1558 -1.5448 -2.5177
   69SLPC   C24 5872   0.169   2.305  10.105 -0.1684  0.2179 -0.1027
   69SLPC   H4R 5873   0.246   2.227  10.126 -0.1702  0.7901  2.0798
   69SLPC   H4S 5874   0.219   2.401  10.079  0.8064  0.2185  1.7458
   69SLPC   C25 5875   0.087   2.267   9.978 -0.1649  0.0385 -0.0512
   69SLPC   H5R 5876   0.007   2.342   9.960 -1.4745 -1.5494 -0.9627
   69SLPC   H5S 5877   0.029   2.173   9.991 -0.0846  0.0187  0.1728
   69SLPC   C26 5878   0.178   2.250   9.854  0.6051  0.7396 -0.3227
   69SLPC   H6R 5879   0.267   2.192   9.886  0.4959  0.7279 -0.0335
   69SLPC   H6S 5880   0.214   2.349   9.819 -0.3196  1.1973 -0.0160
   69SLPC   C27 5881   0.109   2.176   9.742  0.2724  0.1600 -0.0551
   69SLPC   H7R 5882   0.072   2.083   9.791  2.0383 -0.8111 -0.5303
   69SLPC   H7S 5883   0.189   2.155   9.667  0.3459 -2.3617  0.6779
   69SLPC   C28 5884   0.003   2.266   9.672  0.0328  0.2797 -0.4067
   69SLPC   H8R 5885  -0.079   2.281   9.745 -2.6784 -1.4331 -2.9708
   69SLPC   H8S 5886  -0.039   2.196   9.596 -1.9932 -0.6392  1.5108
   69SLPC   C29 5887   0.058   2.392   9.607  0.6520 -0.4612 -0.0072
   69SLPC   H9R 5888   0.076   2.476   9.676  3.3871 -1.4134  0.5318
   69SLPC  C210 5889   0.105   2.418   9.482  1.0039  0.7371  0.7386
   69SLPC  H10R 5890   0.157   2.514   9.468  1.3748  0.7485  2.0895
   69SLPC  C211 5891   0.119   2.322   9.372 -0.2727 -0.7758  0.1398
   69SLPC  H11R 5892   0.069   2.362   9.281 -0.8054  1.3550  1.3501
   69SLPC  H11S 5893   0.060   2.231   9.395 -0.2566 -0.5809  0.9625
   69SLPC  C212 5894   0.266   2.299   9.339 -0.2508 -0.0610  0.6724
   69SLPC  H12R 5895   0.331   2.262   9.420  2.6151 -0.4789 -1.7531
   69SLPC  C213 5896   0.326   2.314   9.215  0.2629  0.6273  0.5834
   69SLPC  H13R 5897   0.436   2.310   9.204  0.1626  2.2406 -1.2696
   69SLPC  C214 5898   0.261   2.367   9.094 -0.1951  0.1010  0.1301
   69SLPC  H14R 5899   0.319   2.460   9.079  1.1216 -0.9928 -1.7581
   69SLPC  H14S 5900   0.152   2.389   9.101  0.3159  2.3815  1.3419
   69SLPC  C215 5901   0.290   2.277   8.972 -0.3613  1.0434 -0.1535
   69SLPC  H15R 5902   0.378   2.210   8.977 -1.1248  0.0003 -0.4867
   69SLPC  H15S 5903   0.290   2.344   8.882 -3.3888 -1.0713 -1.8341
   69SLPC  C216 5904   0.172   2.177   8.946  0.1059 -0.1496  0.6360
   69SLPC  H16R 5905   0.157   2.122   9.041 -1.4668 -1.7398 -0.4792
   69SLPC  H16S 5906   0.198   2.109   8.862  3.9290  1.1069  0.7262
   69SLPC  C217 5907   0.038   2.246   8.909 -0.6362 -0.5676  0.1497
   69SLPC  H17R 5908   0.053   2.323   8.830  1.9772  0.7426  1.8430
   69SLPC  H17S 5909  -0.007   2.292   8.999  1.9908  0.4104  1.0029
   69SLPC  C218 5910  -0.071   2.149   8.852  0.0152  0.3413  0.9286
   69SLPC  H18R 5911  -0.176   2.188   8.849  0.2918  0.9803 -1.4005
   69SLPC  H18S 5912  -0.081   2.056   8.913 -0.2844  0.3930  0.9584
   69SLPC  H18T 5913  -0.038   2.128   8.749 -1.4060  0.6080  0.4015
   69SLPC   C33 5914  -0.278   2.487  10.169  1.2387 -0.2764 -0.2905
   69SLPC   H3X 5915  -0.211   2.400  10.185 -1.7474 -2.6789 -0.5130
   69SLPC   H3Y 5916  -0.222   2.580  10.145 -0.9091  0.9473 -0.7234
   69SLPC   C34 5917  -0.373   2.457  10.054  0.3003 -0.3640  0.0060
   69SLPC   H4X 5918  -0.444   2.542  10.041  0.8467  0.5622  2.6265
   69SLPC   H4Y 5919  -0.435   2.368  10.076 -0.6054  0.3524  0.4025
   69SLPC   C35 5920  -0.293   2.426   9.933  0.2821 -0.0779  0.4564
   69SLPC   H5X 5921  -0.223   2.340   9.936 -0.8978 -1.0949 -1.0171
   69SLPC   H5Y 5922  -0.219   2.506   9.908  2.1475 -2.4374 -1.9202
   69SLPC   C36 5923  -0.383   2.431   9.812 -0.5843  0.4554  0.2911
   69SLPC   H6X 5924  -0.448   2.520   9.828 -0.9451  0.0043  1.3917
   69SLPC   H6Y 5925  -0.452   2.344   9.809  1.3776 -1.0701 -2.2140
   69SLPC   C37 5926  -0.303   2.454   9.681 -0.0824  0.6044 -0.0910
   69SLPC   H7X 5927  -0.273   2.353   9.647 -2.4139  0.2067 -1.0908
   69SLPC   H7Y 5928  -0.219   2.525   9.698 -0.3245  0.2093  3.0371
   69SLPC   C38 5929  -0.380   2.507   9.563 -0.0712  0.1361  0.3580
   69SLPC   H8X 5930  -0.450   2.582   9.605 -1.8968 -0.4047 -1.6615
   69SLPC   H8Y 5931  -0.448   2.428   9.525  2.0774 -1.8515  0.5355
   69SLPC   C39 5932  -0.288   2.551   9.451 -0.0421 -0.0873 -0.4304
   69SLPC   H9X 5933  -0.196   2.489   9.446  0.3030  0.2892  0.8485
   69SLPC   H9Y 5934  -0.246   2.652   9.471  0.2299 -0.5659  1.5736
   69SLPC  C310 5935  -0.358   2.560   9.317 -0.2847  0.1685  0.0237
   69SLPC  H10X 5936  -0.465   2.580   9.337 -0.0692  1.8900 -0.4502
   69SLPC  H10Y 5937  -0.357   2.465   9.260  3.2922 -0.4382  0.9478
   69SLPC  C311 5938  -0.286   2.672   9.234 -0.3077 -0.7091 -0.2855
   69SLPC  H11X 5939  -0.176   2.661   9.249 -0.2623 -1.2804 -0.9760
   69SLPC  H11Y 5940  -0.309   2.772   9.276  3.1702  0.8142 -1.8085
   69SLPC  C312 5941  -0.327   2.684   9.088 -0.5442  0.3776 -0.3767
   69SLPC  H12X 5942  -0.431   2.722   9.078  0.6171  3.5567 -0.8772
   69SLPC  H12Y 5943  -0.329   2.575   9.067 -3.2100 -0.3643  3.2347
   69SLPC  C313 5944  -0.241   2.778   9.000  0.0901 -0.4906  0.2268
   69SLPC  H13X 5945  -0.136   2.744   9.011 -0.0466 -0.1885  2.7894
   69SLPC  H13Y 5946  -0.258   2.876   9.050 -0.0095  0.0348 -0.8196
   69SLPC  C314 5947  -0.283   2.780   8.854  0.4313  0.3444  0.5828
   69SLPC  H14X 5948  -0.361   2.703   8.834 -0.1471  0.8985  0.7206
   69SLPC  H14Y 5949  -0.189   2.767   8.796 -0.8056  0.4214 -1.4884
   69SLPC  C315 5950  -0.344   2.913   8.814  0.3899  1.0885 -0.9638
   69SLPC  H15X 5951  -0.267   2.993   8.821 -1.4334  2.8913 -0.9817
   69SLPC  H15Y 5952  -0.426   2.931   8.887 -1.0372 -1.8185 -1.8129
   69SLPC  C316 5953  -0.396   2.911   8.672 -0.3261 -0.2964 -0.1743
   69SLPC  H16X 5954  -0.459   2.819   8.662 -3.7845  2.0900 -1.1949
   69SLPC  H16Y 5955  -0.307   2.900   8.606 -0.4779 -3.0917 -0.0080
   69SLPC  C317 5956  -0.472   3.034   8.627 -0.2789  0.1105 -0.3240
   69SLPC  H17X 5957  -0.393   3.110   8.609  1.9921 -2.0813  0.0939
   69SLPC  H17Y 5958  -0.529   3.076   8.712 -0.4908  0.2447 -0.5302
   69SLPC  C318 5959  -0.562   3.023   8.503 -0.3914 -0.0893 -0.1695
   69SLPC  H18X 5960  -0.579   3.127   8.468  0.0694  1.1671  3.0628
   69SLPC  H18Y 5961  -0.659   2.985   8.541 -0.5315 -1.6204 -2.0456
   69SLPC  H18Z 5962  -0.530   2.962   8.416  0.8383 -0.8039  0.7623
   70SLPC     N 5963   1.230   6.517  11.148  0.4196 -0.2790 -0.2648
   70SLPC   C13 5964   1.234   6.665  11.130  0.1421  0.3237  0.4075
   70SLPC  H13A 5965   1.336   6.687  11.104 -0.0409  0.7631  0.0554
   70SLPC  H13B 5966   1.165   6.695  11.052  1.0262  3.1839  0.6753
   70SLPC  H13C 5967   1.197   6.721  11.214 -1.3942  2.5161 -1.6645
   70SLPC   C14 5968   1.098   6.498  11.222 -0.0918 -0.2952 -0.3641
   70SLPC  H14A 5969   1.015   6.525  11.158 -1.2343  0.6530  1.4930
   70SLPC  H14B 5970   1.081   6.394  11.243 -1.1294  0.0170  0.3443
   70SLPC  H14C 5971   1.085   6.557  11.311 -0.5383 -0.2806 -0.4393
   70SLPC   C15 5972   1.341   6.479  11.234  0.1090  0.8099 -0.8824
   70SLPC  H15A 5973   1.350   6.372  11.248  2.5432  1.1540  0.4762
   70SLPC  H15B 5974   1.437   6.497  11.188  0.3564  0.9359 -0.3181
   70SLPC  H15C 5975   1.337   6.530  11.329  2.3866 -1.5839  0.5377
   70SLPC   C12 5976   1.239   6.460  11.008 -0.0707 -0.3617  0.0396
   70SLPC  H12A 5977   1.252   6.353  11.001  0.2106 -0.2603 -1.1507
   70SLPC  H12B 5978   1.328   6.500  10.961  1.3105 -2.4355  0.8227
   70SLPC   C11 5979   1.113   6.494  10.921 -0.0451  0.1179 -0.2001
   70SLPC  H11A 5980   1.019   6.470  10.976  1.3930 -3.7039  0.6722
   70SLPC  H11B 5981   1.114   6.430  10.830  2.2771 -1.0450  0.6063
   70SLPC     P 5982   1.193   6.684  10.758 -0.1507  0.1649 -0.1581
   70SLPC   O13 5983   1.148   6.821  10.706  0.0015 -0.1866 -0.5874
   70SLPC   O14 5984   1.338   6.672  10.798 -0.6641  0.0387  0.7237
   70SLPC   O12 5985   1.100   6.633  10.879 -0.1457  0.2827 -0.0994
   70SLPC   O11 5986   1.167   6.578  10.648  0.3635  0.0849 -0.4113
   70SLPC    C1 5987   1.040   6.560  10.584 -0.3879  0.5576 -0.3096
   70SLPC    HA 5988   1.004   6.457  10.603 -0.4512  1.0207  2.3979
   70SLPC    HB 5989   0.969   6.623  10.641 -2.3221 -1.9428  0.1394
   70SLPC    C2 5990   1.039   6.597  10.432  0.5017  0.5948 -0.0590
   70SLPC    HS 5991   0.938   6.573  10.393  0.2943  1.3832 -0.0063
   70SLPC   O21 5992   1.136   6.516  10.365  0.7863  0.1806  0.0511
   70SLPC   C21 5993   1.089   6.406  10.320 -0.0664  1.2174 -0.1524
   70SLPC   O22 5994   0.975   6.368  10.326  0.3105  0.0047  0.1784
   70SLPC   C22 5995   1.212   6.331  10.276  0.1692  0.0764 -0.0824
   70SLPC   H2R 5996   1.249   6.376  10.181  2.3310 -0.2532  0.5646
   70SLPC   H2S 5997   1.297   6.335  10.347 -0.6174  0.2640  0.8461
   70SLPC    C3 5998   1.074   6.744  10.399  0.0343 -0.3738 -0.6629
   70SLPC    HX 5999   1.182   6.771  10.402  0.2333 -1.2598  1.6003
   70SLPC    HY 6000   1.025   6.811  10.473 -1.5938  0.4238 -2.4383
   70SLPC   O31 6001   1.030   6.781  10.264  0.3115  0.1878 -0.6036
   70SLPC   C31 6002   0.903   6.825  10.256 -0.0589  0.2768 -0.6742
   70SLPC   O32 6003   0.827   6.834  10.347  0.4729  0.0894 -0.2868
   70SLPC   C32 6004   0.880   6.889  10.121  0.6925 -0.2414  0.1475
   70SLPC   H2X 6005   0.889   6.807  10.047 -0.6968  0.5146 -0.9018
   70SLPC   H2Y 6006   0.951   6.968  10.087 -0.8998  0.2865 -2.0613
   70SLPC   C23 6007   1.183   6.185  10.236  0.5718  0.1798  0.7766
   70SLPC   H3R 6008   1.153   6.116  10.317  0.3043 -0.7312 -0.0829
   70SLPC   H3S 6009   1.279   6.142  10.200 -0.3420 -2.0099  0.8840
   70SLPC   C24 6010   1.080   6.153  10.122 -0.0074 -0.2881  0.9119
   70SLPC   H4R 6011   0.976   6.161  10.160  0.1003  1.3003  0.9032
   70SLPC   H4S 6012   1.088   6.053  10.074  2.0483  0.5019 -0.4489
   70SLPC   C25 6013   1.105   6.250  10.006 -0.1510 -0.1788 -0.0754
   70SLPC   H5R 6014   1.204   6.239   9.958 -0.7160 -1.4716 -0.9973
   70SLPC   H5S 6015   1.085   6.354  10.040  1.1390  0.1399 -0.2854
   70SLPC   C26 6016   1.014   6.220   9.879  0.0036 -0.3058 -0.2586
   70SLPC   H6R 6017   0.908   6.238   9.904  0.2360  0.5046  0.1488
   70SLPC   H6S 6018   1.036   6.115   9.849  0.8654 -0.0847 -0.4171
   70SLPC   C27 6019   1.048   6.314   9.753  0.1069 -0.2092 -1.0340
   70SLPC   H7R 6020   1.159   6.321   9.753  0.1298  0.3742  2.2165
   70SLPC   H7S 6021   1.008   6.415   9.775  2.6053  0.6787 -0.4973
   70SLPC   C28 6022   0.997   6.254   9.619  0.0232 -0.0933 -0.6378
   70SLPC   H8R 6023   0.888   6.234   9.628 -0.0358  0.0652 -0.9752
   70SLPC   H8S 6024   1.047   6.156   9.609  0.1955 -0.2233  1.3870
   70SLPC   C29 6025   1.014   6.337   9.496  0.5715 -0.1221 -0.4803
   70SLPC   H9R 6026   0.949   6.426   9.495  0.5195 -0.1532 -0.0312
   70SLPC  C210 6027   1.100   6.309   9.398 -0.2339  0.4284 -0.0844
   70SLPC  H10R 6028   1.113   6.375   9.311 -1.6446  0.0141 -0.6112
   70SLPC  C211 6029   1.202   6.198   9.394  0.0991 -0.8928 -0.3766
   70SLPC  H11R 6030   1.199   6.129   9.481  1.0536  2.3672  2.3816
   70SLPC  H11S 6031   1.298   6.248   9.420 -0.3747 -0.3892  0.4310
   70SLPC  C212 6032   1.205   6.115   9.267  0.1548 -0.4321  0.7333
   70SLPC  H12R 6033   1.121   6.111   9.196  0.1643  0.1073  0.6896
   70SLPC  C213 6034   1.311   6.039   9.233  0.3770  0.0355  0.0438
   70SLPC  H13R 6035   1.306   5.976   9.143  2.7653  0.4377 -0.3883
   70SLPC  C214 6036   1.434   6.027   9.319 -0.5257 -0.1361 -0.1342
   70SLPC  H14R 6037   1.460   5.920   9.336 -0.2371  0.0905  0.8689
   70SLPC  H14S 6038   1.429   6.063   9.424 -0.9354  0.7052 -0.4405
   70SLPC  C215 6039   1.548   6.114   9.266  0.0350  0.1650  0.8792
   70SLPC  H15R 6040   1.636   6.101   9.332  0.5972 -0.2996  0.0382
   70SLPC  H15S 6041   1.514   6.219   9.273 -2.4749 -0.5646  0.2709
   70SLPC  C216 6042   1.592   6.065   9.125  0.5700  0.0698  0.1115
   70SLPC  H16R 6043   1.516   6.108   9.056  0.8562 -1.4280 -1.1588
   70SLPC  H16S 6044   1.588   5.954   9.120  0.4939  0.0096  1.3529
   70SLPC  C217 6045   1.738   6.103   9.082  0.0507  0.3618 -0.0964
   70SLPC  H17R 6046   1.799   6.036   9.146  0.0180  1.6467  1.2984
   70SLPC  H17S 6047   1.758   6.206   9.117  0.4326  0.3529 -0.2936
   70SLPC  C218 6048   1.774   6.097   8.931 -0.2085  0.0162 -0.0639
   70SLPC  H18R 6049   1.772   5.992   8.896  0.6741 -0.0353  0.0387
   70SLPC  H18S 6050   1.875   6.143   8.936 -1.3821  2.6351  0.5908
   70SLPC  H18T 6051   1.710   6.166   8.872 -0.8738 -1.2354 -0.8439
   70SLPC   C33 6052   0.738   6.927  10.099 -0.1709  0.1777 -0.1616
   70SLPC   H3X 6053   0.706   7.005  10.171 -1.3362 -0.5565  0.1188
   70SLPC   H3Y 6054   0.665   6.846  10.116  0.2237 -0.4082 -1.1776
   70SLPC   C34 6055   0.712   6.978   9.962  0.0656  0.3579 -0.8117
   70SLPC   H4X 6056   0.762   6.912   9.888  0.5660 -0.9172  0.6300
   70SLPC   H4Y 6057   0.745   7.083   9.941  1.0520  0.6130  1.8186
   70SLPC   C35 6058   0.559   6.980   9.936  1.1121  0.1544 -0.1737
   70SLPC   H5X 6059   0.512   7.051  10.008  0.1090 -0.3855 -0.2923
   70SLPC   H5Y 6060   0.524   6.881   9.972 -0.5863  0.9206  0.3568
   70SLPC   C36 6061   0.523   7.021   9.791 -0.2789 -0.2438  0.1968
   70SLPC   H6X 6062   0.571   6.946   9.725 -0.4210  0.3450 -0.5774
   70SLPC   H6Y 6063   0.576   7.115   9.766  1.2585 -0.8233  1.2042
   70SLPC   C37 6064   0.376   7.052   9.767 -0.3687 -0.0562  0.4492
   70SLPC   H7X 6065   0.346   7.143   9.823  2.1214  1.1396 -0.0742
   70SLPC   H7Y 6066   0.298   6.988   9.813 -0.0736 -0.4051  0.4668
   70SLPC   C38 6067   0.359   7.100   9.622  0.4285  0.3843  0.0858
   70SLPC   H8X 6068   0.384   7.009   9.564 -2.5498  0.8246 -2.0115
   70SLPC   H8Y 6069   0.438   7.169   9.585 -0.3675  0.1491 -2.1767
   70SLPC   C39 6070   0.218   7.143   9.585 -0.0884  0.3841 -0.3901
   70SLPC   H9X 6071   0.183   7.234   9.640 -1.2038 -1.1534  1.5163
   70SLPC   H9Y 6072   0.139   7.072   9.617 -1.8757  1.5203 -2.2265
   70SLPC  C310 6073   0.205   7.167   9.435 -0.2356 -1.0258 -0.5593
   70SLPC  H10X 6074   0.251   7.081   9.382  1.3930  0.3673 -1.4359
   70SLPC  H10Y 6075   0.264   7.256   9.407 -0.3347 -0.5720  0.6276
   70SLPC  C311 6076   0.060   7.176   9.390 -0.3523 -0.2291 -0.5335
   70SLPC  H11X 6077   0.013   7.273   9.417 -0.4251 -0.6536  0.8687
   70SLPC  H11Y 6078  -0.011   7.101   9.431 -0.4051 -0.7559 -1.5615
   70SLPC  C312 6079   0.057   7.150   9.237  0.5764 -0.7569 -0.3455
   70SLPC  H12X 6080   0.105   7.052   9.216  3.4329  1.2486 -3.8413
   70SLPC  H12Y 6081   0.129   7.213   9.180 -0.2604 -0.2111 -0.8147
   70SLPC  C313 6082  -0.081   7.149   9.164  0.5082 -0.5223  0.7677
   70SLPC  H13X 6083  -0.153   7.100   9.232 -2.5440  0.7918 -1.4086
   70SLPC  H13Y 6084  -0.063   7.086   9.074  0.5913 -0.2305  0.5789
   70SLPC  C314 6085  -0.120   7.295   9.125  0.6372 -0.1533 -0.2500
   70SLPC  H14X 6086  -0.033   7.344   9.076  0.3702  1.1927  0.5880
   70SLPC  H14Y 6087  -0.146   7.351   9.217 -0.3481 -3.0290  1.2763
   70SLPC  C315 6088  -0.251   7.301   9.038 -0.7871 -0.7462  0.0247
   70SLPC  H15X 6089  -0.279   7.409   9.042  0.1136 -0.5178  0.1766
   70SLPC  H15Y 6090  -0.328   7.239   9.088  0.5590 -0.8254  2.0508
   70SLPC  C316 6091  -0.238   7.261   8.882  0.4543  0.2948  0.2633
   70SLPC  H16X 6092  -0.187   7.164   8.866  0.0617 -0.0204  0.9221
   70SLPC  H16Y 6093  -0.164   7.331   8.837  1.8015 -0.7649  0.7964
   70SLPC  C317 6094  -0.374   7.275   8.802  0.9609  0.4928  0.3564
   70SLPC  H17X 6095  -0.355   7.247   8.696 -1.5144  0.5439 -0.1232
   70SLPC  H17Y 6096  -0.398   7.383   8.813  2.2256  0.7309  0.9408
   70SLPC  C318 6097  -0.487   7.195   8.855  0.8571  0.0416  0.0108
   70SLPC  H18X 6098  -0.504   7.222   8.962 -1.2485 -1.2941  0.0475
   70SLPC  H18Y 6099  -0.470   7.085   8.846 -2.7133 -0.4259 -1.6721
   70SLPC  H18Z 6100  -0.589   7.215   8.817  0.9476  0.6600  0.0972
   71SLPC     N 6101   0.328   5.815  10.918  0.0320 -0.0033  0.1484
   71SLPC   C13 6102   0.479   5.845  10.937 -0.6599  0.0602 -0.0874
   71SLPC  H13A 6103   0.507   5.820  11.039  1.9034 -0.8101 -0.9596
   71SLPC  H13B 6104   0.531   5.793  10.858 -2.8225  0.5522 -1.8595
   71SLPC  H13C 6105   0.497   5.949  10.916  0.2263 -0.1807 -0.5406
   71SLPC   C14 6106   0.245   5.900  11.012  0.2165  0.5093  0.1189
   71SLPC  H14A 6107   0.277   6.003  11.010 -0.4046  0.7396  1.2912
   71SLPC  H14B 6108   0.139   5.884  10.994  1.0400 -1.5185 -3.2987
   71SLPC  H14C 6109   0.271   5.864  11.110  0.8912 -0.2423 -0.3269
   71SLPC   C15 6110   0.318   5.674  10.960 -0.3871  1.0181  0.1122
   71SLPC  H15A 6111   0.224   5.633  10.926  0.1803  0.2873 -0.6187
   71SLPC  H15B 6112   0.389   5.610  10.909 -0.5940  0.3015  0.7090
   71SLPC  H15C 6113   0.326   5.660  11.067 -1.1557 -1.6674 -0.1324
   71SLPC   C12 6114   0.289   5.833  10.776 -0.4031 -0.4192 -0.5267
   71SLPC  H12A 6115   0.364   5.784  10.715 -1.1558 -1.9292 -0.2734
   71SLPC  H12B 6116   0.294   5.938  10.752 -2.1910 -0.4461 -1.0434
   71SLPC   C11 6117   0.144   5.782  10.733 -0.7749 -0.4390 -0.3411
   71SLPC  H11A 6118   0.123   5.681  10.774 -0.7021 -0.6816 -0.9013
   71SLPC  H11B 6119   0.136   5.773  10.623  2.0085  1.9769 -0.7984
   71SLPC     P 6120  -0.097   5.858  10.757  0.2715 -0.3683  0.1357
   71SLPC   O13 6121  -0.146   5.729  10.817 -0.6439  0.0948 -0.3913
   71SLPC   O14 6122  -0.161   5.986  10.806  0.3681 -0.2287  0.2214
   71SLPC   O12 6123   0.057   5.879  10.782 -0.3294 -0.3041  0.2571
   71SLPC   O11 6124  -0.106   5.856  10.602 -0.1363 -0.3655  0.0815
   71SLPC    C1 6125  -0.043   5.958  10.528  0.0982 -0.6232  0.3707
   71SLPC    HA 6126   0.046   6.001  10.579 -0.9597 -1.0924  2.6532
   71SLPC    HB 6127  -0.014   5.909  10.432 -0.7895 -1.4124  0.5050
   71SLPC    C2 6128  -0.147   6.057  10.477  0.0935 -0.1302 -0.2788
   71SLPC    HS 6129  -0.193   6.108  10.564  1.3512 -0.0832  0.3743
   71SLPC   O21 6130  -0.239   5.993  10.386 -0.7657 -0.1313 -0.2247
   71SLPC   C21 6131  -0.360   5.977  10.437 -0.6141  0.3595 -0.3021
   71SLPC   O22 6132  -0.405   6.006  10.548  0.1440 -0.2736 -0.2430
   71SLPC   C22 6133  -0.452   5.909  10.328 -0.2919 -0.3926 -0.7816
   71SLPC   H2R 6134  -0.426   5.802  10.347  0.7271 -0.0365 -0.1343
   71SLPC   H2S 6135  -0.555   5.947  10.344 -0.5491 -1.3275 -0.1968
   71SLPC    C3 6136  -0.079   6.170  10.406 -0.1634  0.0655 -0.0718
   71SLPC    HX 6137   0.006   6.197  10.472 -1.7662 -0.0345  2.0736
   71SLPC    HY 6138  -0.146   6.258  10.393 -0.8928 -0.5896 -0.8109
   71SLPC   O31 6139  -0.012   6.134  10.280  0.4449  0.4297 -0.3877
   71SLPC   C31 6140  -0.071   6.179  10.168  0.1953 -0.3902  0.5701
   71SLPC   O32 6141  -0.168   6.249  10.165  0.3278  0.2239  0.1053
   71SLPC   C32 6142  -0.002   6.115  10.044 -0.5645 -1.0226  0.2072
   71SLPC   H2X 6143   0.034   6.014  10.074  0.5120 -0.7037  0.0115
   71SLPC   H2Y 6144   0.080   6.184  10.011 -1.2146 -0.7159 -0.7930
   71SLPC   C23 6145  -0.406   5.946  10.182  0.7531  0.2553  0.1512
   71SLPC   H3R 6146  -0.297   5.934  10.165  0.6841  0.7754 -0.6722
   71SLPC   H3S 6147  -0.432   6.053  10.170 -0.7338 -0.0558  0.5053
   71SLPC   C24 6148  -0.466   5.855  10.072 -0.8277  0.4505 -0.0196
   71SLPC   H4R 6149  -0.436   5.880   9.969  0.2364 -2.5296 -0.4950
   71SLPC   H4S 6150  -0.576   5.857  10.086 -0.8111 -0.4308  0.2904
   71SLPC   C25 6151  -0.430   5.712  10.081  0.4474  0.5837  0.3134
   71SLPC   H5R 6152  -0.468   5.664  10.173  3.3707 -5.3268 -1.3287
   71SLPC   H5S 6153  -0.319   5.714  10.085  0.5746 -0.0246 -2.0143
   71SLPC   C26 6154  -0.491   5.629   9.964  0.4305 -0.2364  0.5319
   71SLPC   H6R 6155  -0.601   5.642   9.972  0.1212 -2.4822  0.2253
   71SLPC   H6S 6156  -0.465   5.525   9.994  0.0910 -0.5011 -0.0983
   71SLPC   C27 6157  -0.433   5.660   9.826  0.5779 -0.3298  0.3915
   71SLPC   H7R 6158  -0.325   5.666   9.849  0.7124  1.0522 -0.5713
   71SLPC   H7S 6159  -0.471   5.759   9.795  0.2377  0.3250  2.8337
   71SLPC   C28 6160  -0.462   5.559   9.717  0.5966  0.7067 -0.0635
   71SLPC   H8R 6161  -0.467   5.462   9.772 -0.2085  1.0169  0.4197
   71SLPC   H8S 6162  -0.385   5.559   9.637 -0.1832  0.6193 -0.8269
   71SLPC   C29 6163  -0.597   5.574   9.662  0.6058  0.3443  0.1971
   71SLPC   H9R 6164  -0.673   5.608   9.734  0.6084  0.9062 -0.0672
   71SLPC  C210 6165  -0.640   5.558   9.538 -0.2682  0.4472 -0.1805
   71SLPC  H10R 6166  -0.744   5.588   9.519  1.0568  4.7636 -1.1178
   71SLPC  C211 6167  -0.558   5.529   9.414  0.0135 -0.5053  0.1998
   71SLPC  H11R 6168  -0.476   5.461   9.445  0.9358  0.6732  0.3790
   71SLPC  H11S 6169  -0.504   5.625   9.397  1.7828 -1.4695  0.2593
   71SLPC  C212 6170  -0.624   5.470   9.293  0.0933 -0.8470 -0.7928
   71SLPC  H12R 6171  -0.715   5.412   9.313  0.6567 -1.0123  1.3492
   71SLPC  C213 6172  -0.568   5.476   9.173  0.3199 -0.1140  0.4532
   71SLPC  H13R 6173  -0.630   5.444   9.088  1.8301 -0.3218 -0.5935
   71SLPC  C214 6174  -0.437   5.541   9.137  0.3782 -0.7316  0.5450
   71SLPC  H14R 6175  -0.360   5.464   9.157 -2.2200 -3.1266  1.7759
   71SLPC  H14S 6176  -0.403   5.624   9.202 -1.1032 -0.0649  0.4844
   71SLPC  C215 6177  -0.417   5.578   8.991  0.0918  0.4968  0.2919
   71SLPC  H15R 6178  -0.467   5.509   8.920  0.3135 -0.9226  1.5113
   71SLPC  H15S 6179  -0.309   5.575   8.966  0.4145  1.2768  1.5741
   71SLPC  C216 6180  -0.458   5.728   8.969  0.3155 -0.7613  0.2964
   71SLPC  H16R 6181  -0.425   5.791   9.054  2.9704 -0.1765 -1.1104
   71SLPC  H16S 6182  -0.569   5.732   8.974  0.2400  2.0446 -2.1431
   71SLPC  C217 6183  -0.393   5.790   8.843  0.0452  0.0696 -0.8114
   71SLPC  H17R 6184  -0.282   5.788   8.841  0.2193  3.6749  0.9401
   71SLPC  H17S 6185  -0.419   5.898   8.841 -3.2452 -0.6318  0.4412
   71SLPC  C218 6186  -0.438   5.717   8.718 -0.5806  0.3135  0.3098
   71SLPC  H18R 6187  -0.405   5.767   8.624  0.3404 -0.9883 -0.0695
   71SLPC  H18S 6188  -0.549   5.707   8.722 -0.5389 -1.3708 -2.1489
   71SLPC  H18T 6189  -0.397   5.614   8.722 -2.1308 -0.2774  1.4754
   71SLPC   C33 6190  -0.103   6.095   9.936 -0.3331  0.0216 -0.1509
   71SLPC   H3X 6191  -0.181   6.174   9.933  0.8183  1.2267  1.0638
   71SLPC   H3Y 6192  -0.156   6.000   9.961 -0.3991  0.6467  2.2235
   71SLPC   C34 6193  -0.046   6.097   9.796  0.3250 -0.3285  0.3819
   71SLPC   H4X 6194   0.021   6.008   9.799  0.1830 -0.4035  1.3850
   71SLPC   H4Y 6195   0.004   6.195   9.780  1.2479 -1.0500 -1.3907
   71SLPC   C35 6196  -0.154   6.071   9.696  0.2896  0.5543  0.0768
   71SLPC   H5X 6197  -0.234   6.145   9.716 -0.0940  0.1526  0.0520
   71SLPC   H5Y 6198  -0.200   5.971   9.713 -1.2529  0.9945 -1.3269
   71SLPC   C36 6199  -0.103   6.074   9.551  0.1322  0.0310 -0.3347
   71SLPC   H6X 6200  -0.191   6.057   9.486  1.3135  1.8580 -2.4722
   71SLPC   H6Y 6201  -0.039   5.984   9.543 -1.4888 -1.0688 -1.0414
   71SLPC   C37 6202  -0.026   6.202   9.512 -0.1137  0.1747 -0.4663
   71SLPC   H7X 6203   0.081   6.202   9.542  0.3262  2.2009 -1.9443
   71SLPC   H7Y 6204  -0.076   6.290   9.558 -0.5727 -0.0452 -0.5455
   71SLPC   C38 6205  -0.016   6.220   9.357 -0.0764  1.0714  0.0777
   71SLPC   H8X 6206  -0.114   6.260   9.324 -0.6424 -1.3908 -1.4013
   71SLPC   H8Y 6207   0.014   6.128   9.302 -1.4700  0.9728 -0.5222
   71SLPC   C39 6208   0.089   6.320   9.332 -0.4724 -0.1594 -0.1402
   71SLPC   H9X 6209   0.186   6.270   9.347  0.3407  1.6498  0.8636
   71SLPC   H9Y 6210   0.085   6.398   9.411 -1.1666  0.0560 -0.3730
   71SLPC  C310 6211   0.074   6.381   9.195  0.1020  0.0594  0.1639
   71SLPC  H10X 6212  -0.026   6.429   9.188 -0.2208 -0.4398  1.2822
   71SLPC  H10Y 6213   0.081   6.299   9.120  1.2569  0.8581 -0.6136
   71SLPC  C311 6214   0.183   6.489   9.174 -0.0692 -0.5680  0.2408
   71SLPC  H11X 6215   0.279   6.434   9.184 -1.0078 -1.9377  2.0923
   71SLPC  H11Y 6216   0.180   6.559   9.260  0.8609 -1.0993  0.7194
   71SLPC  C312 6217   0.170   6.570   9.042 -0.6420  0.4018  0.4607
   71SLPC  H12X 6218   0.169   6.485   8.971  1.6640 -1.4552  2.5501
   71SLPC  H12Y 6219   0.257   6.636   9.022  1.5622 -2.3599  0.5329
   71SLPC  C313 6220   0.039   6.647   9.039  0.2257 -0.2551 -0.0069
   71SLPC  H13X 6221   0.054   6.733   9.108  3.4601  0.2653 -1.2610
   71SLPC  H13Y 6222  -0.056   6.594   9.059  0.9897 -1.2096  1.1859
   71SLPC  C314 6223   0.024   6.712   8.907 -0.3701 -0.1219 -0.5304
   71SLPC  H14X 6224   0.048   6.635   8.831 -2.3041 -1.4247  0.1425
   71SLPC  H14Y 6225   0.099   6.794   8.903 -0.2882 -0.2656 -2.4949
   71SLPC  C315 6226  -0.109   6.773   8.887 -0.1438  0.4007  0.1217
   71SLPC  H15X 6227  -0.141   6.850   8.960  0.8178  0.7001  0.2372
   71SLPC  H15Y 6228  -0.182   6.689   8.879  0.3101  0.0002  0.1882
   71SLPC  C316 6229  -0.119   6.841   8.750  0.6819  0.3430 -0.0097
   71SLPC  H16X 6230  -0.088   6.770   8.671 -1.3412  0.2685 -0.7764
   71SLPC  H16Y 6231  -0.062   6.936   8.764 -0.2538  0.9086  0.0046
   71SLPC  C317 6232  -0.266   6.893   8.714  0.0291  0.4495 -0.3323
   71SLPC  H17X 6233  -0.290   6.965   8.795  1.7553 -0.1587  0.7740
   71SLPC  H17Y 6234  -0.337   6.808   8.716  1.1902 -0.5437 -0.0872
   71SLPC  C318 6235  -0.274   6.957   8.580  0.2476  0.6941  0.3211
   71SLPC  H18X 6236  -0.377   6.955   8.539  1.3690  1.1823 -2.6493
   71SLPC  H18Y 6237  -0.219   6.904   8.499 -1.0656  2.7541 -1.9782
   71SLPC  H18Z 6238  -0.250   7.065   8.595 -1.4581  0.9065  1.6165
   72SLPC     N 6239   1.770   4.443  10.914 -0.0444  0.2685 -0.2075
   72SLPC   C13 6240   1.780   4.296  10.877 -0.4020 -0.2999  0.4636
   72SLPC  H13A 6241   1.845   4.247  10.948  1.3097  2.1166  0.6436
   72SLPC  H13B 6242   1.679   4.258  10.879 -0.7505  0.4971 -0.9290
   72SLPC  H13C 6243   1.812   4.279  10.775  1.1415  0.0941  0.8677
   72SLPC   C14 6244   1.907   4.503  10.889  0.2562  0.2197 -0.2986
   72SLPC  H14A 6245   1.984   4.462  10.951  2.1200 -0.8483 -3.2234
   72SLPC  H14B 6246   1.929   4.507  10.783  0.4316  2.6088 -0.2087
   72SLPC  H14C 6247   1.897   4.601  10.934  0.1714  0.2028 -0.2790
   72SLPC   C15 6248   1.745   4.443  11.062 -0.4134 -0.2055  0.6541
   72SLPC  H15A 6249   1.824   4.396  11.118 -0.1494  0.1204  0.5630
   72SLPC  H15B 6250   1.740   4.538  11.114  1.7205  0.0365  0.4753
   72SLPC  H15C 6251   1.660   4.379  11.080  0.0057 -0.6589  1.0180
   72SLPC   C12 6252   1.670   4.518  10.836  0.5142  0.8618 -0.5315
   72SLPC  H12A 6253   1.675   4.486  10.733  0.0339 -0.3743 -0.1883
   72SLPC  H12B 6254   1.697   4.622  10.833  0.1777  0.9587 -0.1326
   72SLPC   C11 6255   1.517   4.505  10.873  0.0238 -0.3501  0.5493
   72SLPC  H11A 6256   1.457   4.576  10.812 -1.3659 -2.0070 -0.0220
   72SLPC  H11B 6257   1.499   4.536  10.978 -1.0374  3.2301 -0.5930
   72SLPC     P 6258   1.463   4.320  10.703 -0.1136  0.0940 -0.0208
   72SLPC   O13 6259   1.570   4.370  10.614 -0.7926 -0.2703 -0.0528
   72SLPC   O14 6260   1.452   4.176  10.726 -0.0757 -0.7155 -0.0107
   72SLPC   O12 6261   1.474   4.375  10.853 -0.1828 -0.1020  0.0998
   72SLPC   O11 6262   1.325   4.388  10.653 -0.6385  0.7866 -0.8300
   72SLPC    C1 6263   1.195   4.333  10.685  0.3485 -0.1611 -0.2619
   72SLPC    HA 6264   1.180   4.277  10.779 -0.7415  2.1758  0.9915
   72SLPC    HB 6265   1.127   4.420  10.698  0.7121  0.5172 -2.5521
   72SLPC    C2 6266   1.140   4.250  10.567 -0.3619  0.0794 -0.0776
   72SLPC    HS 6267   1.202   4.158  10.560  0.0806  0.4127 -0.5559
   72SLPC   O21 6268   1.121   4.324  10.449  0.3113  0.0974 -0.0845
   72SLPC   C21 6269   1.205   4.294  10.347 -0.6333  0.1285 -0.3381
   72SLPC   O22 6270   1.294   4.211  10.361 -0.3408 -0.1362 -0.0984
   72SLPC   C22 6271   1.167   4.368  10.226  0.0554  0.2133  0.4747
   72SLPC   H2R 6272   1.067   4.414  10.245 -0.6208 -1.7021  1.7307
   72SLPC   H2S 6273   1.238   4.450  10.204  1.9737 -1.6307 -0.4124
   72SLPC    C3 6274   1.006   4.187  10.607 -0.3411 -0.3290 -0.4007
   72SLPC    HX 6275   0.932   4.269  10.622  2.1334  1.7815  0.6276
   72SLPC    HY 6276   1.013   4.134  10.704 -0.6197  1.5557  0.6700
   72SLPC   O31 6277   0.962   4.094  10.508  0.0211  0.5102 -0.0841
   72SLPC   C31 6278   1.010   3.970  10.506 -0.1500 -0.2568 -0.0818
   72SLPC   O32 6279   1.077   3.919  10.594 -0.0134  0.7750  0.3937
   72SLPC   C32 6280   0.956   3.903  10.375  0.6121  0.3089  0.0105
   72SLPC   H2X 6281   0.866   3.843  10.402 -0.5550  1.3427 -1.5405
   72SLPC   H2Y 6282   1.029   3.832  10.331  1.1633  1.1435 -0.4245
   72SLPC   C23 6283   1.160   4.270  10.109 -0.2926 -0.1176  0.4837
   72SLPC   H3R 6284   1.122   4.170  10.140 -0.3742 -0.4975 -0.7849
   72SLPC   H3S 6285   1.261   4.251  10.067  0.9033  4.6697  0.9741
   72SLPC   C24 6286   1.082   4.336   9.992 -1.0471 -0.4081 -0.2680
   72SLPC   H4R 6287   1.113   4.442   9.982  2.7031 -1.3859 -0.0161
   72SLPC   H4S 6288   0.971   4.343   9.992 -0.9727  0.8944 -1.1632
   72SLPC   C25 6289   1.114   4.268   9.854 -0.3875 -0.2352  0.0921
   72SLPC   H5R 6290   1.083   4.162   9.862 -0.0928 -0.4773 -1.7772
   72SLPC   H5S 6291   1.223   4.251   9.844  0.1188  1.8050  1.7961
   72SLPC   C26 6292   1.052   4.331   9.723 -0.2086 -1.2834 -0.1824
   72SLPC   H6R 6293   1.105   4.429   9.720 -0.2579 -1.2797 -1.8159
   72SLPC   H6S 6294   0.943   4.340   9.743 -0.5527 -0.9987 -2.0560
   72SLPC   C27 6295   1.067   4.246   9.599  0.0799  0.1242 -0.0298
   72SLPC   H7R 6296   1.040   4.140   9.623 -3.7404  0.6859 -1.4336
   72SLPC   H7S 6297   1.173   4.249   9.568 -0.1557 -0.9239 -0.9689
   72SLPC   C28 6298   0.969   4.281   9.484 -0.2909  0.3760 -0.0735
   72SLPC   H8R 6299   0.867   4.264   9.524 -1.1629  3.2420 -1.0177
   72SLPC   H8S 6300   0.981   4.195   9.414 -1.6042 -1.7671  2.2184
   72SLPC   C29 6301   0.988   4.415   9.423  0.1133 -0.3014 -1.3653
   72SLPC   H9R 6302   0.958   4.501   9.485  1.0413  1.5531 -3.4518
   72SLPC  C210 6303   1.040   4.437   9.302 -0.7256 -0.5434  0.0366
   72SLPC  H10R 6304   1.065   4.537   9.264 -0.3269 -2.0337 -3.7992
   72SLPC  C211 6305   1.091   4.337   9.205  0.1407  0.3714  0.0257
   72SLPC  H11R 6306   1.075   4.234   9.243 -0.3902 -0.0255 -1.2528
   72SLPC  H11S 6307   1.199   4.347   9.182  0.7603 -0.3118  2.5152
   72SLPC  C212 6308   1.018   4.353   9.071 -0.8865  0.0449 -0.3563
   72SLPC  H12R 6309   0.912   4.381   9.086 -0.5549  0.7293  0.8063
   72SLPC  C213 6310   1.082   4.365   8.954 -0.5035 -0.5529 -0.3261
   72SLPC  H13R 6311   1.021   4.385   8.865 -3.0479 -2.6380  0.8811
   72SLPC  C214 6312   1.235   4.355   8.933 -0.8004 -0.2414  0.1995
   72SLPC  H14R 6313   1.283   4.274   8.992  0.3535  1.1069  1.1273
   72SLPC  H14S 6314   1.282   4.454   8.954 -1.0921  0.2196 -1.2273
   72SLPC  C215 6315   1.270   4.306   8.793  0.2831 -0.5108 -0.1930
   72SLPC  H15R 6316   1.201   4.226   8.759 -0.4426 -0.5166  1.2551
   72SLPC  H15S 6317   1.374   4.266   8.794  0.9067  1.0807  0.2400
   72SLPC  C216 6318   1.258   4.417   8.691  0.9249 -0.3893  0.1651
   72SLPC  H16R 6319   1.318   4.505   8.722  0.2057  1.3376 -3.1711
   72SLPC  H16S 6320   1.154   4.456   8.685  1.0748 -0.1883 -1.3100
   72SLPC  C217 6321   1.290   4.375   8.543  0.0422 -0.2470  0.7922
   72SLPC  H17R 6322   1.261   4.452   8.468  1.3418  0.2899  0.8124
   72SLPC  H17S 6323   1.213   4.301   8.512 -0.8043  2.0005 -2.6616
   72SLPC  C218 6324   1.436   4.313   8.521  0.5819 -0.1320 -0.4562
   72SLPC  H18R 6325   1.450   4.264   8.423  1.0857  1.6785 -1.3064
   72SLPC  H18S 6326   1.453   4.237   8.600 -2.8976 -1.6045 -1.0328
   72SLPC  H18T 6327   1.512   4.394   8.521 -0.6436  1.0481  0.8933
   72SLPC   C33 6328   0.903   3.998  10.270  0.0558 -0.1939 -0.4527
   72SLPC   H3X 6329   0.958   4.094  10.273 -0.8131  0.3305 -0.9594
   72SLPC   H3Y 6330   0.793   4.015  10.282 -0.0272 -1.0207 -0.0023
   72SLPC   C34 6331   0.918   3.939  10.127 -0.3583 -0.8169  1.1372
   72SLPC   H4X 6332   0.867   3.841  10.118 -2.0259  0.3019 -2.8507
   72SLPC   H4Y 6333   1.024   3.919  10.103 -0.6444 -2.3979  1.1519
   72SLPC   C35 6334   0.856   4.031  10.023  0.2921  0.6024 -0.4590
   72SLPC   H5X 6335   0.911   4.128  10.025 -1.2206  1.4431  1.5031
   72SLPC   H5Y 6336   0.749   4.040  10.051  0.4230  0.0345  0.2504
   72SLPC   C36 6337   0.850   3.965   9.877 -0.4225  0.2037  0.3781
   72SLPC   H6X 6338   0.841   3.855   9.865 -1.1304 -0.0160  2.5848
   72SLPC   H6Y 6339   0.948   3.977   9.826 -0.8965 -1.1497 -0.8661
   72SLPC   C37 6340   0.737   4.026   9.790  0.2059  0.6080 -0.2252
   72SLPC   H7X 6341   0.747   4.137   9.792  2.5583  0.3997  1.8192
   72SLPC   H7Y 6342   0.639   4.000   9.835  1.4874 -2.5889  0.8595
   72SLPC   C38 6343   0.749   3.989   9.639 -0.1676  0.5109  0.5098
   72SLPC   H8X 6344   0.768   3.879   9.636  1.7300  0.8438 -0.0052
   72SLPC   H8Y 6345   0.835   4.036   9.588 -1.5094  0.5911 -1.7593
   72SLPC   C39 6346   0.622   4.004   9.555 -0.8313  0.0453 -0.2582
   72SLPC   H9X 6347   0.606   4.114   9.552  0.1832  0.1822 -1.1698
   72SLPC   H9Y 6348   0.537   3.954   9.607  1.9748 -0.3879  4.1406
   72SLPC  C310 6349   0.656   3.954   9.414  0.9303  0.4606  0.0839
   72SLPC  H10X 6350   0.649   3.843   9.414 -3.2299  0.6205 -1.6248
   72SLPC  H10Y 6351   0.762   3.977   9.389  0.7338  2.2560  0.7851
   72SLPC  C311 6352   0.566   3.997   9.297 -0.1901 -0.0322 -0.7206
   72SLPC  H11X 6353   0.589   3.937   9.207 -0.3709  1.1004 -1.5375
   72SLPC  H11Y 6354   0.594   4.102   9.272  0.1720 -0.4664 -2.1985
   72SLPC  C312 6355   0.412   4.008   9.331 -0.0532 -0.4204  0.7093
   72SLPC  H12X 6356   0.408   4.085   9.411 -2.2514  1.7808 -1.4479
   72SLPC  H12Y 6357   0.359   3.916   9.364  1.3627 -1.4686  0.1052
   72SLPC  C313 6358   0.345   4.064   9.209  0.3983  0.2480  0.5370
   72SLPC  H13X 6359   0.412   4.140   9.162 -1.0970  0.6758 -0.9532
   72SLPC  H13Y 6360   0.248   4.111   9.236  0.1847 -0.7925  1.5728
   72SLPC  C314 6361   0.308   3.948   9.117 -0.7343  0.5195 -0.6765
   72SLPC  H14X 6362   0.280   3.859   9.177 -0.0355  0.6144 -0.2043
   72SLPC  H14Y 6363   0.402   3.922   9.063 -0.9830  1.2511 -1.4873
   72SLPC  C315 6364   0.201   3.985   9.014 -0.2445  0.3039  0.0165
   72SLPC  H15X 6365   0.107   4.022   9.061 -0.2281  0.3538  0.0082
   72SLPC  H15Y 6366   0.179   3.900   8.945 -1.3575 -0.1378  0.8908
   72SLPC  C316 6367   0.237   4.093   8.921  0.2458 -0.2472 -0.5443
   72SLPC  H16X 6368   0.333   4.057   8.878  1.4260 -0.8319  2.4677
   72SLPC  H16Y 6369   0.261   4.188   8.973 -1.6794  0.2833 -0.5852
   72SLPC  C317 6370   0.137   4.110   8.805 -0.5199 -0.1124 -0.7280
   72SLPC  H17X 6371   0.178   4.189   8.738 -1.0675  0.1744 -0.7309
   72SLPC  H17Y 6372   0.050   4.161   8.853  0.6865  0.2602  1.1246
   72SLPC  C318 6373   0.095   3.990   8.718 -0.3513 -0.2063  0.1565
   72SLPC  H18X 6374   0.183   3.952   8.661 -0.5351 -1.6080  0.7824
   72SLPC  H18Y 6375   0.015   4.029   8.651  1.6027  1.6996 -1.1626
   72SLPC  H18Z 6376   0.056   3.907   8.780  0.4294 -0.4157  0.3789
   73SLPC     N 6377   2.202   2.453  10.705 -0.1975  0.8404  0.0076
   73SLPC   C13 6378   2.276   2.390  10.589 -0.0352  0.8152 -0.4595
   73SLPC  H13A 6379   2.362   2.443  10.552  0.5633 -0.1637 -0.4661
   73SLPC  H13B 6380   2.312   2.293  10.619  0.5531  0.5078 -2.1363
   73SLPC  H13C 6381   2.208   2.356  10.512  1.4906 -1.7107 -0.7251
   73SLPC   C14 6382   2.310   2.510  10.801 -0.8826  0.6486 -0.1689
   73SLPC  H14A 6383   2.260   2.527  10.895  0.7821  0.1121  0.8359
   73SLPC  H14B 6384   2.378   2.432  10.831  1.0544  0.2767 -5.0913
   73SLPC  H14C 6385   2.363   2.598  10.770 -2.3752  1.7396  0.3403
   73SLPC   C15 6386   2.123   2.346  10.777 -0.0454  0.3049  0.4342
   73SLPC  H15A 6387   2.189   2.268  10.809  1.0744  1.3077  0.6156
   73SLPC  H15B 6388   2.076   2.379  10.869  1.3521  0.2884  1.1672
   73SLPC  H15C 6389   2.051   2.299  10.712 -0.1084  2.4627 -1.1155
   73SLPC   C12 6390   2.121   2.570  10.660 -0.3820 -0.0362 -0.7181
   73SLPC  H12A 6391   2.053   2.537  10.583  1.0039 -1.9861 -1.1397
   73SLPC  H12B 6392   2.190   2.643  10.619 -1.3850  0.7814 -0.9540
   73SLPC   C11 6393   2.027   2.640  10.761 -0.4457 -0.3508  0.6445
   73SLPC  H11A 6394   1.973   2.719  10.706 -0.7638 -0.8208  0.2761
   73SLPC  H11B 6395   2.089   2.691  10.838  1.1652 -0.8232 -0.3371
   73SLPC     P 6396   1.794   2.555  10.856 -0.0800 -0.1132 -0.1493
   73SLPC   O13 6397   1.770   2.552  10.999  0.5505  0.0079 -0.0760
   73SLPC   O14 6398   1.726   2.666  10.786  0.3528 -0.2469 -0.8171
   73SLPC   O12 6399   1.954   2.548  10.834  0.8524  0.0338  0.3660
   73SLPC   O11 6400   1.748   2.412  10.798 -0.0261  0.1325  0.1392
   73SLPC    C1 6401   1.630   2.407  10.708  0.0011 -0.1953 -0.5230
   73SLPC    HA 6402   1.599   2.301  10.719 -1.2353 -0.0240 -2.0952
   73SLPC    HB 6403   1.541   2.468  10.736  1.2962  0.3760  2.5821
   73SLPC    C2 6404   1.658   2.422  10.555  0.0073 -0.1793 -0.5128
   73SLPC    HS 6405   1.693   2.527  10.544  0.2818 -0.3641 -1.4142
   73SLPC   O21 6406   1.544   2.381  10.469  0.6736  0.2431  0.5611
   73SLPC   C21 6407   1.445   2.473  10.477 -1.1207 -0.0490 -0.2833
   73SLPC   O22 6408   1.464   2.577  10.536  0.1888  0.3605  0.1375
   73SLPC   C22 6409   1.308   2.415  10.432 -0.0294  0.3762 -0.7518
   73SLPC   H2R 6410   1.330   2.361  10.338 -0.5448  0.7808 -1.1070
   73SLPC   H2S 6411   1.276   2.338  10.506  1.9569  0.0856 -0.1635
   73SLPC    C3 6412   1.774   2.332  10.515 -0.7629  0.0225  0.3621
   73SLPC    HX 6413   1.760   2.224  10.538  0.4602 -0.2086  0.0519
   73SLPC    HY 6414   1.865   2.354  10.575 -0.0352 -0.3979 -0.5756
   73SLPC   O31 6415   1.810   2.350  10.373 -0.2264 -0.1578  0.2940
   73SLPC   C31 6416   1.897   2.442  10.347  0.0906  0.7402 -0.5133
   73SLPC   O32 6417   1.950   2.517  10.429  0.1211  0.3137 -0.1726
   73SLPC   C32 6418   1.932   2.418  10.202 -0.1220  0.3602  0.5600
   73SLPC   H2X 6419   1.837   2.441  10.149 -1.0367 -2.0524  1.0683
   73SLPC   H2Y 6420   1.957   2.310  10.202  2.1990  0.8661  1.9299
   73SLPC   C23 6421   1.201   2.526  10.417 -0.0412  0.3255  0.2262
   73SLPC   H3R 6422   1.230   2.589  10.330  0.7187 -0.5323 -0.1410
   73SLPC   H3S 6423   1.199   2.593  10.506  0.1411  1.1940 -0.4139
   73SLPC   C24 6424   1.052   2.464  10.398  0.4363  0.2667  0.5297
   73SLPC   H4R 6425   0.992   2.557  10.397 -1.2125 -0.7745  0.7194
   73SLPC   H4S 6426   1.038   2.398  10.487  3.0236  1.2272  1.6979
   73SLPC   C25 6427   1.026   2.398  10.263 -0.1408  0.4436 -0.4072
   73SLPC   H5R 6428   0.930   2.344  10.280 -1.4489  2.6453 -0.6251
   73SLPC   H5S 6429   1.094   2.311  10.256 -1.0723 -0.4071  0.8078
   73SLPC   C26 6430   1.024   2.489  10.143  0.0641  0.3587 -0.0614
   73SLPC   H6R 6431   1.101   2.570  10.140 -0.4642  0.9432  1.6567
   73SLPC   H6S 6432   0.924   2.537  10.148 -1.1034 -2.1114  0.6962
   73SLPC   C27 6433   1.037   2.415  10.006 -0.1154 -0.0550 -0.7175
   73SLPC   H7R 6434   0.959   2.337  10.020 -0.7460  1.1566  2.9207
   73SLPC   H7S 6435   1.135   2.366   9.988  0.4975  0.9201 -0.0967
   73SLPC   C28 6436   1.002   2.494   9.885 -0.4480 -0.3804  0.0579
   73SLPC   H8R 6437   0.902   2.536   9.908  0.1471  2.0456 -1.5784
   73SLPC   H8S 6438   0.986   2.424   9.800  2.4921 -2.9300  1.5014
   73SLPC   C29 6439   1.087   2.611   9.854 -0.5520 -0.2408  0.9105
   73SLPC   H9R 6440   1.138   2.642   9.946 -1.5603  3.0959  0.4395
   73SLPC  C210 6441   1.101   2.670   9.735 -0.1658 -0.6968  0.3465
   73SLPC  H10R 6442   1.169   2.756   9.722 -0.5430  0.5487  5.6793
   73SLPC  C211 6443   1.032   2.620   9.613  0.3321 -0.1692  0.0996
   73SLPC  H11R 6444   1.020   2.510   9.601 -1.5482  0.0473 -0.1148
   73SLPC  H11S 6445   1.105   2.642   9.532 -1.2048 -0.2826 -1.3421
   73SLPC  C212 6446   0.903   2.684   9.577 -0.3827  0.3297 -0.2639
   73SLPC  H12R 6447   0.850   2.723   9.664 -0.5645 -0.3087 -0.0889
   73SLPC  C213 6448   0.858   2.711   9.453  0.0939  0.6805  0.6410
   73SLPC  H13R 6449   0.769   2.771   9.429  0.5696  0.6177 -1.4336
   73SLPC  C214 6450   0.924   2.666   9.329 -0.6839  0.2195 -0.2504
   73SLPC  H14R 6451   0.983   2.572   9.343 -0.5166  0.5732  1.5655
   73SLPC  H14S 6452   0.984   2.744   9.279 -1.8444  0.8702 -0.6514
   73SLPC  C215 6453   0.821   2.632   9.215 -0.1870  0.0629 -0.0304
   73SLPC  H15R 6454   0.768   2.723   9.181  0.7781  0.3496 -0.7641
   73SLPC  H15S 6455   0.738   2.570   9.257 -0.6372  0.7820  0.1398
   73SLPC  C216 6456   0.884   2.559   9.091  0.3433  0.8120 -0.2013
   73SLPC  H16R 6457   0.911   2.454   9.113  0.0533  0.6027 -0.8454
   73SLPC  H16S 6458   0.969   2.627   9.067  0.0064  2.2494  2.5224
   73SLPC  C217 6459   0.788   2.562   8.968  0.3035  0.1218 -0.2805
   73SLPC  H17R 6460   0.850   2.511   8.891 -0.4893 -0.3105 -0.6378
   73SLPC  H17S 6461   0.785   2.665   8.927  1.2080  0.9245  1.6130
   73SLPC  C218 6462   0.652   2.495   8.980  0.6043  0.3191  0.0795
   73SLPC  H18R 6463   0.661   2.389   9.013 -0.6015  0.3044  0.4075
   73SLPC  H18S 6464   0.593   2.488   8.886  0.6141 -1.3995  0.1763
   73SLPC  H18T 6465   0.606   2.554   9.062 -0.7951 -1.0221  0.2935
   73SLPC   C33 6466   2.040   2.522  10.167 -0.2298  0.4054  0.1590
   73SLPC   H3X 6467   2.129   2.522  10.234  1.0663  1.5504 -1.5023
   73SLPC   H3Y 6468   2.002   2.625  10.152 -1.0106  0.0983 -0.0029
   73SLPC   C34 6469   2.110   2.496  10.028 -0.1444  0.0196  0.1813
   73SLPC   H4X 6470   2.115   2.385  10.026 -2.5668 -0.2527  4.1114
   73SLPC   H4Y 6471   2.209   2.545  10.014 -0.9982  1.0699 -2.6536
   73SLPC   C35 6472   2.019   2.541   9.917 -0.3240 -0.4078  0.4878
   73SLPC   H5X 6473   2.023   2.652   9.917  0.9886 -0.4484  0.5437
   73SLPC   H5Y 6474   1.916   2.504   9.937 -0.5945  0.8160  1.4734
   73SLPC   C36 6475   2.062   2.487   9.785 -0.8715  0.2637  0.3160
   73SLPC   H6X 6476   2.042   2.378   9.783 -1.7416  0.4185  0.5393
   73SLPC   H6Y 6477   2.171   2.510   9.779 -1.1305  0.8908 -2.0136
   73SLPC   C37 6478   2.001   2.553   9.658 -0.5660  0.0608 -0.4642
   73SLPC   H7X 6479   2.067   2.624   9.605 -1.3157  1.0542 -0.0921
   73SLPC   H7Y 6480   1.912   2.609   9.693 -1.6429 -0.5668 -2.1494
   73SLPC   C38 6481   1.949   2.465   9.546  0.1072  0.0668  0.3935
   73SLPC   H8X 6482   1.882   2.390   9.594  0.3537  0.3681  1.2092
   73SLPC   H8Y 6483   2.034   2.412   9.498 -1.2964 -0.6265 -1.3760
   73SLPC   C39 6484   1.867   2.539   9.436 -0.7964 -0.1492 -0.5275
   73SLPC   H9X 6485   1.916   2.629   9.392 -1.3112  0.1997 -0.3861
   73SLPC   H9Y 6486   1.782   2.589   9.488 -0.0767 -0.9281  1.4612
   73SLPC  C310 6487   1.813   2.435   9.327  0.2809  0.5558 -0.2592
   73SLPC  H10X 6488   1.777   2.341   9.374  2.6450  0.0029  0.5210
   73SLPC  H10Y 6489   1.889   2.404   9.252  0.3621 -1.1814  0.5217
   73SLPC  C311 6490   1.684   2.487   9.256  0.4156  0.0680 -0.8259
   73SLPC  H11X 6491   1.714   2.566   9.183 -0.6056  1.1709 -0.0747
   73SLPC  H11Y 6492   1.619   2.541   9.329 -3.0651  0.7736 -4.2316
   73SLPC  C312 6493   1.609   2.365   9.192 -0.7657 -0.3698  0.0220
   73SLPC  H12X 6494   1.510   2.406   9.162 -0.2642  3.5074  3.2386
   73SLPC  H12Y 6495   1.581   2.295   9.273 -2.2579  0.4613  0.2422
   73SLPC  C313 6496   1.678   2.285   9.082  0.7954 -0.4705 -0.2653
   73SLPC  H13X 6497   1.774   2.243   9.118  1.4832 -0.0671 -1.5762
   73SLPC  H13Y 6498   1.711   2.354   9.001  2.2596  0.8819  1.4606
   73SLPC  C314 6499   1.588   2.175   9.032 -0.7275 -0.1054 -0.0838
   73SLPC  H14X 6500   1.506   2.232   8.983  0.6144 -0.9839 -3.4633
   73SLPC  H14Y 6501   1.532   2.124   9.113 -4.2625  0.7819 -1.8531
   73SLPC  C315 6502   1.654   2.075   8.940 -0.3374 -0.1213 -0.1627
   73SLPC  H15X 6503   1.746   2.035   8.986 -0.0739  0.0487 -0.5313
   73SLPC  H15Y 6504   1.684   2.136   8.851 -0.2132  0.5404  0.3301
   73SLPC  C316 6505   1.552   1.960   8.902  0.1755  0.0753 -0.4202
   73SLPC  H16X 6506   1.453   2.004   8.878  0.8658  1.4143 -0.8485
   73SLPC  H16Y 6507   1.542   1.896   8.992 -1.3739 -1.9988 -2.0350
   73SLPC  C317 6508   1.587   1.876   8.773  0.2312  0.3049  0.4018
   73SLPC  H17X 6509   1.621   1.953   8.701 -1.1400  0.3485 -0.2129
   73SLPC  H17Y 6510   1.491   1.829   8.742  0.9534  1.1268 -3.3105
   73SLPC  C318 6511   1.679   1.759   8.789 -0.1645 -0.1227  0.9255
   73SLPC  H18X 6512   1.763   1.784   8.857  1.3472 -0.9893 -0.5924
   73SLPC  H18Y 6513   1.715   1.736   8.687 -1.8182 -1.8512  0.7089
   73SLPC  H18Z 6514   1.629   1.667   8.825 -0.4359  0.0586  1.0204
   74SLPC     N 6515   2.330   4.791  10.899  1.1465 -0.4174  0.0422
   74SLPC   C13 6516   2.374   4.827  11.032  0.3320  0.0660 -0.1025
   74SLPC  H13A 6517   2.296   4.862  11.099 -0.8892  0.3191 -1.6430
   74SLPC  H13B 6518   2.414   4.743  11.088  0.1075  0.6181  0.9055
   74SLPC  H13C 6519   2.447   4.907  11.025  0.3248  0.0269 -0.6014
   74SLPC   C14 6520   2.263   4.907  10.835  0.7404 -0.0430  0.6075
   74SLPC  H14A 6521   2.270   4.902  10.728  0.9049 -0.0543  0.6188
   74SLPC  H14B 6522   2.163   4.920  10.875 -0.7081  0.3416 -2.9563
   74SLPC  H14C 6523   2.326   4.994  10.850  2.6131 -1.6216  2.0923
   74SLPC   C15 6524   2.231   4.678  10.894  0.1377  0.1034 -0.7266
   74SLPC  H15A 6525   2.210   4.663  10.789 -3.3411 -0.7118  0.0071
   74SLPC  H15B 6526   2.274   4.590  10.940 -0.3076 -0.2892 -1.0461
   74SLPC  H15C 6527   2.136   4.691  10.944  0.0654  2.4461 -1.4323
   74SLPC   C12 6528   2.447   4.752  10.806 -0.1823 -0.8520 -0.3412
   74SLPC  H12A 6529   2.498   4.666  10.846 -1.6346 -1.3368  0.4950
   74SLPC  H12B 6530   2.522   4.829  10.816  0.2224 -1.6545  3.8023
   74SLPC   C11 6531   2.425   4.730  10.658 -0.2001 -0.0981 -0.1305
   74SLPC  H11A 6532   2.528   4.715  10.618  0.0291  0.1269  0.3665
   74SLPC  H11B 6533   2.389   4.820  10.604 -1.9902 -2.3122 -2.7725
   74SLPC     P 6534   2.397   4.473  10.648  0.4100  0.2727 -0.1327
   74SLPC   O13 6535   2.483   4.457  10.768 -0.3319  0.4963 -0.7732
   74SLPC   O14 6536   2.285   4.377  10.641  0.5163 -0.1566 -0.3388
   74SLPC   O12 6537   2.335   4.619  10.640  0.0889 -0.2649  0.0424
   74SLPC   O11 6538   2.479   4.452  10.520 -0.2163 -0.7175 -0.4283
   74SLPC    C1 6539   2.448   4.520  10.394 -0.9207  0.2032  0.8799
   74SLPC    HA 6540   2.349   4.482  10.360 -0.5296 -0.8545  0.8988
   74SLPC    HB 6541   2.450   4.631  10.401 -2.5139  0.4629 -1.8701
   74SLPC    C2 6542   2.542   4.466  10.274  0.2800 -1.0322  0.2230
   74SLPC    HS 6543   2.552   4.356  10.288  2.2319 -0.7093  1.7176
   74SLPC   O21 6544   2.675   4.532  10.278 -0.7702 -0.2130 -0.5967
   74SLPC   C21 6545   2.769   4.460  10.218  0.7153 -0.0080  0.5631
   74SLPC   O22 6546   2.762   4.341  10.187  0.2010  0.5593  0.7945
   74SLPC   C22 6547   2.884   4.558  10.187 -0.2341  0.1513 -0.8266
   74SLPC   H2R 6548   2.856   4.643  10.121 -1.9320 -1.9125 -2.8249
   74SLPC   H2S 6549   2.918   4.601  10.283 -2.0149  0.3815 -0.3003
   74SLPC    C3 6550   2.463   4.488  10.141 -0.1310 -0.4286  0.4746
   74SLPC    HX 6551   2.443   4.597  10.137  2.7499  0.2507  2.6494
   74SLPC    HY 6552   2.368   4.431  10.141  0.0721 -0.7688  0.6550
   74SLPC   O31 6553   2.540   4.458  10.021 -0.0189 -0.3912  0.3482
   74SLPC   C31 6554   2.546   4.328   9.989 -0.0300 -0.2559  0.2778
   74SLPC   O32 6555   2.485   4.242  10.051  0.2871 -0.0620  0.1535
   74SLPC   C32 6556   2.631   4.297   9.872 -0.3369 -0.0753  0.5737
   74SLPC   H2X 6557   2.723   4.246   9.909  0.3872  0.0834 -0.9656
   74SLPC   H2Y 6558   2.658   4.398   9.835  0.3719  0.1849  1.7835
   74SLPC   C23 6559   3.002   4.489  10.114 -0.9721  0.4138 -0.4258
   74SLPC   H3R 6560   3.006   4.388  10.161 -1.6432 -0.8411 -2.9806
   74SLPC   H3S 6561   3.099   4.541  10.130  0.5672 -2.7162  0.7910
   74SLPC   C24 6562   2.977   4.491   9.963  0.6430 -0.1712 -0.4234
   74SLPC   H4R 6563   2.981   4.596   9.928  0.3872 -0.4541 -1.3229
   74SLPC   H4S 6564   2.872   4.463   9.939 -0.9599  4.4591  0.7299
   74SLPC   C25 6565   3.066   4.400   9.877  0.7936  0.1732 -0.4251
   74SLPC   H5R 6566   3.097   4.306   9.929 -2.7014 -0.9060 -0.1837
   74SLPC   H5S 6567   3.163   4.451   9.856 -0.2771  1.8172 -1.4348
   74SLPC   C26 6568   3.004   4.366   9.744 -0.3374 -0.5134  0.4653
   74SLPC   H6R 6569   2.937   4.454   9.731 -0.2052 -0.3114  1.1288
   74SLPC   H6S 6570   2.937   4.277   9.753 -0.5816 -0.3396  0.3749
   74SLPC   C27 6571   3.096   4.340   9.624 -0.3589 -0.1052 -0.0297
   74SLPC   H7R 6572   3.162   4.255   9.652 -0.5546 -0.4822 -0.7125
   74SLPC   H7S 6573   3.155   4.432   9.606 -3.0933  1.7742  0.3386
   74SLPC   C28 6574   3.003   4.307   9.503 -0.5711  0.2351 -0.2564
   74SLPC   H8R 6575   2.941   4.399   9.496 -0.5275  0.4331  1.6111
   74SLPC   H8S 6576   2.944   4.217   9.529 -2.0092  0.7468 -1.6775
   74SLPC   C29 6577   3.090   4.295   9.380 -0.8723 -0.6338 -0.4946
   74SLPC   H9R 6578   3.187   4.249   9.403 -1.4060 -0.4087  2.4064
   74SLPC  C210 6579   3.063   4.323   9.252 -0.4048  0.4804  0.4377
   74SLPC  H10R 6580   3.143   4.298   9.181 -1.2960 -0.0998 -0.3696
   74SLPC  C211 6581   2.933   4.378   9.192 -0.1388  0.5467 -0.3648
   74SLPC  H11R 6582   2.940   4.487   9.207 -2.0911  0.5197  0.9954
   74SLPC  H11S 6583   2.850   4.350   9.261  0.1596 -0.9892 -0.6037
   74SLPC  C212 6584   2.908   4.325   9.049 -0.0853 -0.6390 -0.5731
   74SLPC  H12R 6585   2.886   4.218   9.041 -0.6430 -0.6043  0.4635
   74SLPC  C213 6586   2.924   4.396   8.938  0.5202  0.1037  0.5525
   74SLPC  H13R 6587   2.900   4.340   8.846 -0.2469  1.2411  0.0555
   74SLPC  C214 6588   2.991   4.528   8.934  0.3501 -0.8833 -0.1101
   74SLPC  H14R 6589   3.061   4.559   9.014  1.2443  0.3866 -1.3588
   74SLPC  H14S 6590   2.917   4.611   8.930  2.5757  1.1291 -0.9048
   74SLPC  C215 6591   3.066   4.546   8.799  0.3441  0.5712  0.5187
   74SLPC  H15R 6592   2.990   4.555   8.718 -1.7715 -1.0909  2.2369
   74SLPC  H15S 6593   3.132   4.463   8.766 -0.8381  0.6275 -2.1421
   74SLPC  C216 6594   3.148   4.672   8.796  0.1973 -0.1729  0.3579
   74SLPC  H16R 6595   3.236   4.654   8.862  0.7864 -0.1841 -0.4258
   74SLPC  H16S 6596   3.092   4.763   8.826  1.3266  0.4068  0.7258
   74SLPC  C217 6597   3.203   4.699   8.648 -0.4220  0.0097  0.8938
   74SLPC  H17R 6598   3.113   4.697   8.583  0.4465  0.4534 -0.3500
   74SLPC  H17S 6599   3.276   4.621   8.617 -1.4829 -0.3031 -0.8675
   74SLPC  C218 6600   3.271   4.835   8.629  0.6257 -0.2581 -0.1964
   74SLPC  H18R 6601   3.190   4.904   8.595  0.3122 -0.1145  0.8174
   74SLPC  H18S 6602   3.353   4.822   8.556 -0.5265  0.7969 -1.7172
   74SLPC  H18T 6603   3.320   4.872   8.722  0.1988 -2.9382  1.1449
   74SLPC   C33 6604   2.560   4.187   9.781 -0.0590 -0.6324 -0.5730
   74SLPC   H3X 6605   2.461   4.230   9.757 -0.4074 -0.7201  0.6586
   74SLPC   H3Y 6606   2.534   4.095   9.838 -2.0739  0.1001 -0.2564
   74SLPC   C34 6607   2.643   4.165   9.657  0.3402  0.5588  0.7880
   74SLPC   H4X 6608   2.630   4.058   9.630  1.3613  0.2986  1.2958
   74SLPC   H4Y 6609   2.750   4.189   9.678  0.4394  2.1400 -1.3146
   74SLPC   C35 6610   2.601   4.245   9.532  0.0727 -0.0407  0.5899
   74SLPC   H5X 6611   2.639   4.347   9.554  1.0325 -0.8937  3.0453
   74SLPC   H5Y 6612   2.490   4.248   9.526  0.0402  0.7032  1.4394
   74SLPC   C36 6613   2.643   4.198   9.389  0.1767  0.6772 -0.2903
   74SLPC   H6X 6614   2.754   4.192   9.390  0.2273  1.0263 -1.9970
   74SLPC   H6Y 6615   2.609   4.272   9.314  0.0013  0.8240 -0.0661
   74SLPC   C37 6616   2.599   4.064   9.337 -0.3527  0.1865 -0.1500
   74SLPC   H7X 6617   2.490   4.070   9.313 -0.3378 -1.9197 -0.8726
   74SLPC   H7Y 6618   2.617   3.975   9.401  0.1383 -1.0721 -1.9973
   74SLPC   C38 6619   2.654   4.043   9.195 -0.1500  1.0377 -0.1804
   74SLPC   H8X 6620   2.758   4.005   9.203 -0.4341  0.6613  1.8269
   74SLPC   H8Y 6621   2.648   4.146   9.152  0.0935  0.5583 -1.3973
   74SLPC   C39 6622   2.574   3.938   9.120  0.0555 -0.6284 -0.5593
   74SLPC   H9X 6623   2.465   3.960   9.114  0.1014  0.0099  0.9704
   74SLPC   H9Y 6624   2.584   3.841   9.174 -2.0316  0.8255  2.5769
   74SLPC  C310 6625   2.634   3.908   8.979  0.3351 -0.3558  0.1030
   74SLPC  H10X 6626   2.743   3.888   8.986  0.4192  0.6098  1.8927
   74SLPC  H10Y 6627   2.624   4.007   8.930  1.8982 -0.0088  0.4514
   74SLPC  C311 6628   2.562   3.809   8.893  0.4817  0.0083 -0.8287
   74SLPC  H11X 6629   2.460   3.833   8.928  0.1896 -0.1850 -1.5409
   74SLPC  H11Y 6630   2.586   3.704   8.924  1.6581  0.3414 -0.5642
   74SLPC  C312 6631   2.586   3.817   8.749  0.1750  0.0854 -0.0444
   74SLPC  H12X 6632   2.574   3.925   8.728  0.7310  0.4470  1.4225
   74SLPC  H12Y 6633   2.507   3.754   8.702 -0.4575  1.4917 -0.9086
   74SLPC  C313 6634   2.726   3.753   8.714 -0.1839 -0.3227  0.2560
   74SLPC  H13X 6635   2.733   3.650   8.754 -0.7042 -0.9155 -1.1816
   74SLPC  H13Y 6636   2.800   3.805   8.779 -1.7326  1.7766  0.3869
   74SLPC  C314 6637   2.765   3.769   8.568  0.6024 -0.7129 -0.7037
   74SLPC  H14X 6638   2.763   3.877   8.540  1.3333 -0.3628  0.5336
   74SLPC  H14Y 6639   2.696   3.712   8.502  0.8718 -1.2133 -0.5507
   74SLPC  C315 6640   2.904   3.718   8.540 -0.4586  0.2953  0.1451
   74SLPC  H15X 6641   2.893   3.610   8.516 -0.8018  0.7599 -1.9439
   74SLPC  H15Y 6642   2.974   3.711   8.626  0.8256 -0.4345 -0.9336
   74SLPC  C316 6643   2.964   3.779   8.412 -0.4087  0.3595 -0.3587
   74SLPC  H16X 6644   3.059   3.730   8.384  0.6770  2.9190 -1.2707
   74SLPC  H16Y 6645   3.004   3.879   8.435  1.2573 -0.3497 -0.1125
   74SLPC  C317 6646   2.883   3.778   8.286 -0.7608 -0.3542 -0.3926
   74SLPC  H17X 6647   2.803   3.855   8.289 -0.4050  0.1764 -2.9806
   74SLPC  H17Y 6648   2.833   3.683   8.259 -0.7878  0.0353 -1.7405
   74SLPC  C318 6649   2.961   3.823   8.160 -0.8716  0.3412  0.0893
   74SLPC  H18X 6650   3.049   3.758   8.139 -1.6371  0.0752 -2.4340
   74SLPC  H18Y 6651   2.988   3.930   8.169 -1.3862  0.6019 -1.4700
   74SLPC  H18Z 6652   2.908   3.812   8.063  4.1538 -1.4515 -2.6534
   75SLPC     N 6653   1.212   0.198   6.517  0.0837 -0.8377 -0.3002
   75SLPC   C13 6654   1.268   0.260   6.385 -0.7448 -0.1138 -0.1075
   75SLPC  H13A 6655   1.335   0.340   6.416  0.7951 -1.0719 -0.9049
   75SLPC  H13B 6656   1.334   0.193   6.333  1.0141 -0.3321  2.3194
   75SLPC  H13C 6657   1.191   0.297   6.319  1.0709  1.5673 -1.3555
   75SLPC   C14 6658   1.333   0.195   6.606  0.1392 -0.0712  0.4069
   75SLPC  H14A 6659   1.411   0.123   6.584  0.1830 -0.1862  0.9217
   75SLPC  H14B 6660   1.381   0.291   6.617  1.0324 -0.0804 -3.0152
   75SLPC  H14C 6661   1.298   0.161   6.703  1.4443 -0.3762  0.7834
   75SLPC   C15 6662   1.162   0.060   6.492  0.6655  0.0873 -0.0383
   75SLPC  H15A 6663   1.122   0.031   6.588 -1.3582  0.3320 -0.7836
   75SLPC  H15B 6664   1.070   0.056   6.437  0.7026 -1.0048 -0.0161
   75SLPC  H15C 6665   1.232  -0.009   6.447 -0.9372 -0.0272 -2.4182
   75SLPC   C12 6666   1.103   0.292   6.569  0.6920 -0.1314  0.3189
   75SLPC  H12A 6667   1.143   0.389   6.596 -1.1492  0.6644  0.2589
   75SLPC  H12B 6668   1.061   0.256   6.662 -3.3011 -1.9112 -2.0380
   75SLPC   C11 6669   0.979   0.337   6.484 -0.0774  0.0345  0.1234
   75SLPC  H11A 6670   1.024   0.395   6.401 -1.8403 -0.4675 -1.2146
   75SLPC  H11B 6671   0.927   0.411   6.549  4.0993  2.0585  1.3579
   75SLPC     P 6672   0.790   0.161   6.520 -0.1329 -0.2621  0.0054
   75SLPC   O13 6673   0.696   0.257   6.576  0.5391  0.1235 -0.3497
   75SLPC   O14 6674   0.731   0.049   6.451  0.1627 -0.3252 -0.2411
   75SLPC   O12 6675   0.891   0.233   6.433  0.4588 -0.0083  0.1440
   75SLPC   O11 6676   0.893   0.104   6.627  0.4680  0.8581  0.6851
   75SLPC    C1 6677   0.879   0.123   6.766 -0.2632 -0.0933 -0.7323
   75SLPC    HA 6678   0.979   0.113   6.813 -0.9680 -0.3282  0.7240
   75SLPC    HB 6679   0.843   0.225   6.792 -0.4990 -0.7602  1.6201
   75SLPC    C2 6680   0.787   0.014   6.822 -0.1095  0.2500  0.0019
   75SLPC    HS 6681   0.680   0.030   6.794 -0.0359  0.1234 -0.3493
   75SLPC   O21 6682   0.798   0.015   6.968  0.1068 -0.0256  0.3422
   75SLPC   C21 6683   0.705   0.086   7.026 -0.1834 -1.0049 -0.0374
   75SLPC   O22 6684   0.626   0.160   6.973 -0.5100 -1.0029  0.0774
   75SLPC   C22 6685   0.728   0.079   7.182  0.0641  0.2267  0.0658
   75SLPC   H2R 6686   0.724  -0.027   7.212  0.6067  0.1044 -0.2888
   75SLPC   H2S 6687   0.825   0.115   7.222  1.9012 -1.5194 -2.6700
   75SLPC    C3 6688   0.821  -0.118   6.764 -0.1938  0.7129 -0.5366
   75SLPC    HX 6689   0.931  -0.133   6.771 -0.4216 -0.5179  0.6416
   75SLPC    HY 6690   0.804  -0.126   6.654  1.0217 -1.1697 -0.6082
   75SLPC   O31 6691   0.763  -0.226   6.838 -0.5218  0.1352 -0.4169
   75SLPC   C31 6692   0.809  -0.349   6.819 -0.1494  0.4461  0.1903
   75SLPC   O32 6693   0.897  -0.380   6.740 -0.1666 -0.2011  0.4636
   75SLPC   C32 6694   0.728  -0.452   6.900 -0.4866 -0.5402  0.1104
   75SLPC   H2X 6695   0.766  -0.456   7.004 -0.2574 -0.2588  0.0387
   75SLPC   H2Y 6696   0.749  -0.548   6.847  0.5141  0.0969 -0.6639
   75SLPC   C23 6697   0.620   0.153   7.259 -0.5543 -0.2689  0.2813
   75SLPC   H3R 6698   0.517   0.134   7.220 -0.2010 -0.8259 -0.3950
   75SLPC   H3S 6699   0.628   0.262   7.237  1.5024 -0.8628 -2.1934
   75SLPC   C24 6700   0.625   0.138   7.412 -0.0577 -0.0226 -0.4715
   75SLPC   H4R 6701   0.726   0.173   7.444  0.0192  0.7673 -1.5636
   75SLPC   H4S 6702   0.629   0.031   7.443  2.8531  0.0278 -0.5306
   75SLPC   C25 6703   0.526   0.230   7.491  0.2836 -0.5055  0.5293
   75SLPC   H5R 6704   0.421   0.209   7.458 -0.3793  0.2612  2.1089
   75SLPC   H5S 6705   0.537   0.335   7.458 -2.7758  0.1229  1.3115
   75SLPC   C26 6706   0.538   0.214   7.642  0.3385 -0.6150 -0.7235
   75SLPC   H6R 6707   0.639   0.241   7.679 -0.5879  0.8048  0.8550
   75SLPC   H6S 6708   0.522   0.105   7.656  2.9216 -0.6745  2.2963
   75SLPC   C27 6709   0.436   0.308   7.712  0.0237  0.0008  0.1238
   75SLPC   H7R 6710   0.342   0.249   7.720  1.1628 -1.8747  0.0185
   75SLPC   H7S 6711   0.417   0.396   7.647  1.5474 -0.6831 -1.3066
   75SLPC   C28 6712   0.478   0.341   7.860  0.1282 -0.0828  1.0699
   75SLPC   H8R 6713   0.407   0.407   7.914 -0.7170 -1.8067  2.1073
   75SLPC   H8S 6714   0.573   0.399   7.852  0.8924 -1.6659 -1.9275
   75SLPC   C29 6715   0.501   0.216   7.935 -0.2802  0.0854  0.0582
   75SLPC   H9R 6716   0.577   0.150   7.890  0.7419  2.1570 -1.3153
   75SLPC  C210 6717   0.458   0.188   8.059  0.2656 -0.4838 -0.0930
   75SLPC  H10R 6718   0.479   0.092   8.108 -0.0477 -0.2409  0.5273
   75SLPC  C211 6719   0.366   0.267   8.151  0.0785 -0.0410 -0.1042
   75SLPC  H11R 6720   0.334   0.367   8.114 -1.3745 -0.4747 -0.0412
   75SLPC  H11S 6721   0.414   0.274   8.251  0.1934 -0.0054 -0.1624
   75SLPC  C212 6722   0.241   0.182   8.170  1.0979  0.0008 -0.0509
   75SLPC  H12R 6723   0.205   0.129   8.080  1.3291 -2.9996  1.5718
   75SLPC  C213 6724   0.173   0.169   8.287 -0.5345 -0.7655 -0.4928
   75SLPC  H13R 6725   0.083   0.106   8.286 -2.1797  1.5390  0.5134
   75SLPC  C214 6726   0.200   0.247   8.412 -0.0323 -0.5701 -0.0091
   75SLPC  H14R 6727   0.242   0.347   8.388  2.2396 -1.4624  0.1681
   75SLPC  H14S 6728   0.278   0.194   8.470  0.0463 -0.3831  0.0567
   75SLPC  C215 6729   0.077   0.275   8.495  0.4556 -0.0796 -0.4475
   75SLPC  H15R 6730   0.025   0.181   8.525 -0.6313  0.7948  0.4833
   75SLPC  H15S 6731   0.003   0.317   8.423  1.0459 -0.5600 -1.3338
   75SLPC  C216 6732   0.104   0.364   8.618  0.5032  0.1720 -0.9782
   75SLPC  H16R 6733   0.009   0.387   8.672  1.7928 -0.4870  1.6573
   75SLPC  H16S 6734   0.157   0.457   8.589 -0.5204  1.0058 -0.1965
   75SLPC  C217 6735   0.202   0.298   8.717  0.7296 -0.3855  0.4628
   75SLPC  H17R 6736   0.308   0.331   8.718  0.4607  0.4809  1.0244
   75SLPC  H17S 6737   0.198   0.187   8.714 -0.4682 -0.3892  1.5179
   75SLPC  C218 6738   0.171   0.325   8.869 -0.2781 -0.6767  0.0772
   75SLPC  H18R 6739   0.067   0.290   8.888 -1.1327  0.6705 -1.9726
   75SLPC  H18S 6740   0.171   0.435   8.881 -0.0424 -0.8911  2.2996
   75SLPC  H18T 6741   0.239   0.278   8.943  1.3960  4.4591  1.9827
   75SLPC   C33 6742   0.578  -0.420   6.897 -0.2029  0.4992 -0.2052
   75SLPC   H3X 6743   0.535  -0.389   6.799 -0.6100  0.6232  0.0095
   75SLPC   H3Y 6744   0.537  -0.523   6.908  2.0974 -0.3698  0.5214
   75SLPC   C34 6745   0.520  -0.343   7.020 -0.2664  0.4212 -0.3522
   75SLPC   H4X 6746   0.413  -0.327   6.995 -0.3391  1.9216  0.7954
   75SLPC   H4Y 6747   0.568  -0.244   7.008  1.2796 -0.4012 -1.0916
   75SLPC   C35 6748   0.535  -0.392   7.165 -0.2654  0.5607 -0.1103
   75SLPC   H5X 6749   0.640  -0.407   7.197 -1.0053 -0.0706  2.0901
   75SLPC   H5Y 6750   0.479  -0.487   7.172 -2.1262  1.7567  1.8492
   75SLPC   C36 6751   0.474  -0.296   7.268  0.0281 -0.3871 -0.1027
   75SLPC   H6X 6752   0.368  -0.276   7.240 -0.3430 -0.6921  1.0729
   75SLPC   H6Y 6753   0.524  -0.197   7.263  0.0503 -0.4315 -0.8599
   75SLPC   C37 6754   0.484  -0.349   7.407 -1.0061 -0.5220  0.2513
   75SLPC   H7X 6755   0.594  -0.349   7.418 -1.0251 -0.9607  0.4519
   75SLPC   H7Y 6756   0.439  -0.451   7.416  0.0597 -0.8405  2.1060
   75SLPC   C38 6757   0.408  -0.248   7.499  0.3197  0.0178 -0.0446
   75SLPC   H8X 6758   0.299  -0.270   7.506  0.4267 -0.7516 -0.6608
   75SLPC   H8Y 6759   0.426  -0.148   7.456  1.0263  0.3302  0.9663
   75SLPC   C39 6760   0.459  -0.262   7.643  0.0094 -0.0609 -0.1900
   75SLPC   H9X 6761   0.569  -0.250   7.651 -0.1489  0.7493  0.7359
   75SLPC   H9Y 6762   0.440  -0.369   7.666 -0.5314 -0.2713 -1.5811
   75SLPC  C310 6763   0.381  -0.187   7.746 -0.0726 -0.2422  0.6754
   75SLPC  H10X 6764   0.287  -0.239   7.774  1.4233 -3.8311 -0.6747
   75SLPC  H10Y 6765   0.346  -0.085   7.720 -2.9630 -0.7701  2.2890
   75SLPC  C311 6766   0.471  -0.164   7.877 -0.1869 -0.3129  0.1793
   75SLPC  H11X 6767   0.496  -0.057   7.898 -1.1565  0.0053 -0.2352
   75SLPC  H11Y 6768   0.570  -0.212   7.863  0.1557  0.4338  0.0010
   75SLPC  C312 6769   0.403  -0.216   8.003 -0.2260  0.1053  0.2111
   75SLPC  H12X 6770   0.369  -0.318   7.975  0.4560  0.5288 -2.3221
   75SLPC  H12Y 6771   0.314  -0.156   8.031 -1.4842 -2.1506  1.1586
   75SLPC  C313 6772   0.495  -0.223   8.124  0.8417  0.2770  0.2085
   75SLPC  H13X 6773   0.515  -0.116   8.148 -1.9278  1.3296 -1.8840
   75SLPC  H13Y 6774   0.585  -0.280   8.094  0.1156 -1.1016  0.5940
   75SLPC  C314 6775   0.427  -0.281   8.244 -0.2447 -0.1125  0.4045
   75SLPC  H14X 6776   0.409  -0.388   8.221  4.1868 -1.6992  3.7125
   75SLPC  H14Y 6777   0.328  -0.234   8.265  1.9423  3.6351  2.9149
   75SLPC  C315 6778   0.515  -0.278   8.372  0.1814 -0.4753  0.7280
   75SLPC  H15X 6779   0.465  -0.322   8.460  0.2965 -2.6074 -0.2552
   75SLPC  H15Y 6780   0.545  -0.174   8.396  0.4827 -0.7105  1.3567
   75SLPC  C316 6781   0.650  -0.350   8.363 -0.1202  0.4490  0.2782
   75SLPC  H16X 6782   0.692  -0.319   8.265 -2.7697  1.3415 -0.6066
   75SLPC  H16Y 6783   0.620  -0.457   8.354 -0.5270  0.6900 -1.3842
   75SLPC  C317 6784   0.743  -0.310   8.475 -0.5472 -0.9057 -0.2400
   75SLPC  H17X 6785   0.745  -0.200   8.492  0.3334 -1.2971  2.4190
   75SLPC  H17Y 6786   0.843  -0.326   8.430 -0.4438 -2.1389  0.4053
   75SLPC  C318 6787   0.713  -0.377   8.604 -0.1284 -0.7089 -0.3552
   75SLPC  H18X 6788   0.721  -0.488   8.599 -0.0211 -0.5762 -3.6582
   75SLPC  H18Y 6789   0.614  -0.352   8.648  0.6718  0.6305  0.7468
   75SLPC  H18Z 6790   0.786  -0.347   8.683  0.3881 -0.7498 -0.8152
   76SLPC     N 6791   2.163   4.862   6.095 -0.2512  1.2204 -0.6898
   76SLPC   C13 6792   2.109   4.968   6.013 -0.5142 -0.0146  0.3136
   76SLPC  H13A 6793   2.106   4.936   5.910 -1.1176  3.7747 -0.9129
   76SLPC  H13B 6794   2.022   5.018   6.052 -1.2681 -1.3604  0.3757
   76SLPC  H13C 6795   2.182   5.048   6.007 -1.7289  1.1293  0.6362
   76SLPC   C14 6796   2.295   4.812   6.047  0.3573 -0.4561 -0.3592
   76SLPC  H14A 6797   2.335   4.740   6.118 -0.2195  1.2501  1.7530
   76SLPC  H14B 6798   2.280   4.754   5.957  2.4844 -0.5425 -0.6869
   76SLPC  H14C 6799   2.360   4.898   6.040  0.3327 -0.6039 -2.8915
   76SLPC   C15 6800   2.079   4.739   6.073  0.2768 -0.2923 -0.1124
   76SLPC  H15A 6801   1.975   4.753   6.096  0.8414  1.7430  1.2548
   76SLPC  H15B 6802   2.079   4.703   5.971 -1.2260 -1.7510  0.3919
   76SLPC  H15C 6803   2.116   4.651   6.125 -0.3148 -1.3288 -1.4096
   76SLPC   C12 6804   2.182   4.898   6.241 -0.0567 -0.1877  0.2203
   76SLPC  H12A 6805   2.230   4.813   6.288  2.0273  0.9882  0.2701
   76SLPC  H12B 6806   2.086   4.907   6.289 -0.4624 -3.0814  0.0836
   76SLPC   C11 6807   2.268   5.025   6.269 -0.0007 -0.0050  0.3434
   76SLPC  H11A 6808   2.280   5.040   6.378  1.5169 -0.4122  0.2494
   76SLPC  H11B 6809   2.208   5.112   6.234  1.2349  0.1720 -1.4208
   76SLPC     P 6810   2.519   5.005   6.287 -0.7202 -0.2372 -0.3417
   76SLPC   O13 6811   2.495   4.886   6.370  0.2408  0.2047 -0.6461
   76SLPC   O14 6812   2.640   5.010   6.199  0.0606  0.4755 -0.2011
   76SLPC   O12 6813   2.388   5.036   6.196  0.0616 -0.2928  0.6114
   76SLPC   O11 6814   2.527   5.135   6.373 -0.4375  0.2722 -1.0772
   76SLPC    C1 6815   2.484   5.263   6.338 -0.6977 -0.2970  0.9243
   76SLPC    HA 6816   2.542   5.288   6.246  0.5250 -2.0886  1.1833
   76SLPC    HB 6817   2.374   5.263   6.322 -0.8810  0.9300  2.0236
   76SLPC    C2 6818   2.522   5.357   6.454 -0.3341 -0.1639 -0.4106
   76SLPC    HS 6819   2.494   5.463   6.436 -2.9095 -1.1168 -2.2955
   76SLPC   O21 6820   2.662   5.350   6.468 -0.3649  0.9131 -0.5591
   76SLPC   C21 6821   2.736   5.400   6.375 -0.6298 -0.4966 -0.0337
   76SLPC   O22 6822   2.695   5.462   6.279 -0.6159 -0.2748 -0.1891
   76SLPC   C22 6823   2.885   5.368   6.414 -0.4602  0.0797 -0.6305
   76SLPC   H2R 6824   2.950   5.413   6.336 -0.2307  3.7284  1.5216
   76SLPC   H2S 6825   2.901   5.411   6.515 -1.0290 -0.6530 -0.2190
   76SLPC    C3 6826   2.436   5.317   6.578  0.7993  0.0974  0.4098
   76SLPC    HX 6827   2.451   5.207   6.585 -2.5639 -0.2966  2.0655
   76SLPC    HY 6828   2.327   5.329   6.562  1.2827  0.3003 -3.2124
   76SLPC   O31 6829   2.473   5.375   6.704  0.3336  0.0017  0.6428
   76SLPC   C31 6830   2.393   5.336   6.807 -0.4319 -0.3272 -0.7254
   76SLPC   O32 6831   2.305   5.256   6.795  0.0837 -0.3087  0.2181
   76SLPC   C32 6832   2.443   5.396   6.938 -0.0852  0.1535 -0.5405
   76SLPC   H2X 6833   2.411   5.502   6.937  0.3366  0.2749 -1.5971
   76SLPC   H2Y 6834   2.554   5.386   6.933  0.1714  0.7392  2.4973
   76SLPC   C23 6835   2.927   5.223   6.425  0.3176  0.0831 -0.3890
   76SLPC   H3R 6836   3.037   5.228   6.437  0.5593 -0.2923 -2.2413
   76SLPC   H3S 6837   2.893   5.176   6.330  0.0012  0.7740 -0.6162
   76SLPC   C24 6838   2.863   5.137   6.534  0.3235  0.6484 -0.0611
   76SLPC   H4R 6839   2.924   5.045   6.540 -0.0348  0.2943 -1.4604
   76SLPC   H4S 6840   2.764   5.100   6.497 -0.8518  2.1524  1.5241
   76SLPC   C25 6841   2.855   5.186   6.680 -0.4869  0.2363 -0.1325
   76SLPC   H5R 6842   2.785   5.119   6.736 -1.6754  1.8129  0.2995
   76SLPC   H5S 6843   2.803   5.284   6.682  0.6841  0.8535  0.1048
   76SLPC   C26 6844   2.987   5.184   6.760  0.1175 -0.2487 -0.3895
   76SLPC   H6R 6845   3.057   5.261   6.722  2.6026 -2.1585  0.1494
   76SLPC   H6S 6846   3.040   5.089   6.734 -1.6571 -2.7272  4.3919
   76SLPC   C27 6847   2.962   5.188   6.909 -0.1492  0.0133 -0.0826
   76SLPC   H7R 6848   3.048   5.158   6.973  0.9372 -0.7475 -1.8795
   76SLPC   H7S 6849   2.898   5.102   6.940  1.4377 -1.0856  0.1675
   76SLPC   C28 6850   2.899   5.321   6.951  0.2631  0.6611 -0.9926
   76SLPC   H8R 6851   2.826   5.348   6.872  0.3394  1.3186 -0.8381
   76SLPC   H8S 6852   2.853   5.303   7.050  1.0540 -0.2662 -0.7853
   76SLPC   C29 6853   3.009   5.425   6.952  0.0739  0.3020 -0.4885
   76SLPC   H9R 6854   3.070   5.428   6.861 -0.3981  0.2612 -0.8067
   76SLPC  C210 6855   3.035   5.507   7.054 -0.0599 -0.3756  0.1841
   76SLPC  H10R 6856   3.123   5.573   7.052  1.0100 -1.8093 -1.4305
   76SLPC  C211 6857   2.977   5.507   7.194 -0.0353  0.2460  0.5237
   76SLPC  H11R 6858   2.892   5.436   7.196  0.7595 -0.6874  1.3087
   76SLPC  H11S 6859   2.932   5.606   7.220  0.4017  0.3656  0.8344
   76SLPC  C212 6860   3.077   5.463   7.296  0.4266  0.1302  0.3279
   76SLPC  H12R 6861   3.153   5.397   7.251  1.5075  1.1305  0.6798
   76SLPC  C213 6862   3.079   5.490   7.426 -0.0606  0.0181  0.8259
   76SLPC  H13R 6863   3.145   5.434   7.494 -0.8703 -0.0458  1.5757
   76SLPC  C214 6864   2.967   5.576   7.493 -0.5519 -0.6506  0.0279
   76SLPC  H14R 6865   2.933   5.518   7.581 -1.5309 -0.9879 -0.5614
   76SLPC  H14S 6866   2.877   5.604   7.433 -0.9952 -2.0550  0.0233
   76SLPC  C215 6867   3.037   5.704   7.545  0.3597 -0.0519  0.3444
   76SLPC  H15R 6868   2.958   5.783   7.550 -0.1600 -0.5617  0.2575
   76SLPC  H15S 6869   3.117   5.746   7.481 -1.1789  0.5101 -1.2580
   76SLPC  C216 6870   3.088   5.684   7.692  0.1923  0.6620 -0.1598
   76SLPC  H16R 6871   3.154   5.766   7.729  1.6065 -0.7346  0.4873
   76SLPC  H16S 6872   3.154   5.595   7.698  3.8056  3.2245 -0.3461
   76SLPC  C217 6873   2.971   5.674   7.786  0.4515  0.0406  0.0648
   76SLPC  H17R 6874   2.931   5.572   7.768 -0.9117  0.3370  1.2950
   76SLPC  H17S 6875   2.895   5.754   7.768  0.7786  0.4571  0.5505
   76SLPC  C218 6876   3.015   5.664   7.933 -0.4210 -0.4820 -0.0276
   76SLPC  H18R 6877   3.068   5.754   7.970  1.3232 -1.7232  0.5757
   76SLPC  H18S 6878   3.068   5.569   7.954 -3.7045 -2.4782 -0.4882
   76SLPC  H18T 6879   2.923   5.661   7.996  0.7391  1.3695  1.8214
   76SLPC   C33 6880   2.402   5.317   7.059 -0.4390  0.6929  0.4261
   76SLPC   H3X 6881   2.437   5.212   7.058 -2.6318 -0.0736 -0.8087
   76SLPC   H3Y 6882   2.292   5.303   7.045 -0.3669  1.0353 -0.5344
   76SLPC   C34 6883   2.433   5.386   7.189  0.7335 -0.7512 -0.0012
   76SLPC   H4X 6884   2.393   5.490   7.201  0.8660 -0.6838 -0.1482
   76SLPC   H4Y 6885   2.543   5.393   7.196  0.7671 -0.5372 -0.6843
   76SLPC   C35 6886   2.385   5.300   7.314  0.3245  0.0274  0.4138
   76SLPC   H5X 6887   2.438   5.204   7.293  1.8871  0.6992  1.2149
   76SLPC   H5Y 6888   2.275   5.287   7.322 -0.1089  3.2697  0.1429
   76SLPC   C36 6889   2.439   5.349   7.453 -0.5194 -0.8429 -1.0821
   76SLPC   H6X 6890   2.388   5.287   7.530  2.2188 -0.1686  1.3733
   76SLPC   H6Y 6891   2.403   5.452   7.471 -1.0762 -1.2911  0.4354
   76SLPC   C37 6892   2.593   5.335   7.467  0.0901 -0.1622  0.1037
   76SLPC   H7X 6893   2.650   5.401   7.399 -0.3979 -0.7309 -0.8700
   76SLPC   H7Y 6894   2.618   5.227   7.456  0.3001 -0.3111  1.9079
   76SLPC   C38 6895   2.638   5.390   7.607  0.5033  0.5127  0.7345
   76SLPC   H8X 6896   2.570   5.476   7.624  1.7185  1.1817  2.3550
   76SLPC   H8Y 6897   2.745   5.420   7.611  0.4980  0.5311  0.7282
   76SLPC   C39 6898   2.619   5.291   7.719  0.1249 -0.4138  0.4033
   76SLPC   H9X 6899   2.707   5.224   7.722  0.5755  0.1680  0.2312
   76SLPC   H9Y 6900   2.530   5.229   7.692  0.1163 -0.5472  0.7405
   76SLPC  C310 6901   2.628   5.363   7.858  0.3306 -0.0660  0.2636
   76SLPC  H10X 6902   2.536   5.426   7.864  1.3252  1.5213 -0.9897
   76SLPC  H10Y 6903   2.718   5.428   7.854 -0.1865  0.8651  2.5347
   76SLPC  C311 6904   2.633   5.267   7.978  0.0054 -0.1705  0.2821
   76SLPC  H11X 6905   2.669   5.315   8.072 -2.2856 -1.3048  1.7844
   76SLPC  H11Y 6906   2.700   5.182   7.953 -0.4539  0.1279 -2.0531
   76SLPC  C312 6907   2.490   5.221   8.021 -0.2620 -0.1431 -0.0073
   76SLPC  H12X 6908   2.444   5.156   7.943 -0.3726 -0.7776  0.5888
   76SLPC  H12Y 6909   2.419   5.304   8.042 -0.9713 -0.9145  0.6821
   76SLPC  C313 6910   2.489   5.137   8.150  0.2876  0.2264  0.0068
   76SLPC  H13X 6911   2.528   5.207   8.228  1.1873  0.3269 -0.5240
   76SLPC  H13Y 6912   2.571   5.063   8.147 -0.0674 -0.1557 -0.2220
   76SLPC  C314 6913   2.351   5.076   8.187 -0.2093  0.3325  0.0138
   76SLPC  H14X 6914   2.334   4.989   8.120 -3.1742 -1.3761  2.8415
   76SLPC  H14Y 6915   2.273   5.152   8.163  0.6953  1.5201  0.7833
   76SLPC  C315 6916   2.336   5.035   8.334  0.1304  0.0588  0.8058
   76SLPC  H15X 6917   2.390   5.108   8.398  4.0161 -1.1480 -0.9301
   76SLPC  H15Y 6918   2.400   4.945   8.343  0.9397  0.5731  0.2885
   76SLPC  C316 6919   2.195   5.016   8.374 -0.0758  0.3905 -0.3917
   76SLPC  H16X 6920   2.136   4.972   8.290  3.1086 -1.9717 -1.4807
   76SLPC  H16Y 6921   2.145   5.110   8.404 -0.3513 -0.3933  1.6974
   76SLPC  C317 6922   2.166   4.911   8.487  0.8923 -0.0794  0.0303
   76SLPC  H17X 6923   2.211   4.951   8.580 -2.7857  0.7414  1.5753
   76SLPC  H17Y 6924   2.208   4.817   8.445  0.2762 -0.9430  1.3230
   76SLPC  C318 6925   2.016   4.903   8.505 -0.4592 -0.2925  0.1916
   76SLPC  H18X 6926   1.992   4.834   8.588 -0.6551 -1.1245 -0.5491
   76SLPC  H18Y 6927   1.977   4.855   8.412  2.3777  2.5370 -2.6322
   76SLPC  H18Z 6928   1.960   4.997   8.525 -0.4977 -0.1012 -0.7611
   77SLPC     N 6929   5.602   5.082   6.332  0.1282 -0.0625  0.1366
   77SLPC   C13 6930   5.455   5.047   6.300  0.0855  0.0731 -0.5391
   77SLPC  H13A 6931   5.394   5.135   6.308 -0.0863 -0.2118  1.5245
   77SLPC  H13B 6932   5.428   5.019   6.199 -3.5933 -0.2314  0.4710
   77SLPC  H13C 6933   5.433   4.960   6.361  1.8001  0.3807  0.5626
   77SLPC   C14 6934   5.655   5.177   6.228  0.0892  0.8332  0.0443
   77SLPC  H14A 6935   5.613   5.276   6.231  0.8717  1.1613  0.1217
   77SLPC  H14B 6936   5.762   5.191   6.230  0.0263  1.4664 -0.7227
   77SLPC  H14C 6937   5.630   5.140   6.130  2.6764 -0.4111 -0.1936
   77SLPC   C15 6938   5.688   4.964   6.315  0.2092 -0.4960 -0.1719
   77SLPC  H15A 6939   5.788   5.002   6.329 -0.2215  0.6676 -0.2622
   77SLPC  H15B 6940   5.672   4.884   6.386 -1.1903 -1.1513 -1.1961
   77SLPC  H15C 6941   5.668   4.910   6.224 -0.3476 -1.0006  0.2405
   77SLPC   C12 6942   5.611   5.140   6.470  0.1138  0.1460 -0.1425
   77SLPC  H12A 6943   5.553   5.230   6.454  0.3152 -0.0668 -2.1673
   77SLPC  H12B 6944   5.712   5.165   6.499  0.2091  0.5237 -0.8033
   77SLPC   C11 6945   5.546   5.057   6.581  0.2921  0.0622  0.3477
   77SLPC  H11A 6946   5.436   5.068   6.568  0.3248 -1.8139 -1.8522
   77SLPC  H11B 6947   5.559   5.104   6.681  0.5633 -0.7830  0.7170
   77SLPC     P 6948   5.508   4.801   6.608  0.0999  0.1601 -0.1114
   77SLPC   O13 6949   5.417   4.805   6.494 -0.1197 -0.2670 -0.4914
   77SLPC   O14 6950   5.591   4.679   6.618  0.4255 -0.2469 -0.2613
   77SLPC   O12 6951   5.599   4.923   6.599 -0.3340 -0.1441 -0.1822
   77SLPC   O11 6952   5.428   4.832   6.741  0.1757 -0.2793  0.8688
   77SLPC    C1 6953   5.416   4.742   6.846  0.2756  0.5291 -0.7357
   77SLPC    HA 6954   5.318   4.763   6.893  0.7061  3.5267 -1.0705
   77SLPC    HB 6955   5.414   4.634   6.820  0.4610  0.5363 -0.7794
   77SLPC    C2 6956   5.538   4.755   6.938  0.7359 -0.2162 -0.6258
   77SLPC    HS 6957   5.624   4.725   6.874  0.2131  1.7382 -2.3055
   77SLPC   O21 6958   5.521   4.687   7.061 -0.4322  0.4764  0.0513
   77SLPC   C21 6959   5.570   4.563   7.079  0.1456 -0.0999 -0.0862
   77SLPC   O22 6960   5.638   4.503   6.999 -0.3367 -0.3626  0.3764
   77SLPC   C22 6961   5.543   4.512   7.216 -0.0406 -0.3644  0.6391
   77SLPC   H2R 6962   5.600   4.574   7.289  1.0900  0.1616 -0.6702
   77SLPC   H2S 6963   5.436   4.519   7.244 -0.0524  0.9707  0.3025
   77SLPC    C3 6964   5.583   4.902   6.976  0.7386  0.1458 -0.5802
   77SLPC    HX 6965   5.493   4.946   7.024  0.2829 -0.7589 -0.6005
   77SLPC    HY 6966   5.606   4.960   6.885 -0.6117  1.7937  0.1143
   77SLPC   O31 6967   5.686   4.903   7.074  0.1586 -0.7559  0.2994
   77SLPC   C31 6968   5.806   4.862   7.029  0.8864 -0.2879 -1.2237
   77SLPC   O32 6969   5.827   4.839   6.908  0.2321 -0.4618 -0.8626
   77SLPC   C32 6970   5.900   4.866   7.147 -0.8517 -0.3014 -0.1590
   77SLPC   H2X 6971   5.894   4.972   7.183 -0.5200 -0.3183 -0.0468
   77SLPC   H2Y 6972   6.001   4.843   7.105 -0.1336 -2.1857  2.4701
   77SLPC   C23 6973   5.584   4.365   7.236  0.1659  0.8377 -0.2456
   77SLPC   H3R 6974   5.690   4.363   7.205 -0.4740  0.6293 -2.5061
   77SLPC   H3S 6975   5.519   4.294   7.181 -1.1422  1.1094  0.9266
   77SLPC   C24 6976   5.561   4.318   7.384 -0.1609 -0.8952 -0.1061
   77SLPC   H4R 6977   5.452   4.324   7.406 -0.4431 -0.5464 -1.5127
   77SLPC   H4S 6978   5.612   4.391   7.451 -2.4455  0.4726  0.2070
   77SLPC   C25 6979   5.612   4.175   7.408  0.1605  0.5504  0.0719
   77SLPC   H5R 6980   5.561   4.092   7.354  0.9785 -1.3173  2.0947
   77SLPC   H5S 6981   5.611   4.156   7.518 -1.9735  2.3348  0.3938
   77SLPC   C26 6982   5.757   4.173   7.353  0.8157  0.2847  0.4607
   77SLPC   H6R 6983   5.756   4.194   7.244 -0.4822  0.5352  0.5106
   77SLPC   H6S 6984   5.790   4.068   7.371  1.1485 -0.0234 -1.8756
   77SLPC   C27 6985   5.848   4.278   7.415  0.2606 -0.0760 -0.1811
   77SLPC   H7R 6986   5.836   4.272   7.526 -0.1076 -3.5407 -0.3474
   77SLPC   H7S 6987   5.812   4.377   7.381 -1.3343 -0.3343  0.6865
   77SLPC   C28 6988   5.997   4.253   7.375 -0.1081  0.0947  0.4454
   77SLPC   H8R 6989   5.981   4.238   7.266 -0.2796 -1.7542  0.7153
   77SLPC   H8S 6990   6.027   4.158   7.424  0.7722  0.2298  0.1787
   77SLPC   C29 6991   6.099   4.361   7.402 -0.1843 -0.0892 -0.2842
   77SLPC   H9R 6992   6.101   4.449   7.337 -0.1981  0.1396  0.0219
   77SLPC  C210 6993   6.188   4.360   7.506  0.3486 -0.4061 -0.2299
   77SLPC  H10R 6994   6.262   4.441   7.512 -0.2276  0.1480 -0.4578
   77SLPC  C211 6995   6.194   4.262   7.623  0.2522  0.2654 -0.2388
   77SLPC  H11R 6996   6.107   4.193   7.617 -1.0441  1.9483 -0.9638
   77SLPC  H11S 6997   6.193   4.312   7.721  0.4162  0.1164 -0.1600
   77SLPC  C212 6998   6.314   4.177   7.596  0.5869  0.7246 -0.8899
   77SLPC  H12R 6999   6.348   4.157   7.494 -1.1649 -0.7326 -1.2265
   77SLPC  C213 7000   6.391   4.124   7.692  0.1310 -0.7773 -0.6823
   77SLPC  H13R 7001   6.474   4.060   7.659 -0.1543 -0.7475 -1.4747
   77SLPC  C214 7002   6.384   4.114   7.842 -0.6282  0.0299  0.4721
   77SLPC  H14R 7003   6.278   4.128   7.871 -1.3169 -1.5106 -1.1657
   77SLPC  H14S 7004   6.442   4.189   7.899  2.1889 -2.0551  0.4658
   77SLPC  C215 7005   6.421   3.970   7.880 -0.3789 -0.8502  0.5178
   77SLPC  H15R 7006   6.514   3.941   7.826 -0.7234 -0.1740 -0.4534
   77SLPC  H15S 7007   6.347   3.895   7.844 -0.2559 -1.2999  1.1819
   77SLPC  C216 7008   6.436   3.952   8.032 -0.2566  0.3667  0.0009
   77SLPC  H16R 7009   6.475   4.050   8.066 -0.0094  0.9141 -1.8480
   77SLPC  H16S 7010   6.510   3.870   8.049 -1.3685 -0.5305  0.5937
   77SLPC  C217 7011   6.302   3.906   8.093  0.0133 -0.1373 -0.3088
   77SLPC  H17R 7012   6.280   3.809   8.044 -1.6297 -0.2641  0.6424
   77SLPC  H17S 7013   6.226   3.985   8.078 -1.2098 -1.3436 -0.4824
   77SLPC  C218 7014   6.315   3.862   8.245  0.6417  0.0358 -0.7955
   77SLPC  H18R 7015   6.220   3.867   8.303  0.1664  1.1333 -1.6707
   77SLPC  H18S 7016   6.387   3.931   8.295 -1.3817  0.1562  2.0837
   77SLPC  H18T 7017   6.368   3.764   8.243  1.3057  0.3964 -1.0723
   77SLPC   C33 7018   5.880   4.762   7.266  0.4833 -0.4068  0.2648
   77SLPC   H3X 7019   5.880   4.659   7.224 -1.6193  0.0562 -0.9537
   77SLPC   H3Y 7020   5.781   4.778   7.313 -0.2729 -1.4283 -0.9455
   77SLPC   C34 7021   5.993   4.788   7.371  0.4428  0.3630 -0.0353
   77SLPC   H4X 7022   5.980   4.890   7.413 -0.7713 -0.4640  1.6443
   77SLPC   H4Y 7023   6.089   4.770   7.319 -0.0152 -0.9355 -0.4451
   77SLPC   C35 7024   5.980   4.691   7.487  0.4683 -0.0671  0.0313
   77SLPC   H5X 7025   5.968   4.587   7.450  0.0100 -0.0098  0.0229
   77SLPC   H5Y 7026   5.892   4.718   7.549 -0.9004  0.2352 -2.0050
   77SLPC   C36 7027   6.113   4.702   7.573  0.1049  0.2295 -0.0627
   77SLPC   H6X 7028   6.143   4.808   7.588  1.0619  0.2445 -1.8888
   77SLPC   H6Y 7029   6.188   4.651   7.509  1.1567  0.9333  0.5840
   77SLPC   C37 7030   6.103   4.643   7.711  0.3894 -0.3334  0.1907
   77SLPC   H7X 7031   6.197   4.592   7.740  0.7371 -0.3450 -0.9271
   77SLPC   H7Y 7032   6.026   4.564   7.713  0.1404 -0.0912  0.1991
   77SLPC   C38 7033   6.073   4.745   7.826  0.3150 -0.1986 -0.1908
   77SLPC   H8X 7034   5.972   4.789   7.809  0.5129  0.8211  1.2215
   77SLPC   H8Y 7035   6.153   4.821   7.837  0.5334 -0.4583  0.0316
   77SLPC   C39 7036   6.053   4.671   7.959 -0.5021 -0.9925 -0.9356
   77SLPC   H9X 7037   5.962   4.607   7.960 -0.0100 -1.6975 -0.7964
   77SLPC   H9Y 7038   6.026   4.747   8.035 -0.7309 -0.3391 -1.6665
   77SLPC  C310 7039   6.173   4.598   8.026 -0.6166 -0.1867 -0.3038
   77SLPC  H10X 7040   6.269   4.654   8.016 -0.9958  0.0078 -3.1672
   77SLPC  H10Y 7041   6.184   4.503   7.970 -0.6689 -0.8411  0.7739
   77SLPC  C311 7042   6.142   4.563   8.173  0.1092  0.0363  0.1428
   77SLPC  H11X 7043   6.073   4.638   8.217 -0.9818 -0.4270 -0.7539
   77SLPC  H11Y 7044   6.233   4.570   8.236  0.3313  1.2913 -0.2960
   77SLPC  C312 7045   6.085   4.425   8.181  0.3515 -0.0050  0.0674
   77SLPC  H12X 7046   6.158   4.356   8.134 -1.7749 -2.9917  0.9492
   77SLPC  H12Y 7047   5.986   4.417   8.130 -0.2743  0.2045  1.2188
   77SLPC  C313 7048   6.082   4.384   8.331 -0.2989  0.4837  0.3621
   77SLPC  H13X 7049   6.024   4.460   8.388 -0.6423  1.3912 -1.1680
   77SLPC  H13Y 7050   6.184   4.370   8.371 -0.6020 -0.0040  0.9708
   77SLPC  C314 7051   6.032   4.240   8.374 -0.1616 -0.5562  0.3345
   77SLPC  H14X 7052   6.030   4.228   8.485 -0.7105  1.0888  0.5208
   77SLPC  H14Y 7053   6.106   4.170   8.330  0.3624  0.9407 -1.1941
   77SLPC  C315 7054   5.892   4.226   8.308  0.3532 -0.1061  0.3163
   77SLPC  H15X 7055   5.856   4.124   8.331  0.4409  0.3624  2.6687
   77SLPC  H15Y 7056   5.893   4.240   8.198 -0.5707 -2.7375 -0.0568
   77SLPC  C316 7057   5.780   4.313   8.367  0.3391  0.4809 -0.0966
   77SLPC  H16X 7058   5.800   4.421   8.351 -0.6624  0.7837  0.6216
   77SLPC  H16Y 7059   5.753   4.294   8.473 -0.7431  0.5567 -0.3534
   77SLPC  C317 7060   5.649   4.288   8.288  1.4268  0.1826 -0.0171
   77SLPC  H17X 7061   5.621   4.183   8.307 -3.2487  1.6948  2.0760
   77SLPC  H17Y 7062   5.653   4.303   8.177 -0.4689  1.7718  0.0998
   77SLPC  C318 7063   5.534   4.373   8.350  0.1400  0.2423 -0.1198
   77SLPC  H18X 7064   5.537   4.384   8.460  1.9130  0.2996 -0.1571
   77SLPC  H18Y 7065   5.436   4.337   8.314 -0.3763  0.8840  0.6281
   77SLPC  H18Z 7066   5.531   4.481   8.324  1.7644 -0.2890 -2.7536
   78SLPC     N 7067   1.089   5.392   6.047 -0.8194  0.5233  0.3058
   78SLPC   C13 7068   0.974   5.301   6.087 -0.1412  0.1097  0.9156
   78SLPC  H13A 7069   0.919   5.341   6.171  1.9639  0.1246  2.3187
   78SLPC  H13B 7070   0.916   5.296   5.996  0.8881 -0.0255  0.2540
   78SLPC  H13C 7071   1.006   5.200   6.107 -3.5719 -1.0180  1.0702
   78SLPC   C14 7072   1.041   5.530   6.019 -0.9542 -0.0224 -0.1890
   78SLPC  H14A 7073   0.956   5.528   5.953 -0.1377  0.7273 -1.2628
   78SLPC  H14B 7074   1.020   5.581   6.112  2.0557  0.3161  0.3547
   78SLPC  H14C 7075   1.114   5.596   5.975  0.3859 -1.3543 -0.0286
   78SLPC   C15 7076   1.152   5.335   5.926  0.6547  0.4317  0.0184
   78SLPC  H15A 7077   1.188   5.234   5.940  2.5638  1.4806  2.8984
   78SLPC  H15B 7078   1.083   5.346   5.843 -2.6871  0.1581  2.6598
   78SLPC  H15C 7079   1.243   5.385   5.899  1.8546 -0.6816  1.9117
   78SLPC   C12 7080   1.187   5.387   6.157 -0.4656  0.1646 -1.0413
   78SLPC  H12A 7081   1.280   5.427   6.119 -0.5363  0.5227 -0.8431
   78SLPC  H12B 7082   1.212   5.283   6.174 -2.8760 -0.1735  0.7155
   78SLPC   C11 7083   1.138   5.456   6.287  0.1783  0.1013 -0.2813
   78SLPC  H11A 7084   1.209   5.429   6.368  1.0960  2.1299 -0.3721
   78SLPC  H11B 7085   1.043   5.413   6.325  0.4257  0.4366  0.7472
   78SLPC     P 7086   1.264   5.680   6.281 -0.0666  0.1613 -0.4788
   78SLPC   O13 7087   1.373   5.592   6.225  0.0956  0.0974 -0.0613
   78SLPC   O14 7088   1.248   5.820   6.233  0.5728  0.0924 -0.2012
   78SLPC   O12 7089   1.127   5.602   6.287 -0.1384  0.7237 -0.4222
   78SLPC   O11 7090   1.297   5.679   6.434  0.0010  0.2396  0.8012
   78SLPC    C1 7091   1.205   5.737   6.524 -0.2233  0.5830  0.2458
   78SLPC    HA 7092   1.214   5.847   6.532  1.9508  0.3682  1.3531
   78SLPC    HB 7093   1.097   5.729   6.503 -0.2472 -0.5866  0.7971
   78SLPC    C2 7094   1.227   5.681   6.673  0.1657 -0.0703  0.0848
   78SLPC    HS 7095   1.167   5.745   6.742 -3.4556 -1.0797 -2.0102
   78SLPC   O21 7096   1.363   5.673   6.705  0.2846 -0.0901  0.8704
   78SLPC   C21 7097   1.426   5.784   6.740  0.1437 -0.3852  0.2525
   78SLPC   O22 7098   1.375   5.893   6.739 -0.1087  0.1062  0.1118
   78SLPC   C22 7099   1.568   5.749   6.776 -0.0755 -0.1324 -0.2145
   78SLPC   H2R 7100   1.612   5.714   6.680 -1.9488  1.8826 -1.8868
   78SLPC   H2S 7101   1.619   5.843   6.807 -0.1934 -0.0582 -0.2448
   78SLPC    C3 7102   1.165   5.538   6.693  0.5078 -0.1508  0.1104
   78SLPC    HX 7103   1.178   5.481   6.599  2.0896 -0.1713  0.3224
   78SLPC    HY 7104   1.057   5.563   6.701  0.6901  0.7074 -0.0994
   78SLPC   O31 7105   1.211   5.466   6.813  0.2416  0.2469  0.0710
   78SLPC   C31 7106   1.161   5.508   6.933  0.3647 -0.9016  0.1178
   78SLPC   O32 7107   1.088   5.601   6.957  0.2981 -0.1744 -0.2154
   78SLPC   C32 7108   1.212   5.410   7.039  0.5816  0.2316 -0.0827
   78SLPC   H2X 7109   1.309   5.372   7.001  0.4649  0.0059 -0.1555
   78SLPC   H2Y 7110   1.138   5.327   7.048  1.3761 -0.4793 -0.0918
   78SLPC   C23 7111   1.585   5.640   6.876  0.7916  0.6243  0.5464
   78SLPC   H3R 7112   1.692   5.613   6.883  0.2144 -1.3480  2.4104
   78SLPC   H3S 7113   1.530   5.549   6.845  1.8751 -0.1243  0.8041
   78SLPC   C24 7114   1.538   5.693   7.015  0.5131 -0.4060  0.3885
   78SLPC   H4R 7115   1.428   5.702   7.019  0.5081  0.0105 -0.5514
   78SLPC   H4S 7116   1.583   5.794   7.030 -0.0462  0.0873 -1.1578
   78SLPC   C25 7117   1.587   5.603   7.127 -0.4285 -0.5144 -0.6088
   78SLPC   H5R 7118   1.696   5.590   7.109 -0.0531  1.9373 -0.3805
   78SLPC   H5S 7119   1.535   5.506   7.132  1.1100 -1.3356 -0.2449
   78SLPC   C26 7120   1.580   5.668   7.265 -0.5419  0.3437 -0.5551
   78SLPC   H6R 7121   1.473   5.678   7.294 -0.1121 -0.9286  1.5064
   78SLPC   H6S 7122   1.628   5.768   7.275  2.5293 -1.2453  1.1983
   78SLPC   C27 7123   1.648   5.580   7.377  0.4070 -0.2672 -0.3101
   78SLPC   H7R 7124   1.758   5.583   7.362  0.3136 -0.0422 -0.9468
   78SLPC   H7S 7125   1.593   5.484   7.365 -0.2173  0.2923 -2.1388
   78SLPC   C28 7126   1.613   5.630   7.520 -0.0157 -0.2470 -0.2388
   78SLPC   H8R 7127   1.503   5.639   7.532  0.1722 -0.0234  1.4617
   78SLPC   H8S 7128   1.660   5.730   7.511  2.8583 -1.4205  0.9869
   78SLPC   C29 7129   1.684   5.544   7.632  0.2619  0.9890  0.1574
   78SLPC   H9R 7130   1.755   5.471   7.590  1.5623  1.4003  1.6005
   78SLPC  C210 7131   1.676   5.563   7.766  0.3296  0.5247  0.0873
   78SLPC  H10R 7132   1.725   5.500   7.841 -2.0482 -0.7210  0.6388
   78SLPC  C211 7133   1.587   5.668   7.824 -0.0467 -0.5717 -0.1895
   78SLPC  H11R 7134   1.528   5.711   7.740  1.5641 -1.6347 -1.9258
   78SLPC  H11S 7135   1.651   5.753   7.857  0.5787 -1.1786  0.1770
   78SLPC  C212 7136   1.484   5.621   7.932  0.5416 -1.3067 -0.0960
   78SLPC  H12R 7137   1.382   5.660   7.919 -0.2073 -3.5276 -1.0384
   78SLPC  C213 7138   1.493   5.524   8.027 -0.1828  0.0550 -0.7172
   78SLPC  H13R 7139   1.421   5.520   8.110  1.9362 -2.4470  1.0902
   78SLPC  C214 7140   1.611   5.442   8.063 -0.6435  0.0018 -0.4559
   78SLPC  H14R 7141   1.621   5.370   7.980 -1.1804 -1.2276  0.5128
   78SLPC  H14S 7142   1.584   5.375   8.148 -3.0920  0.7509 -0.5867
   78SLPC  C215 7143   1.741   5.510   8.116  0.3727  0.1458  0.7087
   78SLPC  H15R 7144   1.707   5.568   8.205  1.7755  0.4106  1.0739
   78SLPC  H15S 7145   1.778   5.586   8.044  1.4332 -0.8557  0.1781
   78SLPC  C216 7146   1.852   5.420   8.161  0.8511 -0.4535  0.2684
   78SLPC  H16R 7147   1.902   5.384   8.069 -0.1432  1.1020 -0.9114
   78SLPC  H16S 7148   1.808   5.332   8.212  0.5646  0.7439  2.1208
   78SLPC  C217 7149   1.955   5.491   8.253 -0.3752 -1.3266 -0.7574
   78SLPC  H17R 7150   1.902   5.539   8.338 -2.7772 -1.2600 -2.2420
   78SLPC  H17S 7151   1.996   5.575   8.193  0.8131 -0.7104  0.8833
   78SLPC  C218 7152   2.069   5.404   8.313  0.3973  0.7304  0.3598
   78SLPC  H18R 7153   2.138   5.369   8.234 -0.5389 -1.2776  0.4069
   78SLPC  H18S 7154   2.032   5.312   8.362 -0.8933  0.4295 -1.1553
   78SLPC  H18T 7155   2.128   5.469   8.382 -0.7891  1.8785  0.3095
   78SLPC   C33 7156   1.229   5.488   7.177 -0.1105  0.6295 -0.5771
   78SLPC   H3X 7157   1.127   5.513   7.212 -0.1369 -1.1277  0.7018
   78SLPC   H3Y 7158   1.279   5.585   7.161  2.2687 -0.5075 -0.2341
   78SLPC   C34 7159   1.287   5.394   7.288 -0.2681 -0.0196  0.0899
   78SLPC   H4X 7160   1.395   5.409   7.310 -0.5699  0.5978  1.2288
   78SLPC   H4Y 7161   1.277   5.286   7.261  0.1573  0.2449 -1.1262
   78SLPC   C35 7162   1.223   5.423   7.430 -0.5105  0.6882 -0.7370
   78SLPC   H5X 7163   1.115   5.400   7.417 -0.6094  0.3446  0.6026
   78SLPC   H5Y 7164   1.232   5.533   7.443 -2.1228  0.9637 -1.8204
   78SLPC   C36 7165   1.286   5.350   7.547 -0.0142 -0.4250  0.2389
   78SLPC   H6X 7166   1.372   5.394   7.603  0.1330  1.8021 -1.6791
   78SLPC   H6Y 7167   1.333   5.259   7.502 -1.7176 -1.0634 -0.2790
   78SLPC   C37 7168   1.182   5.323   7.658  0.4559  0.2800 -0.2883
   78SLPC   H7X 7169   1.224   5.272   7.747 -2.4519 -1.6791  0.0366
   78SLPC   H7Y 7170   1.100   5.264   7.611 -0.9973  0.9385  1.4084
   78SLPC   C38 7171   1.122   5.447   7.721 -0.2075 -0.2486  0.9387
   78SLPC   H8X 7172   1.035   5.490   7.666 -1.8433 -3.2891  1.0678
   78SLPC   H8Y 7173   1.208   5.517   7.716  2.1495 -2.9816  1.9696
   78SLPC   C39 7174   1.086   5.434   7.866  0.2031  0.5277 -0.1175
   78SLPC   H9X 7175   1.088   5.532   7.918  1.8431  2.3810 -3.4612
   78SLPC   H9Y 7176   1.165   5.378   7.920 -1.9748 -1.5868  0.9976
   78SLPC  C310 7177   0.947   5.366   7.884  0.2012 -0.5415 -0.4582
   78SLPC  H10X 7178   0.949   5.260   7.852  0.9344 -0.4938 -0.5794
   78SLPC  H10Y 7179   0.881   5.415   7.810 -0.6186  1.4641  1.5265
   78SLPC  C311 7180   0.880   5.388   8.022 -0.3069 -0.6265  0.2266
   78SLPC  H11X 7181   0.874   5.496   8.046  1.2074 -0.3115 -0.7726
   78SLPC  H11Y 7182   0.946   5.343   8.100 -0.5882  0.3320  1.0216
   78SLPC  C312 7183   0.737   5.321   8.029 -0.8118  0.0412  0.8096
   78SLPC  H12X 7184   0.742   5.223   7.978 -3.8248  0.4211 -0.3060
   78SLPC  H12Y 7185   0.663   5.382   7.973  1.1591  1.5641 -0.1831
   78SLPC  C313 7186   0.697   5.297   8.176  0.1261  0.0237  0.0455
   78SLPC  H13X 7187   0.787   5.252   8.224  1.3939  2.1512 -0.2290
   78SLPC  H13Y 7188   0.612   5.227   8.168 -0.4735  0.6852  0.6074
   78SLPC  C314 7189   0.665   5.425   8.256  0.2698  0.3281 -0.5916
   78SLPC  H14X 7190   0.599   5.494   8.200 -2.4276 -0.5507  1.4278
   78SLPC  H14Y 7191   0.760   5.482   8.254  0.9104 -0.7420 -1.2877
   78SLPC  C315 7192   0.607   5.395   8.391  0.2077 -0.3854  0.9907
   78SLPC  H15X 7193   0.695   5.348   8.440 -0.0710 -1.3667  0.5548
   78SLPC  H15Y 7194   0.518   5.329   8.382 -0.9845  1.4886 -1.7145
   78SLPC  C316 7195   0.555   5.523   8.456  0.3993 -0.3648 -0.1151
   78SLPC  H16X 7196   0.473   5.556   8.391  0.8430  0.4151 -0.2795
   78SLPC  H16Y 7197   0.638   5.596   8.456 -0.2556  0.3981  1.2984
   78SLPC  C317 7198   0.508   5.497   8.601  0.5509 -0.0620 -0.7652
   78SLPC  H17X 7199   0.607   5.472   8.645  0.6150  0.7647 -0.4333
   78SLPC  H17Y 7200   0.439   5.410   8.593 -0.7319  1.1871 -4.9500
   78SLPC  C318 7201   0.453   5.615   8.674 -0.1168 -0.7336 -0.5228
   78SLPC  H18X 7202   0.410   5.587   8.773  0.1853 -0.6679 -0.3721
   78SLPC  H18Y 7203   0.366   5.665   8.626 -0.5164 -0.3011  0.6252
   78SLPC  H18Z 7204   0.532   5.692   8.683 -2.0607  1.2973 -0.4008
   79SLPC     N 7205   4.823   0.894   6.379  0.6840 -0.8932 -0.8357
   79SLPC   C13 7206   4.711   0.889   6.484  0.3125 -0.4767  0.6607
   79SLPC  H13A 7207   4.749   0.931   6.576  1.5180  0.3771 -0.2000
   79SLPC  H13B 7208   4.615   0.932   6.460  0.2967 -1.3629 -0.9588
   79SLPC  H13C 7209   4.687   0.787   6.508  0.0453 -0.1994  1.5838
   79SLPC   C14 7210   4.834   1.037   6.330  0.0572 -0.1250  0.2415
   79SLPC  H14A 7211   4.922   1.052   6.269 -1.1536  1.0532 -1.2812
   79SLPC  H14B 7212   4.752   1.077   6.273 -0.5518 -1.5214  0.1345
   79SLPC  H14C 7213   4.847   1.102   6.415  0.6303 -0.0670  0.1122
   79SLPC   C15 7214   4.775   0.808   6.266  0.0315  0.0966 -0.1723
   79SLPC  H15A 7215   4.854   0.808   6.192  1.6372  0.1861  1.5044
   79SLPC  H15B 7216   4.757   0.707   6.300  0.4778 -0.9062 -2.7875
   79SLPC  H15C 7217   4.692   0.842   6.206  1.5141  3.0390 -0.6763
   79SLPC   C12 7218   4.953   0.854   6.443 -0.1289  0.4590  0.7615
   79SLPC  H12A 7219   5.032   0.877   6.373  1.8937 -0.3835  2.7292
   79SLPC  H12B 7220   4.972   0.750   6.464 -0.6067  0.1216 -0.4502
   79SLPC   C11 7221   4.989   0.950   6.569  0.2748 -0.3645  0.7155
   79SLPC  H11A 7222   5.073   0.895   6.617  1.0537  1.4270  1.4106
   79SLPC  H11B 7223   4.907   0.946   6.644  0.1779 -1.8624  0.5627
   79SLPC     P 7224   5.167   1.093   6.451 -0.1992 -0.2394 -0.3273
   79SLPC   O13 7225   5.167   1.013   6.329  0.3295 -0.0260  0.2725
   79SLPC   O14 7226   5.185   1.243   6.434 -0.8158  0.0506 -0.1158
   79SLPC   O12 7227   5.021   1.081   6.517  0.4668  0.0183 -0.4895
   79SLPC   O11 7228   5.269   1.049   6.558 -0.3602 -1.0760 -0.3536
   79SLPC    C1 7229   5.397   0.996   6.516  0.3031 -0.3737  0.7080
   79SLPC    HA 7230   5.399   0.888   6.545 -0.8339 -0.1523  1.6172
   79SLPC    HB 7231   5.415   0.998   6.407  0.5173 -0.8932  0.7287
   79SLPC    C2 7232   5.515   1.066   6.585  0.2043 -0.4774 -1.0178
   79SLPC    HS 7233   5.608   1.030   6.536  0.8090 -0.6577  0.2450
   79SLPC   O21 7234   5.511   1.055   6.728 -0.2025 -0.2024  0.3264
   79SLPC   C21 7235   5.627   1.020   6.780 -0.7706 -0.1143 -0.7119
   79SLPC   O22 7236   5.733   1.008   6.716  1.0742  0.7366 -0.0820
   79SLPC   C22 7237   5.610   0.981   6.927  0.4798  0.2880 -0.4513
   79SLPC   H2R 7238   5.546   1.048   6.989 -1.2139 -0.8575 -0.9368
   79SLPC   H2S 7239   5.570   0.878   6.927 -0.5354  0.6801 -0.4289
   79SLPC    C3 7240   5.511   1.220   6.545 -0.0606 -0.3389 -0.0601
   79SLPC    HX 7241   5.407   1.256   6.559 -0.2049 -0.7807  0.0213
   79SLPC    HY 7242   5.543   1.216   6.438  1.5396 -1.0634  0.4360
   79SLPC   O31 7243   5.608   1.298   6.618  0.7326  0.1246  0.0239
   79SLPC   C31 7244   5.567   1.358   6.725  0.3569 -0.7014  0.2836
   79SLPC   O32 7245   5.461   1.335   6.788  0.2681 -0.4403  0.3034
   79SLPC   C32 7246   5.682   1.454   6.772 -0.0653  0.2685 -0.2632
   79SLPC   H2X 7247   5.674   1.542   6.706 -0.2789 -1.1530 -2.1739
   79SLPC   H2Y 7248   5.779   1.404   6.754  0.3144  0.7792  0.3542
   79SLPC   C23 7249   5.737   0.995   7.017  0.0413  0.2628  0.7590
   79SLPC   H3R 7250   5.783   1.094   6.995 -0.6059  0.1905 -0.9899
   79SLPC   H3S 7251   5.807   0.921   6.972 -1.0432  0.6703 -1.6564
   79SLPC   C24 7252   5.718   0.972   7.164 -0.1576  0.6711  0.1025
   79SLPC   H4R 7253   5.816   0.953   7.213  0.4207 -0.1173 -1.3272
   79SLPC   H4S 7254   5.663   0.877   7.180 -1.1161  1.3037  0.6488
   79SLPC   C25 7255   5.658   1.095   7.241  0.1954  1.3908  0.1259
   79SLPC   H5R 7256   5.552   1.098   7.207  0.5246  1.1729 -0.9438
   79SLPC   H5S 7257   5.717   1.183   7.209  1.0722  1.2343  1.2868
   79SLPC   C26 7258   5.679   1.070   7.386 -0.7024 -0.3909 -0.3956
   79SLPC   H6R 7259   5.787   1.046   7.398 -0.6390  0.1156  0.0913
   79SLPC   H6S 7260   5.617   0.985   7.422 -0.2746 -0.2635  0.6771
   79SLPC   C27 7261   5.659   1.190   7.478 -0.0398  0.7851  0.4053
   79SLPC   H7R 7262   5.555   1.225   7.459 -0.8501 -1.5716  0.3781
   79SLPC   H7S 7263   5.733   1.266   7.446  1.6881 -0.4176  1.4345
   79SLPC   C28 7264   5.688   1.144   7.621  0.6604  0.4204  0.4366
   79SLPC   H8R 7265   5.785   1.090   7.625  1.2241  1.0538 -3.0902
   79SLPC   H8S 7266   5.614   1.070   7.658  0.2389  0.5790 -0.0862
   79SLPC   C29 7267   5.712   1.274   7.706  0.4271  0.1284  0.5275
   79SLPC   H9R 7268   5.761   1.355   7.649 -2.4125  1.5671  0.0102
   79SLPC  C210 7269   5.695   1.280   7.847  1.4640 -0.3631  0.4963
   79SLPC  H10R 7270   5.715   1.379   7.892  2.9780 -0.4869  0.1071
   79SLPC  C211 7271   5.645   1.164   7.938  0.4305 -1.3508  0.8829
   79SLPC  H11R 7272   5.740   1.126   7.982  1.8620  0.2720 -0.6967
   79SLPC  H11S 7273   5.607   1.078   7.878  0.5695 -0.9558  0.2315
   79SLPC  C212 7274   5.551   1.196   8.048 -0.8655 -0.2334 -0.4937
   79SLPC  H12R 7275   5.459   1.136   8.049 -1.4767  0.6861  1.4564
   79SLPC  C213 7276   5.572   1.267   8.165 -0.1653 -0.5802 -0.4619
   79SLPC  H13R 7277   5.490   1.273   8.237  2.3737 -0.9506  2.5575
   79SLPC  C214 7278   5.707   1.325   8.206 -0.0249  0.0702  0.0452
   79SLPC  H14R 7279   5.697   1.434   8.221  3.4567  0.2317  1.6016
   79SLPC  H14S 7280   5.787   1.307   8.131  1.4010 -2.0261  2.0113
   79SLPC  C215 7281   5.747   1.251   8.337 -0.2520 -0.2980 -0.1232
   79SLPC  H15R 7282   5.727   1.143   8.320 -1.1603  0.1192 -1.8160
   79SLPC  H15S 7283   5.687   1.284   8.424  0.7451  1.3194 -0.0253
   79SLPC  C216 7284   5.895   1.282   8.354  0.5158  0.1931  1.0273
   79SLPC  H16R 7285   5.890   1.392   8.363 -0.5236  0.0997  1.6615
   79SLPC  H16S 7286   5.950   1.251   8.263 -0.9071  0.3204  0.1104
   79SLPC  C217 7287   5.956   1.222   8.485 -0.6834  0.0659 -0.1702
   79SLPC  H17R 7288   5.952   1.112   8.497  0.8370 -0.0799 -0.9299
   79SLPC  H17S 7289   5.885   1.261   8.562  1.1346 -0.2695  1.7145
   79SLPC  C218 7290   6.096   1.271   8.521 -0.3295 -0.3270  0.0829
   79SLPC  H18R 7291   6.106   1.382   8.518 -1.5504 -0.2442 -1.6568
   79SLPC  H18S 7292   6.169   1.230   8.448 -1.5325  0.9856 -1.9204
   79SLPC  H18T 7293   6.131   1.222   8.614 -1.0511 -1.5773 -0.2871
   79SLPC   C33 7294   5.667   1.511   6.919  0.0165  0.4807 -0.3648
   79SLPC   H3X 7295   5.573   1.569   6.918 -0.6692 -0.6291 -1.0267
   79SLPC   H3Y 7296   5.757   1.572   6.945 -0.6471  0.8312  1.1540
   79SLPC   C34 7297   5.667   1.394   7.015  0.4010 -1.0233 -0.0145
   79SLPC   H4X 7298   5.771   1.357   7.031  1.1999  1.9552  2.1612
   79SLPC   H4Y 7299   5.601   1.313   6.977 -0.3738 -0.0975 -0.6630
   79SLPC   C35 7300   5.606   1.434   7.158 -0.4797 -0.7296  0.5539
   79SLPC   H5X 7301   5.606   1.357   7.237  0.4164 -0.2238  1.0608
   79SLPC   H5Y 7302   5.499   1.457   7.136  0.1923  1.2369 -0.8287
   79SLPC   C36 7303   5.681   1.552   7.220  0.3093 -0.3517  0.0416
   79SLPC   H6X 7304   5.667   1.644   7.159 -0.7737 -2.1003 -2.4478
   79SLPC   H6Y 7305   5.788   1.527   7.236  0.5978  1.2106  0.6343
   79SLPC   C37 7306   5.640   1.587   7.366  0.6200 -0.3188 -0.4272
   79SLPC   H7X 7307   5.653   1.495   7.427  0.9267 -0.2188 -0.3415
   79SLPC   H7Y 7308   5.540   1.633   7.360  0.2760 -0.9986  0.0689
   79SLPC   C38 7309   5.727   1.693   7.442 -0.5190 -0.6226 -0.6595
   79SLPC   H8X 7310   5.685   1.794   7.419 -0.6750 -0.4567  0.3218
   79SLPC   H8Y 7311   5.830   1.691   7.401 -1.1608 -2.8331 -2.2480
   79SLPC   C39 7312   5.731   1.674   7.601  0.3609  0.4431  0.2275
   79SLPC   H9X 7313   5.768   1.570   7.606 -0.7587  0.0171 -0.0088
   79SLPC   H9Y 7314   5.624   1.677   7.631 -0.3989  0.6471 -2.3049
   79SLPC  C310 7315   5.820   1.757   7.689 -0.2343  0.3654  0.1562
   79SLPC  H10X 7316   5.851   1.851   7.639 -1.0570  0.1326 -0.7941
   79SLPC  H10Y 7317   5.909   1.693   7.705  0.4286  1.0283 -0.7917
   79SLPC  C311 7318   5.767   1.798   7.832 -0.3898 -0.4066 -0.1364
   79SLPC  H11X 7319   5.693   1.879   7.815 -1.7467 -1.3802  1.0004
   79SLPC  H11Y 7320   5.847   1.844   7.894  0.8083  0.7268 -2.4577
   79SLPC  C312 7321   5.703   1.679   7.900  0.7466 -0.6500 -0.1595
   79SLPC  H12X 7322   5.776   1.596   7.894 -0.2399 -1.3776 -2.5181
   79SLPC  H12Y 7323   5.619   1.642   7.838 -0.9864  1.8043  0.6469
   79SLPC  C313 7324   5.651   1.707   8.041  0.3918 -0.1941  0.2013
   79SLPC  H13X 7325   5.603   1.613   8.077 -1.1769  0.6629  0.3722
   79SLPC  H13Y 7326   5.559   1.769   8.038 -1.1369 -2.3717  0.6180
   79SLPC  C314 7327   5.758   1.752   8.137  0.6316  0.2426 -0.0174
   79SLPC  H14X 7328   5.812   1.842   8.099 -1.0538  1.3023  0.0720
   79SLPC  H14Y 7329   5.832   1.669   8.132  1.3429  0.6589  2.6880
   79SLPC  C315 7330   5.704   1.773   8.276 -1.2079 -0.1463  0.0756
   79SLPC  H15X 7331   5.637   1.690   8.306 -1.2064 -0.6129 -1.1887
   79SLPC  H15Y 7332   5.650   1.870   8.268 -1.7366 -0.5316 -1.2078
   79SLPC  C316 7333   5.816   1.769   8.382  0.0106 -0.0541  0.1959
   79SLPC  H16X 7334   5.872   1.673   8.380 -0.5294 -0.3604 -0.3638
   79SLPC  H16Y 7335   5.768   1.769   8.482  1.1083  0.6137  0.7371
   79SLPC  C317 7336   5.923   1.876   8.366  0.1906 -0.5343 -0.6438
   79SLPC  H17X 7337   5.876   1.971   8.332 -0.4921 -0.1426  1.3175
   79SLPC  H17Y 7338   5.986   1.837   8.283  2.9444 -0.0054  1.1147
   79SLPC  C318 7339   6.002   1.899   8.496  0.0339 -0.2622  1.2878
   79SLPC  H18X 7340   5.995   1.801   8.546 -0.1204 -1.5422 -1.1515
   79SLPC  H18Y 7341   5.961   1.989   8.547 -0.8330  1.1473 -1.7682
   79SLPC  H18Z 7342   6.111   1.909   8.482  0.3671 -3.4400  1.3575
   80SLPC     N 7343   0.206   5.489   6.455 -0.8568  0.0432 -0.7209
   80SLPC   C13 7344   0.271   5.400   6.347  0.6007 -0.0655  0.5867
   80SLPC  H13A 7345   0.375   5.377   6.362  0.1677 -0.0196  4.2760
   80SLPC  H13B 7346   0.219   5.306   6.333  0.3448  0.1753 -0.0614
   80SLPC  H13C 7347   0.268   5.451   6.252  3.8431 -2.7923 -1.0933
   80SLPC   C14 7348   0.273   5.623   6.469 -0.0405  0.0199 -0.2359
   80SLPC  H14A 7349   0.216   5.684   6.537 -0.0459 -1.2565  0.9254
   80SLPC  H14B 7350   0.373   5.615   6.507  0.4072  0.9918 -1.1657
   80SLPC  H14C 7351   0.292   5.667   6.372 -0.8476 -0.4278 -0.6034
   80SLPC   C15 7352   0.209   5.415   6.588 -0.3965  0.6265 -0.1683
   80SLPC  H15A 7353   0.308   5.410   6.630 -0.3953  1.3132 -0.0794
   80SLPC  H15B 7354   0.150   5.461   6.666  1.2425  2.1730  0.1858
   80SLPC  H15C 7355   0.182   5.312   6.568  1.7663  0.3957 -2.1430
   80SLPC   C12 7356   0.059   5.509   6.411  0.3007  0.2811 -0.1349
   80SLPC  H12A 7357   0.010   5.572   6.484  0.8598  4.2225 -3.0648
   80SLPC  H12B 7358   0.006   5.415   6.420  1.7972 -0.5552  0.1397
   80SLPC   C11 7359   0.033   5.579   6.278 -0.0217 -0.0320  0.2235
   80SLPC  H11A 7360   0.075   5.509   6.203 -1.5351  1.9533 -2.5734
   80SLPC  H11B 7361   0.082   5.679   6.268 -2.8925  1.3776 -0.1371
   80SLPC     P 7362  -0.183   5.692   6.334 -0.1116 -0.4785 -0.2220
   80SLPC   O13 7363  -0.097   5.806   6.363  0.2217  0.5744 -0.1669
   80SLPC   O14 7364  -0.302   5.724   6.256 -0.0766  0.3060  0.1825
   80SLPC   O12 7365  -0.107   5.571   6.259  0.5903 -0.3220  0.1770
   80SLPC   O11 7366  -0.219   5.618   6.467 -0.1747 -0.2040 -0.2150
   80SLPC    C1 7367  -0.350   5.584   6.504 -0.6596  0.2587  0.7275
   80SLPC    HA 7368  -0.434   5.644   6.463 -1.5526  0.0007  2.1365
   80SLPC    HB 7369  -0.373   5.483   6.463  0.5297 -0.3628  1.5525
   80SLPC    C2 7370  -0.353   5.575   6.661 -0.1257  0.2152 -0.1333
   80SLPC    HS 7371  -0.459   5.567   6.693 -0.4721  3.3286 -0.3666
   80SLPC   O21 7372  -0.294   5.697   6.713 -0.2321  0.0648 -0.5749
   80SLPC   C21 7373  -0.359   5.811   6.703 -0.0927 -0.8242  0.1126
   80SLPC   O22 7374  -0.473   5.824   6.663  0.1950 -0.2460  0.0864
   80SLPC   C22 7375  -0.284   5.918   6.764 -0.6918  0.0201  0.3558
   80SLPC   H2R 7376  -0.256   5.890   6.867 -0.2683  1.0370  0.5294
   80SLPC   H2S 7377  -0.185   5.933   6.716  0.2862 -1.6326  1.8316
   80SLPC    C3 7378  -0.275   5.449   6.711 -0.2407 -0.5572 -0.3182
   80SLPC    HX 7379  -0.169   5.475   6.688 -1.0565  2.6334 -0.6912
   80SLPC    HY 7380  -0.311   5.369   6.643 -1.8110 -0.9514  0.9753
   80SLPC   O31 7381  -0.293   5.424   6.851 -0.0986 -0.1586  0.3400
   80SLPC   C31 7382  -0.226   5.491   6.940  0.3158 -0.1603  0.0624
   80SLPC   O32 7383  -0.145   5.581   6.935  0.4623 -0.0569  0.2931
   80SLPC   C32 7384  -0.274   5.434   7.077 -0.4851 -0.4186 -0.0032
   80SLPC   H2X 7385  -0.231   5.333   7.094 -0.5051 -0.5186 -0.5376
   80SLPC   H2Y 7386  -0.384   5.417   7.072 -0.6670  0.4028  1.0594
   80SLPC   C23 7387  -0.364   6.045   6.798  0.3963 -0.6879  0.7952
   80SLPC   H3R 7388  -0.413   6.077   6.704 -1.0177 -0.4104  1.6194
   80SLPC   H3S 7389  -0.290   6.127   6.817 -1.5378  1.0816  0.8325
   80SLPC   C24 7390  -0.465   6.038   6.915  0.1540 -0.1043 -0.4026
   80SLPC   H4R 7391  -0.554   5.975   6.892  0.4945 -0.6636 -0.2082
   80SLPC   H4S 7392  -0.504   6.140   6.933  0.2854 -0.4807  2.2553
   80SLPC   C25 7393  -0.401   5.976   7.047 -0.5706 -0.0675 -0.2309
   80SLPC   H5R 7394  -0.291   5.992   7.050 -0.6908  1.2596 -1.9787
   80SLPC   H5S 7395  -0.417   5.867   7.058  2.0547 -0.2600  2.3815
   80SLPC   C26 7396  -0.455   6.048   7.170 -0.2776  0.2062 -0.1153
   80SLPC   H6R 7397  -0.565   6.052   7.154 -0.3111 -0.4498 -0.0618
   80SLPC   H6S 7398  -0.428   6.156   7.176 -3.0806  1.0612 -1.9933
   80SLPC   C27 7399  -0.432   5.970   7.306  0.0683 -0.4113  0.3895
   80SLPC   H7R 7400  -0.323   5.969   7.329 -0.4644  0.8600  3.2076
   80SLPC   H7S 7401  -0.456   5.868   7.269 -0.3936 -0.3003  0.3768
   80SLPC   C28 7402  -0.500   6.030   7.428  0.2652  0.6607 -0.7557
   80SLPC   H8R 7403  -0.608   6.020   7.407 -0.1980 -0.1066  1.8406
   80SLPC   H8S 7404  -0.478   6.138   7.443 -0.7442  0.8786 -0.8026
   80SLPC   C29 7405  -0.471   5.947   7.550 -0.5810  0.1889 -0.1171
   80SLPC   H9R 7406  -0.429   5.848   7.525  2.3914  1.6107 -1.0194
   80SLPC  C210 7407  -0.481   5.988   7.678  0.1318 -0.3586  0.3969
   80SLPC  H10R 7408  -0.442   5.920   7.755  1.8685 -0.7095 -0.7629
   80SLPC  C211 7409  -0.542   6.123   7.721  0.5924  0.1434 -0.1850
   80SLPC  H11R 7410  -0.614   6.158   7.644  1.9104  3.1363 -0.1487
   80SLPC  H11S 7411  -0.466   6.203   7.734  1.4224 -0.6265 -0.1865
   80SLPC  C212 7412  -0.592   6.112   7.859  0.2127  0.2175  0.3138
   80SLPC  H12R 7413  -0.702   6.103   7.854  0.2887 -0.8381  0.5257
   80SLPC  C213 7414  -0.531   6.109   7.975  0.0016 -0.0093 -0.2830
   80SLPC  H13R 7415  -0.594   6.086   8.062  0.0066 -2.7370 -0.9856
   80SLPC  C214 7416  -0.378   6.124   7.994  0.0407  0.3239  0.2468
   80SLPC  H14R 7417  -0.326   6.115   7.896 -0.7064 -0.2733 -0.0953
   80SLPC  H14S 7418  -0.332   6.050   8.063 -0.5084 -0.8060 -0.5827
   80SLPC  C215 7419  -0.343   6.259   8.058 -0.1900 -0.4703  0.7641
   80SLPC  H15R 7420  -0.354   6.341   7.984 -0.4618 -0.0905  1.2165
   80SLPC  H15S 7421  -0.236   6.268   8.085 -0.1102 -0.0755  0.3118
   80SLPC  C216 7422  -0.428   6.307   8.175 -0.2442  0.6451  0.3784
   80SLPC  H16R 7423  -0.527   6.340   8.136  0.1182  0.4332 -0.7426
   80SLPC  H16S 7424  -0.375   6.390   8.226 -0.9928  1.0914  0.4408
   80SLPC  C217 7425  -0.446   6.198   8.280 -0.4575  0.6065  0.0719
   80SLPC  H17R 7426  -0.352   6.143   8.301  0.5769  2.7262  1.1449
   80SLPC  H17S 7427  -0.505   6.119   8.228 -0.8362  0.8165  0.1805
   80SLPC  C218 7428  -0.513   6.250   8.406  0.4780  0.2755 -0.2255
   80SLPC  H18R 7429  -0.522   6.160   8.470  1.4302  0.1664 -0.2330
   80SLPC  H18S 7430  -0.610   6.296   8.377  0.2807 -0.8688 -1.4366
   80SLPC  H18T 7431  -0.444   6.322   8.454  2.5159 -1.2089 -0.8545
   80SLPC   C33 7432  -0.257   5.541   7.184  0.0457  0.7033  0.9521
   80SLPC   H3X 7433  -0.305   5.641   7.170  0.3159  0.8481  1.0582
   80SLPC   H3Y 7434  -0.149   5.565   7.187  0.7378 -1.8813 -2.0437
   80SLPC   C34 7435  -0.310   5.491   7.327  1.0116  0.5576  1.1549
   80SLPC   H4X 7436  -0.264   5.393   7.352 -1.8915 -0.8954  0.9898
   80SLPC   H4Y 7437  -0.415   5.459   7.336  0.7445  1.3668  0.9943
   80SLPC   C35 7438  -0.288   5.587   7.443 -0.4098 -0.1170  0.4887
   80SLPC   H5X 7439  -0.311   5.691   7.412  0.8388 -0.8840 -3.3434
   80SLPC   H5Y 7440  -0.183   5.590   7.478 -1.2415  0.3097  2.9936
   80SLPC   C36 7441  -0.371   5.569   7.570  0.5578  0.3767  0.3485
   80SLPC   H6X 7442  -0.395   5.465   7.599  1.0757 -0.1414 -1.0841
   80SLPC   H6Y 7443  -0.468   5.622   7.558 -0.8286 -2.4894 -1.5519
   80SLPC   C37 7444  -0.302   5.628   7.688  0.4611 -0.3316 -0.3479
   80SLPC   H7X 7445  -0.294   5.737   7.668 -2.7461 -0.2832 -1.5778
   80SLPC   H7Y 7446  -0.194   5.600   7.691  0.6103  0.2668  0.1667
   80SLPC   C38 7447  -0.377   5.612   7.816  0.6390  0.2446  0.7056
   80SLPC   H8X 7448  -0.365   5.505   7.844 -1.2112 -0.4199 -0.9883
   80SLPC   H8Y 7449  -0.482   5.639   7.794  0.6425  0.0732  0.4803
   80SLPC   C39 7450  -0.315   5.705   7.923  0.1477  0.1396  0.4216
   80SLPC   H9X 7451  -0.303   5.811   7.892  2.0446  0.2726  1.5132
   80SLPC   H9Y 7452  -0.213   5.663   7.932 -0.5546 -0.9038  4.7859
   80SLPC  C310 7453  -0.385   5.689   8.054  0.1773 -0.3454 -0.3558
   80SLPC  H10X 7454  -0.332   5.750   8.131 -0.0364  0.5885 -0.9407
   80SLPC  H10Y 7455  -0.372   5.585   8.088  0.5590 -0.4603 -0.8457
   80SLPC  C311 7456  -0.538   5.742   8.051  0.5322  0.2711 -0.1670
   80SLPC  H11X 7457  -0.602   5.678   7.986 -1.5781 -0.2667  2.3425
   80SLPC  H11Y 7458  -0.542   5.846   8.014 -0.6289  0.3997  0.3200
   80SLPC  C312 7459  -0.618   5.758   8.182 -0.1831  0.5628  0.1467
   80SLPC  H12X 7460  -0.726   5.766   8.157 -0.3532  1.4389  1.1157
   80SLPC  H12Y 7461  -0.586   5.850   8.236  1.5493 -0.1233  0.3389
   80SLPC  C313 7462  -0.617   5.636   8.278 -0.2781 -0.8726  0.0967
   80SLPC  H13X 7463  -0.512   5.618   8.309 -1.1100 -2.1523  2.2647
   80SLPC  H13Y 7464  -0.656   5.546   8.225  2.2821 -1.9165 -0.0583
   80SLPC  C314 7465  -0.704   5.650   8.406 -0.0133  0.0530 -0.6724
   80SLPC  H14X 7466  -0.810   5.672   8.380 -0.5288  0.5774  1.6920
   80SLPC  H14Y 7467  -0.655   5.732   8.463  0.2250  0.4347 -1.4280
   80SLPC  C315 7468  -0.713   5.526   8.498  0.8360 -0.5489  0.7060
   80SLPC  H15X 7469  -0.611   5.514   8.542  0.8410  0.1801  0.8925
   80SLPC  H15Y 7470  -0.735   5.434   8.439 -0.4723 -1.3064  2.3428
   80SLPC  C316 7471  -0.808   5.548   8.613  0.3610 -0.2556  0.0608
   80SLPC  H16X 7472  -0.912   5.527   8.580  0.4266  0.9641 -0.9868
   80SLPC  H16Y 7473  -0.811   5.657   8.634  0.3470 -0.1364 -0.5501
   80SLPC  C317 7474  -0.776   5.470   8.738 -0.3571 -0.4992 -0.2380
   80SLPC  H17X 7475  -0.857   5.487   8.812  1.9002 -0.8449  2.3600
   80SLPC  H17Y 7476  -0.685   5.503   8.793 -0.2996  0.4495 -0.8758
   80SLPC  C318 7477  -0.768   5.321   8.705  0.2522  0.4760 -0.5746
   80SLPC  H18X 7478  -0.758   5.254   8.793 -0.1484  0.7883 -0.2890
   80SLPC  H18Y 7479  -0.677   5.291   8.647  0.9271  2.0989 -0.3804
   80SLPC  H18Z 7480  -0.859   5.300   8.645  0.3087  0.0024 -0.4958
   81SAPS     N 7481   6.058   0.533  10.754  0.2671  0.0205 -0.1668
   81SAPS   HN1 7482   6.125   0.572  10.684  0.3048  2.2121  1.0457
   81SAPS   HN2 7483   6.036   0.434  10.732 -0.7393 -0.3507  2.3177
   81SAPS   HN3 7484   5.963   0.574  10.741  0.6878  1.3735  0.9435
   81SAPS   C12 7485   6.104   0.565  10.898  0.0324  0.4246 -0.1850
   81SAPS  H12A 7486   6.103   0.671  10.916 -0.5935  0.9463 -2.9770
   81SAPS   C13 7487   6.020   0.505  11.016  0.7881  0.5379 -1.0331
   81SAPS  O13A 7488   5.936   0.413  10.983 -0.0781  0.2376 -0.2773
   81SAPS  O13B 7489   6.043   0.541  11.132 -0.3465 -0.0010 -0.2332
   81SAPS   C11 7490   6.252   0.514  10.905 -0.3628  0.3293 -0.4456
   81SAPS  H11A 7491   6.231   0.410  10.873 -2.3558  0.3789  0.6719
   81SAPS  H11B 7492   6.281   0.531  11.010  1.2190  2.4055 -1.1790
   81SAPS     P 7493   6.428   0.697  10.866 -0.1961  0.0700  0.4062
   81SAPS   O13 7494   6.350   0.819  10.845  0.7122 -0.3060  0.3446
   81SAPS   O14 7495   6.477   0.665  11.002  0.3051  0.0119  0.4370
   81SAPS   O12 7496   6.347   0.574  10.812  0.5768 -0.9180 -0.2867
   81SAPS   O11 7497   6.555   0.684  10.770 -0.0055  0.8193  0.1334
   81SAPS    C1 7498   6.542   0.622  10.640 -0.4811 -0.6203 -0.2844
   81SAPS    HA 7499   6.637   0.582  10.598  1.1444  2.3980  0.3446
   81SAPS    HB 7500   6.474   0.535  10.641  0.0001 -0.9897  0.5512
   81SAPS    C2 7501   6.489   0.727  10.535  0.4269 -0.7436  0.0344
   81SAPS    HS 7502   6.424   0.799  10.589  0.4821 -1.0884  0.5708
   81SAPS   O21 7503   6.412   0.656  10.431  0.2978  0.0563  0.2476
   81SAPS   C21 7504   6.290   0.622  10.455 -0.0981  0.2180 -0.0498
   81SAPS   O22 7505   6.227   0.622  10.564  0.4364 -0.4268 -0.0049
   81SAPS   C22 7506   6.224   0.575  10.328  0.3318 -0.1491 -0.4136
   81SAPS   H2R 7507   6.113   0.577  10.334  0.4169  1.2889  0.8979
   81SAPS   H2S 7508   6.251   0.639  10.241  2.8067  0.2319  0.6012
   81SAPS    C3 7509   6.599   0.815  10.473 -0.0671  0.2175 -0.3099
   81SAPS    HX 7510   6.673   0.749  10.422 -1.1949 -0.3987 -1.1522
   81SAPS    HY 7511   6.642   0.872  10.558 -1.7211  1.3476 -0.2230
   81SAPS   O31 7512   6.536   0.904  10.381 -0.6812 -0.1941  0.8760
   81SAPS   C31 7513   6.532   1.036  10.377 -0.7713  0.3316 -0.4719
   81SAPS   O32 7514   6.570   1.106  10.468 -0.1020  0.5435  0.2323
   81SAPS   C32 7515   6.481   1.081  10.238 -0.8263 -0.1255 -0.5031
   81SAPS   H2X 7516   6.534   1.037  10.150 -0.5431  1.1120 -0.9645
   81SAPS   H2Y 7517   6.495   1.191  10.229  0.7656 -0.4228 -2.0108
   81SAPS   C23 7518   6.242   0.424  10.302 -0.4195 -0.4659  0.7405
   81SAPS   H3R 7519   6.217   0.369  10.395  1.3539 -1.1654  0.8145
   81SAPS   H3S 7520   6.344   0.392  10.271 -0.9619 -0.6028 -0.9284
   81SAPS   C24 7521   6.153   0.364  10.195  0.4953 -0.1814 -0.0937
   81SAPS   H4R 7522   6.045   0.354  10.219 -0.0693  0.6087 -2.1814
   81SAPS   H4S 7523   6.198   0.264  10.181  1.1463 -0.0052  0.7170
   81SAPS   C25 7524   6.173   0.424  10.069  0.1158  0.2173 -0.0059
   81SAPS   H5R 7525   6.273   0.402  10.027 -0.5392 -0.6999 -1.1330
   81SAPS   C26 7526   6.083   0.504  10.002  0.0760 -0.1170 -0.3103
   81SAPS   H6R 7527   6.110   0.516   9.896  2.3567 -0.1625  0.2303
   81SAPS   C27 7528   5.943   0.542  10.049 -0.2234 -0.3334  0.5573
   81SAPS   H7R 7529   5.932   0.547  10.159  0.1541 -1.6106  0.6605
   81SAPS   H7S 7530   5.885   0.452  10.019 -1.4635  0.5250  0.3445
   81SAPS   C28 7531   5.892   0.668   9.981 -0.0886  0.0707  0.3601
   81SAPS   H8R 7532   5.906   0.754  10.049  1.1076 -0.1940  0.4721
   81SAPS   C29 7533   5.843   0.680   9.861  0.1208 -0.1840  0.8769
   81SAPS   H9R 7534   5.801   0.778   9.834 -2.5497 -2.0201 -2.0467
   81SAPS  C210 7535   5.819   0.574   9.752 -0.1445 -0.2698 -0.8175
   81SAPS  H10R 7536   5.884   0.489   9.783  1.0085  0.3472 -1.4964
   81SAPS  H10S 7537   5.858   0.610   9.655  1.0273 -1.3472 -0.7610
   81SAPS  C211 7538   5.674   0.526   9.751  0.3103 -0.1871 -0.6271
   81SAPS  H11R 7539   5.662   0.427   9.797 -1.1905 -0.5435 -1.7317
   81SAPS  C212 7540   5.567   0.593   9.704 -0.5492 -0.1764  0.8005
   81SAPS  H12R 7541   5.472   0.539   9.695  0.3250 -1.7644  0.9405
   81SAPS  C213 7542   5.576   0.730   9.635  0.1900 -0.0819 -0.2398
   81SAPS  H13R 7543   5.662   0.728   9.564  0.1534 -0.0308 -0.2850
   81SAPS  H13S 7544   5.617   0.805   9.705  0.6348  1.5057 -2.1619
   81SAPS  C214 7545   5.450   0.750   9.565  0.1259  0.1079  1.0545
   81SAPS  H14R 7546   5.375   0.796   9.630 -3.5376  0.2420 -3.0730
   81SAPS  C215 7547   5.409   0.704   9.445 -0.5033  0.5828 -0.3007
   81SAPS  H15R 7548   5.309   0.730   9.407  0.4058  1.1416 -2.3495
   81SAPS  C216 7549   5.489   0.626   9.342  0.4630 -0.2351  0.5665
   81SAPS  H16R 7550   5.449   0.527   9.312 -0.3564  0.4946 -0.7608
   81SAPS  H16S 7551   5.591   0.596   9.375  0.7132 -1.2626 -1.1127
   81SAPS  C217 7552   5.509   0.708   9.218 -0.5699 -0.3312  0.4446
   81SAPS  H17R 7553   5.571   0.793   9.252  1.7884 -1.3588 -1.1629
   81SAPS  H17S 7554   5.415   0.745   9.172  0.5527  0.3504 -1.3529
   81SAPS  C218 7555   5.578   0.642   9.099  0.3671 -0.0064  0.0309
   81SAPS  H18R 7556   5.507   0.571   9.052  1.5332 -0.3246 -1.3058
   81SAPS  H18S 7557   5.660   0.582   9.145 -1.9016 -2.6416  0.7773
   81SAPS  C219 7558   5.631   0.744   8.995  0.3177  0.5244 -0.8031
   81SAPS  H19R 7559   5.721   0.787   9.044  1.8787 -1.1972 -2.1043
   81SAPS  H19S 7560   5.543   0.809   8.974 -1.1341 -1.7235 -1.9365
   81SAPS  C220 7561   5.691   0.688   8.863  0.2068  0.0213  0.4482
   81SAPS  H20R 7562   5.771   0.612   8.876  1.8896  1.6895  0.0465
   81SAPS  H20S 7563   5.735   0.774   8.808  1.7683 -0.6346  0.6356
   81SAPS  H20T 7564   5.598   0.664   8.808  0.8372 -3.4774  0.8177
   81SAPS   C33 7565   6.327   1.057  10.227 -0.3755  0.5110 -0.4004
   81SAPS   H3X 7566   6.277   1.137  10.286 -1.1694  0.2675 -0.7354
   81SAPS   H3Y 7567   6.305   0.963  10.281  1.4968 -1.1318 -2.4138
   81SAPS   C34 7568   6.283   1.056  10.081 -0.1250 -0.1830  0.5798
   81SAPS   H4X 7569   6.181   1.013  10.094 -0.3063  0.8389  2.6201
   81SAPS   H4Y 7570   6.346   0.981  10.028 -0.8559  0.3172 -1.0243
   81SAPS   C35 7571   6.281   1.193  10.023 -0.1167 -0.3667  0.1372
   81SAPS   H5X 7572   6.385   1.232  10.018  0.4561 -1.9641 -0.8795
   81SAPS   H5Y 7573   6.213   1.254  10.085 -0.8206 -2.1247  1.1344
   81SAPS   C36 7574   6.221   1.188   9.878 -0.1006 -0.8631  0.5075
   81SAPS   H6X 7575   6.113   1.169   9.896 -0.2359  0.2264  0.8411
   81SAPS   H6Y 7576   6.260   1.106   9.814  0.7983  1.6271 -2.2280
   81SAPS   C37 7577   6.251   1.323   9.813 -0.3688  0.3742  0.6564
   81SAPS   H7X 7578   6.343   1.296   9.757 -1.0428 -1.8816  0.6067
   81SAPS   H7Y 7579   6.284   1.398   9.889  2.7125  1.2834 -1.4833
   81SAPS   C38 7580   6.138   1.393   9.732  0.3228  0.1155  0.5862
   81SAPS   H8X 7581   6.053   1.416   9.800  0.9250  0.2153  1.3032
   81SAPS   H8Y 7582   6.111   1.328   9.646 -0.7959  1.4510 -0.1013
   81SAPS   C39 7583   6.181   1.510   9.645 -0.3501 -0.2464  0.3800
   81SAPS   H9X 7584   6.268   1.487   9.582  0.4983 -1.1491  1.8563
   81SAPS   H9Y 7585   6.202   1.600   9.708  2.8920  1.1740 -2.5867
   81SAPS  C310 7586   6.067   1.551   9.549  0.1965 -0.9328  0.5940
   81SAPS  H10X 7587   5.984   1.582   9.617  1.2437  1.7891  0.6628
   81SAPS  H10Y 7588   6.043   1.461   9.488  2.0874 -1.7716  1.0509
   81SAPS  C311 7589   6.091   1.661   9.447 -0.1350  0.3223  0.7256
   81SAPS  H11X 7590   6.127   1.753   9.499 -1.1179  0.6414  0.8500
   81SAPS  H11Y 7591   5.993   1.691   9.404 -0.4488 -1.1826  0.3625
   81SAPS  C312 7592   6.183   1.615   9.328 -0.2446  0.1470 -0.3129
   81SAPS  H12X 7593   6.133   1.529   9.278 -0.6594  1.2170 -1.7912
   81SAPS  H12Y 7594   6.282   1.580   9.365  0.2842  2.4519  0.5286
   81SAPS  C313 7595   6.210   1.718   9.216 -0.5759  0.1724  0.4283
   81SAPS  H13X 7596   6.265   1.668   9.134 -1.4817 -0.3030  0.1059
   81SAPS  H13Y 7597   6.279   1.796   9.256 -0.1075 -2.2173  4.5875
   81SAPS  C314 7598   6.096   1.812   9.172  0.2751 -0.0680  1.1582
   81SAPS  H14X 7599   6.051   1.854   9.265 -0.8877  0.8171  0.2140
   81SAPS  H14Y 7600   6.016   1.755   9.120  0.2756 -0.0729  1.1610
   81SAPS  C315 7601   6.132   1.930   9.078 -1.0555  0.0773  0.0756
   81SAPS  H15X 7602   6.191   2.004   9.137 -0.2844  1.3710 -2.2584
   81SAPS  H15Y 7603   6.047   1.988   9.037 -1.0065  1.8129  2.3276
   81SAPS  C316 7604   6.211   1.881   8.946  0.1994  0.6329 -0.1854
   81SAPS  H16X 7605   6.140   1.820   8.886 -0.3087  0.5876  0.4530
   81SAPS  H16Y 7606   6.294   1.813   8.973 -0.9265 -0.3119  1.0165
   81SAPS  C317 7607   6.266   1.984   8.849  0.4577  0.0332 -0.8664
   81SAPS  H17X 7608   6.346   2.045   8.895 -0.1048 -0.1996  0.4581
   81SAPS  H17Y 7609   6.181   2.051   8.824 -1.3553 -1.7960  0.2312
   81SAPS  C318 7610   6.318   1.916   8.724  1.0107 -0.3761 -0.5707
   81SAPS  H18X 7611   6.227   1.879   8.673 -0.8277 -1.2549  3.1738
   81SAPS  H18Y 7612   6.389   1.834   8.748 -0.1794 -0.9208  1.1694
   81SAPS  H18Z 7613   6.371   1.995   8.666  1.4146  1.8630  2.6836
   82SAPS     N 7614   4.791   6.614  10.922  0.1576 -0.2641 -0.5809
   82SAPS   HN1 7615   4.754   6.542  10.987  2.5861 -0.4883  0.6293
   82SAPS   HN2 7616   4.719   6.686  10.901  1.5844  0.8648 -1.7277
   82SAPS   HN3 7617   4.826   6.573  10.833 -0.1322 -0.1879 -0.7291
   82SAPS   C12 7618   4.902   6.665  11.005 -0.3600  0.1089  0.5090
   82SAPS  H12A 7619   4.858   6.672  11.103 -0.0531  2.1092  0.5153
   82SAPS   C13 7620   5.028   6.572  11.016 -0.3860  0.1400 -0.0581
   82SAPS  O13A 7621   5.046   6.485  10.933  1.0076 -0.2457  0.2605
   82SAPS  O13B 7622   5.099   6.575  11.120 -0.0650 -0.3568  0.5984
   82SAPS   C11 7623   4.918   6.822  10.969  0.5190 -0.1598 -0.3743
   82SAPS  H11A 7624   4.957   6.832  10.865  0.4738  2.5831 -0.1725
   82SAPS  H11B 7625   4.998   6.851  11.041 -0.8201  1.5422  0.4616
   82SAPS     P 7626   4.806   7.054  10.950  0.1656 -0.2557 -0.0597
   82SAPS   O13 7627   4.683   7.125  10.995 -0.4682  0.1793 -0.6965
   82SAPS   O14 7628   4.940   7.106  10.995 -0.8146 -0.6725 -0.0347
   82SAPS   O12 7629   4.796   6.899  10.983  0.0162 -0.1088 -0.6244
   82SAPS   O11 7630   4.807   7.049  10.790 -0.4592  0.1176  0.2394
   82SAPS    C1 7631   4.728   6.961  10.711  0.6851 -0.1183  0.4297
   82SAPS    HA 7632   4.747   6.855  10.736 -0.2777 -1.1804 -3.0585
   82SAPS    HB 7633   4.624   6.981  10.741  0.2403  0.2007 -1.2384
   82SAPS    C2 7634   4.739   6.994  10.558  0.4674  0.4786  0.0798
   82SAPS    HS 7635   4.846   6.975  10.534 -0.6128 -0.6407 -4.1121
   82SAPS   O21 7636   4.689   7.125  10.533  0.1718 -0.4287 -0.4602
   82SAPS   C21 7637   4.764   7.202  10.451  0.5505 -0.4160 -0.0184
   82SAPS   O22 7638   4.872   7.167  10.406 -0.4662 -0.4659 -0.2586
   82SAPS   C22 7639   4.705   7.331  10.413  0.1008 -0.4080  0.6621
   82SAPS   H2R 7640   4.611   7.312  10.357  0.9493  0.8651 -1.2461
   82SAPS   H2S 7641   4.681   7.385  10.506 -1.7499 -0.6731  0.3686
   82SAPS    C3 7642   4.665   6.882  10.480  0.0220  0.0145 -1.0548
   82SAPS    HX 7643   4.554   6.886  10.487  0.0498 -0.2717 -0.4109
   82SAPS    HY 7644   4.692   6.792  10.539  2.3728  1.1106 -0.4197
   82SAPS   O31 7645   4.706   6.873  10.343  0.0973 -0.0494  0.6329
   82SAPS   C31 7646   4.803   6.795  10.308  0.4425  0.3356 -0.3263
   82SAPS   O32 7647   4.876   6.725  10.377  0.4560 -1.0007 -0.0655
   82SAPS   C32 7648   4.822   6.804  10.158 -1.1409 -0.9758  0.3542
   82SAPS   H2X 7649   4.731   6.782  10.099 -0.9381 -2.4003  0.5440
   82SAPS   H2Y 7650   4.885   6.718  10.126  0.7223  0.2783  0.5207
   82SAPS   C23 7651   4.791   7.418  10.329  0.0387 -0.5404  0.3651
   82SAPS   H3R 7652   4.887   7.443  10.379  1.0245 -4.3646  0.5924
   82SAPS   H3S 7653   4.739   7.516  10.322 -0.0086 -0.5584  0.4753
   82SAPS   C24 7654   4.817   7.371  10.186  0.1316  0.4314 -0.1987
   82SAPS   H4R 7655   4.870   7.274  10.189 -0.5538 -0.0479 -2.3396
   82SAPS   H4S 7656   4.882   7.446  10.137 -0.3740  0.6416 -0.5522
   82SAPS   C25 7657   4.692   7.363  10.101  0.7871 -0.3152 -0.9110
   82SAPS   H5R 7658   4.627   7.278  10.125 -1.0817  1.1634 -0.6169
   82SAPS   C26 7659   4.647   7.440  10.003  0.4452  0.7082 -0.0481
   82SAPS   H6R 7660   4.553   7.408   9.957  1.2244 -1.1617 -0.3913
   82SAPS   C27 7661   4.719   7.561   9.954 -0.2853  0.2950  0.0459
   82SAPS   H7R 7662   4.773   7.526   9.863  1.7056 -0.3135  1.4258
   82SAPS   H7S 7663   4.798   7.597  10.023  0.0647 -2.0856  0.9484
   82SAPS   C28 7664   4.607   7.661   9.912  0.6867 -0.0362 -0.2784
   82SAPS   H8R 7665   4.537   7.694   9.990 -0.2414 -0.5616 -0.8753
   82SAPS   C29 7666   4.593   7.709   9.781  0.5333 -0.7782  0.7343
   82SAPS   H9R 7667   4.524   7.793   9.767  0.2314 -0.7245  2.3845
   82SAPS  C210 7668   4.675   7.680   9.656  0.8650 -0.0440  0.0995
   82SAPS  H10R 7669   4.593   7.660   9.583  2.1222 -1.0557 -1.0599
   82SAPS  H10S 7670   4.750   7.599   9.668  1.3151  0.4299  0.4874
   82SAPS  C211 7671   4.755   7.802   9.619 -0.1182  0.4333  0.0864
   82SAPS  H11R 7672   4.827   7.825   9.699 -0.9679  1.4070  0.5751
   82SAPS  C212 7673   4.757   7.874   9.509  0.3958  0.0656  0.3859
   82SAPS  H12R 7674   4.841   7.945   9.501 -0.2278  0.7371 -0.3844
   82SAPS  C213 7675   4.671   7.876   9.392  0.3105  0.5703  1.0044
   82SAPS  H13R 7676   4.627   7.775   9.384  0.0065  0.8274 -0.7688
   82SAPS  H13S 7677   4.739   7.907   9.309  0.0925  0.5884  0.8305
   82SAPS  C214 7678   4.561   7.979   9.402 -0.3849 -0.1154  0.3293
   82SAPS  H14R 7679   4.546   8.033   9.497  1.8629  0.0819  0.6022
   82SAPS  C215 7680   4.471   7.997   9.308 -0.6084  0.0100  0.2410
   82SAPS  H15R 7681   4.398   8.077   9.326 -0.4363  0.5379 -1.3294
   82SAPS  C216 7682   4.460   7.930   9.177  0.0277 -0.2345  0.0047
   82SAPS  H16R 7683   4.393   7.841   9.181 -0.0873 -0.2878 -2.5004
   82SAPS  H16S 7684   4.557   7.879   9.156  0.7544  1.0625  0.1315
   82SAPS  C217 7685   4.408   8.018   9.067 -0.2537  0.2145 -0.3081
   82SAPS  H17R 7686   4.471   8.108   9.050 -1.7938  1.4279  0.2263
   82SAPS  H17S 7687   4.304   8.056   9.080 -0.4069  0.1626 -1.3695
   82SAPS  C218 7688   4.418   7.949   8.928  0.1095  0.2041 -0.2097
   82SAPS  H18R 7689   4.359   8.010   8.857  0.1875 -0.3316 -0.7339
   82SAPS  H18S 7690   4.359   7.855   8.937  1.3320 -0.5548 -0.0381
   82SAPS  C219 7691   4.564   7.920   8.879 -0.5047 -0.7503  0.1562
   82SAPS  H19R 7692   4.551   7.882   8.775 -0.4099  2.0034 -0.9051
   82SAPS  H19S 7693   4.606   7.839   8.943  1.8120  0.9092  0.7993
   82SAPS  C220 7694   4.665   8.038   8.884  0.2494  1.3232  0.0593
   82SAPS  H20R 7695   4.626   8.124   8.826 -0.2596  0.9840 -0.1018
   82SAPS  H20S 7696   4.756   8.016   8.823  0.4748  0.5284  0.6663
   82SAPS  H20T 7697   4.693   8.036   8.992  0.8357 -0.7629 -0.0954
   82SAPS   C33 7698   4.897   6.925  10.097  0.0440 -0.1583 -0.4036
   82SAPS   H3X 7699   4.989   6.937  10.157 -0.4319  1.5195 -0.0014
   82SAPS   H3Y 7700   4.836   7.017  10.108 -0.4158 -0.6858  1.5689
   82SAPS   C34 7701   4.943   6.905   9.950  0.9620 -0.4921  0.0144
   82SAPS   H4X 7702   4.858   6.896   9.879 -0.3598  0.6567  1.4167
   82SAPS   H4Y 7703   4.979   6.800   9.956 -2.6167 -1.7017  2.3085
   82SAPS   C35 7704   5.047   7.005   9.894  0.0546 -0.1289 -0.8228
   82SAPS   H5X 7705   5.050   6.982   9.785 -1.7225  2.3564 -1.4396
   82SAPS   H5Y 7706   5.144   6.975   9.939 -1.2390 -3.3735 -0.0393
   82SAPS   C36 7707   5.014   7.153   9.899  0.7232 -0.5569  0.4948
   82SAPS   H6X 7708   5.019   7.193  10.003 -2.0481  0.7771  0.1597
   82SAPS   H6Y 7709   4.912   7.160   9.856  1.7611  1.3760 -1.7810
   82SAPS   C37 7710   5.105   7.246   9.808 -0.2552  0.3848 -0.4736
   82SAPS   H7X 7711   5.114   7.202   9.706  1.6231  1.0899 -0.6234
   82SAPS   H7Y 7712   5.207   7.269   9.846 -0.3262 -0.5315  0.2952
   82SAPS   C38 7713   5.056   7.391   9.799 -0.2602  0.1380 -0.3771
   82SAPS   H8X 7714   5.093   7.444   9.889 -0.5206 -1.1166  0.4737
   82SAPS   H8Y 7715   4.945   7.388   9.800 -0.3169  1.5023 -0.4214
   82SAPS   C39 7716   5.121   7.471   9.680  0.7644  0.0010 -0.0193
   82SAPS   H9X 7717   5.068   7.424   9.594  0.3992 -0.3046  0.3766
   82SAPS   H9Y 7718   5.229   7.451   9.696  0.9332  0.2033 -0.8493
   82SAPS  C310 7719   5.089   7.622   9.690 -1.2585  0.2471 -0.1222
   82SAPS  H10X 7720   5.151   7.668   9.770  1.1024 -0.3621 -1.5535
   82SAPS  H10Y 7721   4.981   7.629   9.715 -1.5287 -2.9855 -0.1278
   82SAPS  C311 7722   5.117   7.703   9.561 -0.1241 -0.1128  0.4030
   82SAPS  H11X 7723   5.228   7.698   9.548 -0.3298 -1.7243 -0.8583
   82SAPS  H11Y 7724   5.091   7.809   9.582 -0.9265 -0.3874  0.7991
   82SAPS  C312 7725   5.053   7.651   9.431 -0.1015  0.0743 -0.1613
   82SAPS  H12X 7726   4.943   7.657   9.446  0.1654  2.9585  0.9776
   82SAPS  H12Y 7727   5.072   7.544   9.407  2.3773  0.7154 -1.1474
   82SAPS  C313 7728   5.091   7.740   9.315 -0.2798  0.0558 -0.6822
   82SAPS  H13X 7729   5.200   7.744   9.298 -0.2516  4.3967 -0.1378
   82SAPS  H13Y 7730   5.052   7.842   9.338 -0.8267 -0.5443  1.1304
   82SAPS  C314 7731   5.039   7.690   9.178 -0.0747 -0.9745  0.8582
   82SAPS  H14X 7732   5.088   7.591   9.162  0.9051 -0.3796  0.1158
   82SAPS  H14Y 7733   5.072   7.751   9.091  0.6654 -1.9338  0.4522
   82SAPS  C315 7734   4.881   7.674   9.161 -0.4751  0.2357 -0.1676
   82SAPS  H15X 7735   4.840   7.775   9.139  2.0747  1.5780  0.9247
   82SAPS  H15Y 7736   4.831   7.643   9.255 -1.1409  0.5503 -0.4161
   82SAPS  C316 7737   4.848   7.580   9.043  0.2122 -0.0740  0.2037
   82SAPS  H16X 7738   4.887   7.480   9.071 -0.3446 -0.7881 -1.4695
   82SAPS  H16Y 7739   4.895   7.612   8.947  1.6896 -2.2596  0.1436
   82SAPS  C317 7740   4.694   7.560   9.016  0.8973  0.5004  0.6595
   82SAPS  H17X 7741   4.641   7.657   9.010 -0.6474 -0.3120  0.6461
   82SAPS  H17Y 7742   4.658   7.519   9.113  3.8121 -1.2720  1.0619
   82SAPS  C318 7743   4.657   7.470   8.897 -0.3779 -0.3267 -0.2180
   82SAPS  H18X 7744   4.555   7.425   8.901  0.3930 -2.6321 -3.8414
   82SAPS  H18Y 7745   4.724   7.381   8.894  0.3888  0.2685 -1.1168
   82SAPS  H18Z 7746   4.654   7.519   8.797 -0.9631  2.3838  1.0943
   83SAPS     N 7747   0.277   0.943  11.287 -0.0972 -0.0218 -0.1479
   83SAPS   HN1 7748   0.252   0.860  11.346  0.4195  1.5186  2.3157
   83SAPS   HN2 7749   0.199   1.012  11.295  0.9831  0.9630  2.4088
   83SAPS   HN3 7750   0.258   0.923  11.187 -0.7018  1.6056 -0.3749
   83SAPS   C12 7751   0.416   0.989  11.304 -0.4386 -0.2295 -0.5641
   83SAPS  H12A 7752   0.443   1.022  11.403 -0.3542 -0.2039 -0.5973
   83SAPS   C13 7753   0.530   0.886  11.252  0.5910 -0.3399  1.0022
   83SAPS  O13A 7754   0.499   0.768  11.219  0.1394 -0.6199  0.3491
   83SAPS  O13B 7755   0.649   0.918  11.274 -0.2007  0.5020 -0.4171
   83SAPS   C11 7756   0.440   1.104  11.202  0.2525 -0.3245  0.6474
   83SAPS  H11A 7757   0.434   1.062  11.099  0.6087 -1.4950  1.0917
   83SAPS  H11B 7758   0.540   1.139  11.236  1.5817 -3.3061 -0.0628
   83SAPS     P 7759   0.337   1.330  11.109  0.5441  0.0145 -0.0417
   83SAPS   O13 7760   0.399   1.441  11.183  0.2260  0.5717  0.8171
   83SAPS   O14 7761   0.408   1.294  10.988 -0.7961 -0.1969  0.4520
   83SAPS   O12 7762   0.332   1.206  11.206 -0.8222 -0.0755  0.1789
   83SAPS   O11 7763   0.184   1.372  11.072 -0.4120 -0.1077 -0.0918
   83SAPS    C1 7764   0.120   1.337  10.949 -1.0123 -0.1552  0.1020
   83SAPS    HA 7765   0.156   1.246  10.897 -0.3389 -0.2345  0.6934
   83SAPS    HB 7766   0.016   1.314  10.980 -0.5489 -1.3514  0.8138
   83SAPS    C2 7767   0.111   1.460  10.853  0.2924 -0.0391  0.7038
   83SAPS    HS 7768   0.045   1.535  10.902  1.5103  1.7992 -0.3713
   83SAPS   O21 7769   0.049   1.419  10.722 -0.3386 -0.3542 -0.3315
   83SAPS   C21 7770  -0.037   1.502  10.668 -0.2034 -0.2139  0.6088
   83SAPS   O22 7771  -0.045   1.620  10.698 -0.1910 -0.0441 -0.2594
   83SAPS   C22 7772  -0.135   1.423  10.576  0.2968  0.6011  0.3764
   83SAPS   H2R 7773  -0.085   1.348  10.511  0.4438  2.2059 -1.4123
   83SAPS   H2S 7774  -0.196   1.356  10.639  2.0046 -1.9780 -0.6098
   83SAPS    C3 7775   0.255   1.519  10.826 -0.8203  0.2621  0.8660
   83SAPS    HX 7776   0.332   1.439  10.818 -0.5256  0.7455 -1.6115
   83SAPS    HY 7777   0.300   1.585  10.903 -1.7584  2.9663 -0.8490
   83SAPS   O31 7778   0.249   1.611  10.711 -0.0026 -0.0924 -0.0112
   83SAPS   C31 7779   0.365   1.631  10.650 -0.2730 -0.0095 -0.5495
   83SAPS   O32 7780   0.472   1.603  10.703 -0.2630  0.1331  0.4965
   83SAPS   C32 7781   0.344   1.688  10.508 -0.3853 -0.3634  0.6716
   83SAPS   H2X 7782   0.274   1.774  10.511 -1.4216 -1.2340  2.8285
   83SAPS   H2Y 7783   0.299   1.604  10.451  1.8594 -1.6949  0.8055
   83SAPS   C23 7784  -0.228   1.509  10.496 -0.3828  0.3979 -0.2196
   83SAPS   H3R 7785  -0.166   1.594  10.462 -1.5417  1.1082 -0.5580
   83SAPS   H3S 7786  -0.310   1.547  10.561 -0.7594  0.8633 -0.9702
   83SAPS   C24 7787  -0.292   1.422  10.383 -0.3820 -0.1282 -0.2180
   83SAPS   H4R 7788  -0.348   1.348  10.445  2.6898 -1.9119  0.5600
   83SAPS   H4S 7789  -0.212   1.360  10.338  0.7859  1.4174 -0.2937
   83SAPS   C25 7790  -0.371   1.512  10.285  0.2724  0.2765  0.3088
   83SAPS   H5R 7791  -0.462   1.559  10.326  0.8576  0.0535  1.8755
   83SAPS   C26 7792  -0.341   1.534  10.159  0.0120 -0.1510  0.4303
   83SAPS   H6R 7793  -0.403   1.595  10.092 -1.9770 -0.5276  1.8489
   83SAPS   C27 7794  -0.227   1.471  10.088 -0.0237  0.9783 -0.7270
   83SAPS   H7R 7795  -0.229   1.361  10.096  0.2983  0.8889 -1.7876
   83SAPS   H7S 7796  -0.137   1.495  10.149 -0.1618 -0.4738  0.0646
   83SAPS   C28 7797  -0.199   1.513   9.947  0.7436 -0.0725  0.0784
   83SAPS   H8R 7798  -0.256   1.601   9.914 -1.4705 -1.8527 -0.9050
   83SAPS   C29 7799  -0.123   1.451   9.857 -0.0521  0.5664  0.2669
   83SAPS   H9R 7800  -0.134   1.475   9.751  0.4725 -0.2962  0.0116
   83SAPS  C210 7801  -0.027   1.333   9.875 -1.2665  1.1264 -0.0342
   83SAPS  H10R 7802  -0.020   1.315   9.984 -1.0402 -0.3171 -0.2882
   83SAPS  H10S 7803   0.074   1.368   9.846 -1.2900  0.0471 -1.4659
   83SAPS  C211 7804  -0.072   1.205   9.819  0.4705 -0.3589 -0.5394
   83SAPS  H11R 7805  -0.138   1.146   9.883 -1.5130  1.0435 -1.2300
   83SAPS  C212 7806  -0.047   1.158   9.696  0.3995  0.0249 -0.6254
   83SAPS  H12R 7807  -0.078   1.056   9.672  0.8197 -0.6159  1.4695
   83SAPS  C213 7808   0.039   1.224   9.588  0.1574 -0.1799 -0.3149
   83SAPS  H13R 7809   0.094   1.152   9.524  1.4648  1.8248 -1.5024
   83SAPS  H13S 7810   0.121   1.282   9.635 -0.0202 -1.1561  1.2607
   83SAPS  C214 7811  -0.053   1.318   9.513  0.1603  0.7197 -0.4769
   83SAPS  H14R 7812  -0.157   1.320   9.547  0.2032 -1.1035 -0.2028
   83SAPS  C215 7813  -0.008   1.393   9.412  0.2872  0.3232 -0.1850
   83SAPS  H15R 7814  -0.075   1.466   9.364  0.2505  1.4727  1.5298
   83SAPS  C216 7815   0.131   1.405   9.362 -0.2528  0.3386 -0.0916
   83SAPS  H16R 7816   0.204   1.335   9.407  0.6787 -1.2540 -3.8438
   83SAPS  H16S 7817   0.162   1.508   9.391  0.3844 -0.5837  2.5830
   83SAPS  C217 7818   0.146   1.399   9.208 -0.4246 -0.2292 -0.1998
   83SAPS  H17R 7819   0.247   1.433   9.175  1.2255 -2.9736  1.7280
   83SAPS  H17S 7820   0.075   1.474   9.169 -0.2922 -1.8756 -3.8111
   83SAPS  C218 7821   0.106   1.265   9.151  0.4628  0.5852 -0.5995
   83SAPS  H18R 7822  -0.004   1.273   9.138  0.0555 -1.3726  1.2694
   83SAPS  H18S 7823   0.127   1.173   9.211 -0.8898  0.8551  0.3104
   83SAPS  C219 7824   0.166   1.254   9.004 -0.0763 -0.3663 -0.4850
   83SAPS  H19R 7825   0.277   1.257   9.006 -0.0906  0.9631 -1.0587
   83SAPS  H19S 7826   0.128   1.338   8.942  2.6272 -0.4585 -2.3378
   83SAPS  C220 7827   0.126   1.115   8.942 -0.0926  0.5124 -0.6046
   83SAPS  H20R 7828   0.165   1.035   9.008 -2.1341  0.5967  0.7478
   83SAPS  H20S 7829   0.164   1.109   8.838 -0.8763 -2.1532 -0.7747
   83SAPS  H20T 7830   0.017   1.098   8.928 -0.5692  3.2776 -0.6287
   83SAPS   C33 7831   0.479   1.745  10.449 -0.0348  0.5096  0.3873
   83SAPS   H3X 7832   0.556   1.666  10.435  0.2778  0.8524  0.1338
   83SAPS   H3Y 7833   0.523   1.829  10.508  1.4028  0.3446 -0.4084
   83SAPS   C34 7834   0.450   1.812  10.307 -0.0403 -0.1929 -0.1242
   83SAPS   H4X 7835   0.372   1.889  10.328  0.3603  0.6449 -1.6082
   83SAPS   H4Y 7836   0.399   1.741  10.238 -1.1064  0.7618 -0.3463
   83SAPS   C35 7837   0.572   1.877  10.223 -0.2220 -0.2580  0.4083
   83SAPS   H5X 7838   0.650   1.798  10.226  1.3081  1.1794 -0.2626
   83SAPS   H5Y 7839   0.619   1.958  10.283  0.4745 -2.2345  2.5951
   83SAPS   C36 7840   0.535   1.907  10.079  0.4836  0.3789  0.5153
   83SAPS   H6X 7841   0.441   1.966  10.087  0.6014  0.3002  2.8109
   83SAPS   H6Y 7842   0.498   1.823  10.017  4.0379 -0.8994  0.0347
   83SAPS   C37 7843   0.641   1.983   9.998 -0.6765 -0.0346  0.0976
   83SAPS   H7X 7844   0.710   1.907   9.955 -0.6838 -0.5078  0.9257
   83SAPS   H7Y 7845   0.704   2.056  10.053  2.4370 -3.2225  0.9971
   83SAPS   C38 7846   0.587   2.057   9.880 -0.6382 -0.3707 -0.4944
   83SAPS   H8X 7847   0.513   2.136   9.903  0.8095  0.5271  1.2172
   83SAPS   H8Y 7848   0.535   1.983   9.815 -0.6239 -2.0251  1.3288
   83SAPS   C39 7849   0.707   2.122   9.799 -0.3414  0.1268  0.3659
   83SAPS   H9X 7850   0.768   2.034   9.766  1.7209  0.7462  2.3504
   83SAPS   H9Y 7851   0.773   2.181   9.866 -0.6802  0.4161  0.4442
   83SAPS  C310 7852   0.678   2.211   9.681  0.8204 -0.0651  0.0900
   83SAPS  H10X 7853   0.776   2.257   9.653 -0.0847  1.0235 -1.3431
   83SAPS  H10Y 7854   0.616   2.296   9.715 -0.9323 -0.8038 -1.1797
   83SAPS  C311 7855   0.589   2.147   9.566 -0.3634 -0.4308 -1.0411
   83SAPS  H11X 7856   0.482   2.167   9.590  0.0378  1.7543 -0.9551
   83SAPS  H11Y 7857   0.618   2.041   9.551 -0.8923 -0.7229 -0.0922
   83SAPS  C312 7858   0.609   2.197   9.424  0.0186  0.0617  0.3246
   83SAPS  H12X 7859   0.622   2.307   9.421  0.9695 -0.0951 -2.4401
   83SAPS  H12Y 7860   0.522   2.164   9.363  1.2744 -1.3916 -0.7254
   83SAPS  C313 7861   0.738   2.143   9.363  0.0967  0.6554 -0.9107
   83SAPS  H13X 7862   0.745   2.035   9.339 -0.3028  0.5008 -0.3260
   83SAPS  H13Y 7863   0.818   2.183   9.429 -2.5679  0.0203  2.8510
   83SAPS  C314 7864   0.750   2.210   9.222  0.3405  0.2918  0.0544
   83SAPS  H14X 7865   0.844   2.270   9.230  0.6418 -0.0881 -0.5718
   83SAPS  H14Y 7866   0.664   2.280   9.218 -0.4701 -0.6600  0.5952
   83SAPS  C315 7867   0.769   2.113   9.106  0.1619  0.4967 -0.3842
   83SAPS  H15X 7868   0.853   2.040   9.106 -1.2227 -1.1453 -1.3321
   83SAPS  H15Y 7869   0.792   2.188   9.027  0.8409 -0.2569 -0.9154
   83SAPS  C316 7870   0.642   2.033   9.071 -0.8096 -0.6652  0.3128
   83SAPS  H16X 7871   0.570   2.110   9.037 -0.0126 -0.3122 -0.5914
   83SAPS  H16Y 7872   0.589   1.989   9.158  1.6229  0.6178  2.5198
   83SAPS  C317 7873   0.668   1.920   8.983 -0.5162 -0.0434  0.3531
   83SAPS  H17X 7874   0.764   1.869   9.007  0.4854  0.9677 -1.4084
   83SAPS  H17Y 7875   0.679   1.958   8.879 -0.4586  2.2368  1.1597
   83SAPS  C318 7876   0.566   1.804   8.975 -0.3663 -0.2771  0.4332
   83SAPS  H18X 7877   0.464   1.845   8.959  0.3680  0.8785 -1.3610
   83SAPS  H18Y 7878   0.568   1.741   9.066 -0.1703 -1.0404 -0.0959
   83SAPS  H18Z 7879   0.598   1.739   8.891  1.1406 -0.3267  1.0245
   84SAPS     N 7880   1.243   1.841  11.136 -0.4967 -0.7514 -0.1911
   84SAPS   HN1 7881   1.180   1.780  11.081 -0.7840 -0.1250 -0.5583
   84SAPS   HN2 7882   1.189   1.926  11.163 -1.0822 -1.3751  0.5925
   84SAPS   HN3 7883   1.324   1.870  11.078 -0.8563  1.5242  0.3993
   84SAPS   C12 7884   1.294   1.759  11.256 -0.2053  0.0008 -0.2549
   84SAPS  H12A 7885   1.377   1.814  11.297  0.6689 -0.4637 -1.3633
   84SAPS   C13 7886   1.179   1.733  11.354 -0.3232 -0.8936 -0.2450
   84SAPS  O13A 7887   1.077   1.805  11.350 -0.2823 -0.4998 -0.6663
   84SAPS  O13B 7888   1.207   1.671  11.465 -0.8300  0.1115 -0.0134
   84SAPS   C11 7889   1.352   1.624  11.204 -0.0588 -0.1143  0.5313
   84SAPS  H11A 7890   1.283   1.560  11.145  0.9306  0.1998 -1.0150
   84SAPS  H11B 7891   1.386   1.572  11.295 -2.0658 -1.6445  0.4342
   84SAPS     P 7892   1.587   1.554  11.102 -0.1956 -0.1628  0.2823
   84SAPS   O13 7893   1.692   1.581  11.198  0.2692 -0.7989 -0.0984
   84SAPS   O14 7894   1.534   1.415  11.109  0.2273 -0.8672 -0.3405
   84SAPS   O12 7895   1.469   1.654  11.122 -0.0399  0.3241  0.0330
   84SAPS   O11 7896   1.639   1.593  10.963  0.0902  0.5479  0.1208
   84SAPS    C1 7897   1.562   1.585  10.847 -0.1619  0.2030 -0.0656
   84SAPS    HA 7898   1.461   1.540  10.865 -0.5719  1.1869  0.1120
   84SAPS    HB 7899   1.550   1.686  10.803  3.9187  0.7754 -0.0412
   84SAPS    C2 7900   1.627   1.491  10.743  0.0733 -0.6667  0.5494
   84SAPS    HS 7901   1.632   1.389  10.788  1.7690 -1.4293 -1.2609
   84SAPS   O21 7902   1.761   1.538  10.718  0.3590 -0.2563 -0.3085
   84SAPS   C21 7903   1.855   1.444  10.683  0.5146 -0.8939 -0.3732
   84SAPS   O22 7904   1.826   1.324  10.667  0.1902 -0.5713 -0.1725
   84SAPS   C22 7905   1.998   1.509  10.684 -0.0573 -0.2476  0.0323
   84SAPS   H2R 7906   1.999   1.576  10.773 -1.4454 -1.9119  1.3541
   84SAPS   H2S 7907   2.069   1.425  10.695  0.1529 -0.0377  0.2632
   84SAPS    C3 7908   1.530   1.480  10.617  0.5000  0.0492 -0.3942
   84SAPS    HX 7909   1.534   1.575  10.559  0.1489  0.6319  0.5401
   84SAPS    HY 7910   1.427   1.474  10.658  1.6559  0.3852  2.7013
   84SAPS   O31 7911   1.581   1.368  10.533 -0.0687  0.3466  0.0441
   84SAPS   C31 7912   1.522   1.244  10.563 -0.0889 -0.6234 -0.2930
   84SAPS   O32 7913   1.438   1.236  10.650  0.5309 -0.2559  0.4592
   84SAPS   C32 7914   1.589   1.128  10.482 -0.1829 -0.4110  0.2040
   84SAPS   H2X 7915   1.677   1.097  10.542  1.4202  0.4413 -1.6304
   84SAPS   H2Y 7916   1.616   1.172  10.384 -0.1610 -2.5274 -0.7725
   84SAPS   C23 7917   2.031   1.586  10.559  0.8649 -0.5154 -0.3008
   84SAPS   H3R 7918   1.944   1.650  10.535  1.0963  0.9000  2.4385
   84SAPS   H3S 7919   2.048   1.521  10.470  0.1215  1.7798 -2.1671
   84SAPS   C24 7920   2.155   1.672  10.575 -0.3311  0.0220 -0.6421
   84SAPS   H4R 7921   2.131   1.737  10.661  2.4424  0.6607 -0.3263
   84SAPS   H4S 7922   2.177   1.735  10.486  2.8345 -0.4731 -0.2710
   84SAPS   C25 7923   2.276   1.588  10.614 -0.3719 -0.4501  0.0137
   84SAPS   H5R 7924   2.291   1.589  10.724 -1.3661  1.4161  0.1557
   84SAPS   C26 7925   2.374   1.537  10.530 -0.3230  0.2270 -0.7062
   84SAPS   H6R 7926   2.456   1.478  10.574 -1.9053 -0.4231  1.4354
   84SAPS   C27 7927   2.391   1.548  10.388  0.4243 -0.0971 -1.0602
   84SAPS   H7R 7928   2.299   1.547  10.326 -1.8436  0.4820  2.1584
   84SAPS   H7S 7929   2.434   1.452  10.352 -1.9164 -1.0161 -1.4965
   84SAPS   C28 7930   2.489   1.659  10.345  0.4441  0.4450 -0.3456
   84SAPS   H8R 7931   2.573   1.665  10.415  0.1962 -2.1514  0.2125
   84SAPS   C29 7932   2.478   1.741  10.235  0.6768  0.0712  0.2315
   84SAPS   H9R 7933   2.556   1.811  10.203  2.2453 -0.9353  1.8046
   84SAPS  C210 7934   2.365   1.761  10.135  0.0866  0.0478  0.2002
   84SAPS  H10R 7935   2.335   1.868  10.127 -0.9792 -0.1820  0.9384
   84SAPS  H10S 7936   2.269   1.709  10.159  0.1697 -1.0083 -1.6725
   84SAPS  C211 7937   2.407   1.722   9.992  0.3471  0.3023  1.1861
   84SAPS  H11R 7938   2.504   1.758   9.954 -0.2737 -0.3892 -1.1447
   84SAPS  C212 7939   2.322   1.675   9.897  0.0045  0.8298 -0.3045
   84SAPS  H12R 7940   2.360   1.659   9.795 -0.5567  0.0647 -0.4035
   84SAPS  C213 7941   2.176   1.645   9.906 -0.8420 -0.4959  0.3801
   84SAPS  H13R 7942   2.122   1.728   9.857  0.8543  0.2975 -0.2128
   84SAPS  H13S 7943   2.144   1.643  10.012 -1.1944  0.3578  0.2873
   84SAPS  C214 7944   2.135   1.514   9.847 -0.0681  0.7423 -0.8345
   84SAPS  H14R 7945   2.151   1.428   9.914 -0.6952  0.5353 -0.9501
   84SAPS  C215 7946   2.091   1.487   9.721 -0.3911 -0.3605 -0.3028
   84SAPS  H15R 7947   2.058   1.386   9.693  4.4153 -2.1315 -0.0548
   84SAPS  C216 7948   2.079   1.599   9.613  0.6904 -0.2673 -0.8722
   84SAPS  H16R 7949   2.136   1.688   9.647 -0.5140  0.6673 -1.2291
   84SAPS  H16S 7950   1.974   1.636   9.613 -0.0261 -2.2125  1.0934
   84SAPS  C217 7951   2.132   1.556   9.475 -0.2318 -0.0963  0.3411
   84SAPS  H17R 7952   2.053   1.493   9.429  0.0858 -1.2955  1.4017
   84SAPS  H17S 7953   2.217   1.486   9.487  0.5334  0.1670 -2.9949
   84SAPS  C218 7954   2.186   1.656   9.380  0.0631  0.2762 -0.0926
   84SAPS  H18R 7955   2.293   1.683   9.391  0.0308  1.2432 -1.9677
   84SAPS  H18S 7956   2.129   1.745   9.416  0.4418  0.1518  0.8418
   84SAPS  C219 7957   2.171   1.617   9.231  0.2528 -0.3379 -0.1730
   84SAPS  H19R 7958   2.062   1.618   9.208  0.1605  0.5908  0.2527
   84SAPS  H19S 7959   2.203   1.513   9.213 -1.4349 -0.7259 -1.0730
   84SAPS  C220 7960   2.244   1.719   9.147 -0.3177 -0.2450  0.3698
   84SAPS  H20R 7961   2.192   1.817   9.142 -1.7274 -1.0629 -1.2102
   84SAPS  H20S 7962   2.264   1.685   9.043  1.3208  1.5912  0.0460
   84SAPS  H20T 7963   2.345   1.734   9.193 -1.2568 -0.2040  2.4646
   84SAPS   C33 7964   1.501   1.001  10.458  0.0968 -0.1870 -0.1019
   84SAPS   H3X 7965   1.443   0.986  10.551 -0.2122  1.8082  0.0365
   84SAPS   H3Y 7966   1.563   0.910  10.437  0.0862 -0.4760  1.0969
   84SAPS   C34 7967   1.391   1.014  10.358 -0.0270 -0.4044  0.4951
   84SAPS   H4X 7968   1.447   1.059  10.274  1.2142  0.5626  1.8274
   84SAPS   H4Y 7969   1.320   1.091  10.396  0.1055  0.4197 -0.8622
   84SAPS   C35 7970   1.311   0.881  10.324  0.5672  0.4326  0.0330
   84SAPS   H5X 7971   1.245   0.900  10.236 -0.1296 -0.7173  0.3006
   84SAPS   H5Y 7972   1.238   0.855  10.404 -2.0653 -1.7897 -2.9018
   84SAPS   C36 7973   1.404   0.764  10.286  0.0866  0.4696  0.1620
   84SAPS   H6X 7974   1.338   0.676  10.289  1.9476 -0.8969  3.0279
   84SAPS   H6Y 7975   1.464   0.754  10.379 -1.8954 -0.8543  1.3191
   84SAPS   C37 7976   1.478   0.763  10.150  0.4293 -0.0456  0.0656
   84SAPS   H7X 7977   1.532   0.670  10.125  0.8043 -0.3085  1.8373
   84SAPS   H7Y 7978   1.555   0.842  10.147  1.0870 -0.6859  0.1092
   84SAPS   C38 7979   1.376   0.800  10.039  0.0256 -0.4885  0.6367
   84SAPS   H8X 7980   1.336   0.903  10.048 -0.6294 -0.6360 -0.5408
   84SAPS   H8Y 7981   1.300   0.720  10.051 -0.6960  0.0638 -0.2707
   84SAPS   C39 7982   1.445   0.797   9.896  0.5489 -0.1043  0.0253
   84SAPS   H9X 7983   1.489   0.697   9.876 -2.7912 -1.2983 -1.7544
   84SAPS   H9Y 7984   1.523   0.875   9.887 -0.2846  0.5911 -1.1814
   84SAPS  C310 7985   1.339   0.811   9.784  0.4344 -0.4009  0.0318
   84SAPS  H10X 7986   1.291   0.909   9.805 -0.7115 -1.2639  1.5394
   84SAPS  H10Y 7987   1.266   0.731   9.808  0.1913 -0.2836 -0.3278
   84SAPS  C311 7988   1.376   0.809   9.643 -0.3644 -1.0353 -0.8816
   84SAPS  H11X 7989   1.433   0.719   9.610  0.8402 -0.6654  0.1548
   84SAPS  H11Y 7990   1.430   0.904   9.624  0.9239 -2.0581 -2.4901
   84SAPS  C312 7991   1.260   0.808   9.546  0.1262  0.0558  0.0629
   84SAPS  H12X 7992   1.211   0.907   9.554 -1.0695 -0.4974 -0.3972
   84SAPS  H12Y 7993   1.193   0.723   9.569 -2.1630  2.0315  0.8869
   84SAPS  C313 7994   1.296   0.793   9.393  0.0020 -0.9906  0.9072
   84SAPS  H13X 7995   1.350   0.697   9.379  1.4105 -0.0052 -0.4763
   84SAPS  H13Y 7996   1.360   0.878   9.361 -1.4711  0.0752  0.7253
   84SAPS  C314 7997   1.164   0.797   9.307  0.1893  0.8775  0.2042
   84SAPS  H14X 7998   1.176   0.880   9.235 -1.8078  2.1910  1.3688
   84SAPS  H14Y 7999   1.071   0.812   9.366 -0.7122  0.4520 -1.0876
   84SAPS  C315 8000   1.155   0.673   9.209 -0.4247 -0.3263 -0.0086
   84SAPS  H15X 8001   1.145   0.587   9.278 -0.6803 -0.0131  0.3427
   84SAPS  H15Y 8002   1.244   0.652   9.146 -0.4925 -2.8725  0.6662
   84SAPS  C316 8003   1.019   0.686   9.133 -0.1258 -0.1262  0.0543
   84SAPS  H16X 8004   1.017   0.770   9.061 -1.2075  0.8840  1.2292
   84SAPS  H16Y 8005   0.948   0.703   9.217 -0.1525  0.0198  0.0019
   84SAPS  C317 8006   0.990   0.552   9.058  1.1654 -0.8235 -0.4995
   84SAPS  H17X 8007   0.985   0.476   9.139 -0.6059  0.2860  0.4676
   84SAPS  H17Y 8008   1.079   0.531   8.996  2.2548  2.1767 -0.0694
   84SAPS  C318 8009   0.861   0.554   8.984 -0.3915 -0.0446  0.7839
   84SAPS  H18X 8010   0.792   0.632   9.023 -1.8426  0.0287 -1.8329
   84SAPS  H18Y 8011   0.807   0.461   9.009  3.2839 -2.2068  1.0484
   84SAPS  H18Z 8012   0.856   0.563   8.873  0.2615 -2.7421  0.5170
   85SAPS     N 8013   5.210   2.980  10.722 -0.0713  0.6594  0.7032
   85SAPS   HN1 8014   5.298   2.948  10.678 -2.1209 -1.8929 -1.6921
   85SAPS   HN2 8015   5.134   2.916  10.690 -0.1372  1.0667  0.0556
   85SAPS   HN3 8016   5.185   3.066  10.669  2.2442 -0.0221 -1.5994
   85SAPS   C12 8017   5.211   2.990  10.875  0.2824  0.5621 -0.3000
   85SAPS  H12A 8018   5.111   3.026  10.896 -0.4801 -0.2384 -2.3390
   85SAPS   C13 8019   5.233   2.857  10.958  0.2061  0.5020  0.1350
   85SAPS  O13A 8020   5.271   2.757  10.895  0.1622 -0.4646  0.4386
   85SAPS  O13B 8021   5.227   2.864  11.081  0.1658 -0.0764 -0.1660
   85SAPS   C11 8022   5.317   3.101  10.897 -0.2818  0.0227  0.2399
   85SAPS  H11A 8023   5.407   3.047  10.860 -0.0611  0.6535 -0.1518
   85SAPS  H11B 8024   5.340   3.120  11.005  0.6062  0.8734 -0.0838
   85SAPS     P 8025   5.419   3.321  10.810 -0.1591  0.2252  0.2939
   85SAPS   O13 8026   5.365   3.458  10.812  1.1093  0.3731  0.6448
   85SAPS   O14 8027   5.527   3.285  10.903 -0.1012 -0.2156  0.4658
   85SAPS   O12 8028   5.294   3.223  10.824 -0.4205 -0.4348 -0.1752
   85SAPS   O11 8029   5.480   3.288  10.673 -0.4997  0.3763 -0.0159
   85SAPS    C1 8030   5.429   3.351  10.546  0.0602  0.0673  0.1236
   85SAPS    HA 8031   5.483   3.300  10.463 -1.7013 -0.4986 -0.6983
   85SAPS    HB 8032   5.321   3.335  10.527  0.6495 -0.8543 -2.8174
   85SAPS    C2 8033   5.461   3.503  10.522 -0.4825 -0.1854 -0.3227
   85SAPS    HS 8034   5.404   3.546  10.607 -1.7113 -1.8779 -0.2739
   85SAPS   O21 8035   5.414   3.546  10.399  0.5872 -0.4342  0.1685
   85SAPS   C21 8036   5.382   3.672  10.383  0.1246 -0.5417  0.2721
   85SAPS   O22 8037   5.377   3.752  10.474  0.0119  0.6938  0.1143
   85SAPS   C22 8038   5.366   3.709  10.236 -0.5783  0.1383 -0.1078
   85SAPS   H2R 8039   5.407   3.812  10.229  1.2436 -0.5673 -0.0721
   85SAPS   H2S 8040   5.419   3.645  10.163  0.1191  3.2685 -2.4652
   85SAPS    C3 8041   5.611   3.543  10.542 -1.0285  0.4894  0.4433
   85SAPS    HX 8042   5.646   3.528  10.646 -1.0625 -0.3186  0.3413
   85SAPS    HY 8043   5.617   3.648  10.506 -0.1422  1.0065  2.0809
   85SAPS   O31 8044   5.681   3.457  10.452 -0.2268 -0.1818  0.0163
   85SAPS   C31 8045   5.811   3.449  10.471 -0.1756 -0.6968  0.2060
   85SAPS   O32 8046   5.873   3.527  10.544 -0.0699 -0.0338  0.2236
   85SAPS   C32 8047   5.876   3.323  10.407 -0.0303  0.5469  0.1439
   85SAPS   H2X 8048   5.792   3.252  10.401  0.7268 -0.6055  2.5702
   85SAPS   H2Y 8049   5.949   3.269  10.470  0.9403  2.9868  1.1872
   85SAPS   C23 8050   5.217   3.699  10.186  0.4761 -0.6403  0.4489
   85SAPS   H3R 8051   5.148   3.753  10.254  1.9098  2.0524 -0.1733
   85SAPS   H3S 8052   5.179   3.596  10.202 -1.0025 -0.0375  0.9175
   85SAPS   C24 8053   5.201   3.751  10.047  0.3196  0.2432 -0.1114
   85SAPS   H4R 8054   5.243   3.853  10.042 -2.8577  1.5802 -0.5667
   85SAPS   H4S 8055   5.094   3.773  10.026  0.0635 -0.2144  0.6757
   85SAPS   C25 8056   5.243   3.646   9.949 -1.0278  0.2910  0.8878
   85SAPS   H5R 8057   5.305   3.562   9.983 -1.7416 -0.9963 -0.8600
   85SAPS   C26 8058   5.197   3.637   9.822  0.5288 -0.0072 -0.0034
   85SAPS   H6R 8059   5.243   3.565   9.752 -0.5237  2.1086 -2.9875
   85SAPS   C27 8060   5.089   3.718   9.759  0.7058 -0.6907 -0.9844
   85SAPS   H7R 8061   5.120   3.745   9.656  2.6260  0.6470 -0.0889
   85SAPS   H7S 8062   5.070   3.810   9.819 -0.3726 -1.6425  0.1851
   85SAPS   C28 8063   4.954   3.646   9.766  0.0225  0.4531  0.3734
   85SAPS   H8R 8064   4.910   3.645   9.867 -0.4697 -0.0851  0.1556
   85SAPS   C29 8065   4.893   3.581   9.669 -0.3002  1.2854  0.8277
   85SAPS   H9R 8066   4.806   3.521   9.700 -0.9793  2.3561  1.0274
   85SAPS  C210 8067   4.941   3.565   9.529  0.1176  0.4812  0.2580
   85SAPS  H10R 8068   4.935   3.458   9.503  1.0046  0.1676  1.2822
   85SAPS  H10S 8069   5.047   3.600   9.523  0.9412 -2.4658 -3.4205
   85SAPS  C211 8070   4.859   3.652   9.430 -0.0980 -0.1452  0.6443
   85SAPS  H11R 8071   4.752   3.664   9.450 -0.1583  0.6202 -0.1196
   85SAPS  C212 8072   4.898   3.695   9.315 -0.0569 -0.2644 -0.4038
   85SAPS  H12R 8073   4.831   3.757   9.254  0.6753 -0.4747 -1.4350
   85SAPS  C213 8074   5.037   3.681   9.259  0.2874 -0.1689  0.4931
   85SAPS  H13R 8075   5.079   3.588   9.302  0.6955 -0.8495 -1.3052
   85SAPS  H13S 8076   5.096   3.766   9.297 -0.8104  0.8375 -0.0070
   85SAPS  C214 8077   5.039   3.673   9.111  0.0629 -0.2264 -0.1124
   85SAPS  H14R 8078   5.024   3.578   9.057  0.8280  0.6503 -1.9158
   85SAPS  C215 8079   5.067   3.783   9.037 -0.2382  0.0747 -0.6006
   85SAPS  H15R 8080   5.077   3.765   8.929 -2.7370 -2.1673 -0.5093
   85SAPS  C216 8081   5.089   3.924   9.096  0.6083 -0.1936  0.1959
   85SAPS  H16R 8082   5.045   3.938   9.197  1.1995 -1.3166  0.6216
   85SAPS  H16S 8083   5.051   4.005   9.030 -2.0416 -2.0572 -0.6875
   85SAPS  C217 8084   5.239   3.947   9.117 -0.1271  0.2373 -0.4631
   85SAPS  H17R 8085   5.308   3.935   9.031  0.9755 -1.0546  0.5778
   85SAPS  H17S 8086   5.272   3.880   9.199 -0.7833  0.6248  0.1223
   85SAPS  C218 8087   5.257   4.096   9.167 -0.3618 -0.2338 -0.5551
   85SAPS  H18R 8088   5.357   4.110   9.214 -0.0454  1.5289 -1.6829
   85SAPS  H18S 8089   5.180   4.120   9.243 -0.1161 -0.6534 -0.1699
   85SAPS  C219 8090   5.246   4.202   9.060  0.7938  0.1917 -0.1304
   85SAPS  H19R 8091   5.145   4.196   9.014  0.8468 -0.6925 -0.1347
   85SAPS  H19S 8092   5.322   4.188   8.981 -1.2828 -0.3723 -2.0933
   85SAPS  C220 8093   5.264   4.342   9.128  0.0714 -0.2862  0.0374
   85SAPS  H20R 8094   5.371   4.351   9.156 -0.0095  1.2510 -0.0827
   85SAPS  H20S 8095   5.185   4.352   9.204  0.7322 -2.3241  1.0256
   85SAPS  H20T 8096   5.257   4.409   9.039 -1.3084 -2.0271 -1.1862
   85SAPS   C33 8097   5.942   3.346  10.275 -0.0469 -0.1548  0.0306
   85SAPS   H3X 8098   5.859   3.377  10.208 -0.1963  1.2365  0.8590
   85SAPS   H3Y 8099   5.983   3.248  10.242  2.5503  0.5766  0.9322
   85SAPS   C34 8100   6.049   3.456  10.268 -0.0172 -0.2604 -0.2188
   85SAPS   H4X 8101   6.017   3.550  10.317  1.6899 -0.9427  2.2974
   85SAPS   H4Y 8102   6.064   3.476  10.160  2.9697 -0.9516  0.0101
   85SAPS   C35 8103   6.185   3.420  10.328  0.4399 -0.0988  0.5133
   85SAPS   H5X 8104   6.167   3.363  10.421  2.8132 -3.7549 -1.1387
   85SAPS   H5Y 8105   6.237   3.514  10.354  1.6352 -0.5427 -0.2199
   85SAPS   C36 8106   6.279   3.339  10.234  0.6348 -0.4824  0.3477
   85SAPS   H6X 8107   6.216   3.278  10.166  2.3457  0.4182 -2.1301
   85SAPS   H6Y 8108   6.331   3.265  10.298 -0.3437 -1.4732  0.0074
   85SAPS   C37 8109   6.373   3.430  10.147  0.1045 -0.2286  0.3235
   85SAPS   H7X 8110   6.424   3.505  10.212  1.1235  0.4384 -1.2301
   85SAPS   H7Y 8111   6.311   3.489  10.077  1.6464 -0.0732 -0.9348
   85SAPS   C38 8112   6.463   3.329  10.078  0.7128  0.5144 -0.2965
   85SAPS   H8X 8113   6.413   3.264  10.004 -2.4673  0.7338  1.5776
   85SAPS   H8Y 8114   6.501   3.253  10.151 -2.2251 -3.2947 -2.5330
   85SAPS   C39 8115   6.574   3.401   9.998  0.0017 -0.5089  0.1257
   85SAPS   H9X 8116   6.647   3.325   9.963  1.0378 -0.2895  1.7694
   85SAPS   H9Y 8117   6.633   3.472  10.060  0.6389 -1.6758  0.8855
   85SAPS  C310 8118   6.514   3.464   9.875  0.0271 -0.2313 -0.1095
   85SAPS  H10X 8119   6.450   3.546   9.914  1.0842  0.9669 -0.8465
   85SAPS  H10Y 8120   6.449   3.392   9.821 -0.0927 -0.6316  0.5631
   85SAPS  C311 8121   6.623   3.509   9.779  0.0203  0.4067  0.1768
   85SAPS  H11X 8122   6.669   3.415   9.741 -0.8772  0.5708 -1.3564
   85SAPS  H11Y 8123   6.703   3.570   9.827 -0.6342  1.3524  0.0710
   85SAPS  C312 8124   6.570   3.603   9.670  0.7237 -0.3944 -0.0370
   85SAPS  H12X 8125   6.531   3.683   9.736 -0.0235 -2.0983  1.6159
   85SAPS  H12Y 8126   6.484   3.559   9.615 -1.0804 -0.6339  2.8747
   85SAPS  C313 8127   6.675   3.645   9.565  0.2097 -0.3234  0.1393
   85SAPS  H13X 8128   6.754   3.691   9.629 -1.7693  1.2266  1.5464
   85SAPS  H13Y 8129   6.637   3.722   9.495  0.7365  0.5759  0.8229
   85SAPS  C314 8130   6.743   3.539   9.488  0.1623  0.0637 -0.1341
   85SAPS  H14X 8131   6.677   3.487   9.415  1.3407 -3.3031  1.1000
   85SAPS  H14Y 8132   6.776   3.454   9.552 -0.3071 -1.3106 -1.6679
   85SAPS  C315 8133   6.866   3.590   9.413 -0.2719  0.5675  0.2557
   85SAPS  H15X 8134   6.916   3.503   9.365  3.2286  1.8774  1.3546
   85SAPS  H15Y 8135   6.943   3.642   9.474  1.3283  0.8557 -1.9272
   85SAPS  C316 8136   6.825   3.685   9.302 -0.0080 -0.0490  0.2053
   85SAPS  H16X 8137   6.911   3.723   9.243 -1.1837  2.4246  0.0133
   85SAPS  H16Y 8138   6.778   3.779   9.338  1.5609  0.6328  0.4818
   85SAPS  C317 8139   6.733   3.628   9.200 -0.6088 -0.6882  0.2453
   85SAPS  H17X 8140   6.626   3.630   9.229 -0.6116 -1.5388  0.3154
   85SAPS  H17Y 8141   6.752   3.519   9.188  0.9464 -0.4442  0.3985
   85SAPS  C318 8142   6.745   3.699   9.061  0.2663  0.5975 -0.2238
   85SAPS  H18X 8143   6.680   3.643   8.990 -0.4669  0.1226  0.8198
   85SAPS  H18Y 8144   6.848   3.695   9.019  0.2278 -0.7638 -0.1898
   85SAPS  H18Z 8145   6.693   3.798   9.064 -0.0992  0.4065 -0.2206
   86SAPS     N 8146   0.316   3.452  10.958 -0.1656  0.6604  0.0434
   86SAPS   HN1 8147   0.306   3.536  11.019  2.7136  0.8465  0.3558
   86SAPS   HN2 8148   0.406   3.469  10.908  1.1055 -2.3236  1.1748
   86SAPS   HN3 8149   0.245   3.447  10.883  0.3542 -2.9658 -0.2848
   86SAPS   C12 8150   0.320   3.316  11.029 -0.4925  0.2157  0.6664
   86SAPS  H12A 8151   0.352   3.327  11.131  0.8680  1.5758  0.1130
   86SAPS   C13 8152   0.182   3.238  11.037  0.0844  0.0088 -1.2042
   86SAPS  O13A 8153   0.086   3.296  10.979 -0.0021 -0.4706 -0.0979
   86SAPS  O13B 8154   0.196   3.118  11.076  0.0983 -0.4285  0.0057
   86SAPS   C11 8155   0.425   3.222  10.958 -0.1788  0.4623  0.4699
   86SAPS  H11A 8156   0.375   3.177  10.869  1.9132  3.0077 -2.1006
   86SAPS  H11B 8157   0.448   3.139  11.028 -1.4550 -2.8657 -2.8514
   86SAPS     P 8158   0.658   3.192  10.869 -0.0721  0.3694 -0.0209
   86SAPS   O13 8159   0.770   3.279  10.824  0.1426 -0.2756 -0.1863
   86SAPS   O14 8160   0.686   3.092  10.977  0.1355 -0.6130  0.4961
   86SAPS   O12 8161   0.543   3.284  10.923  0.3920 -0.1367 -0.1811
   86SAPS   O11 8162   0.580   3.123  10.745  0.2140  0.2497  0.0552
   86SAPS    C1 8163   0.550   3.197  10.627  0.2447  0.4451  1.1721
   86SAPS    HA 8164   0.443   3.176  10.608  0.1149  2.3662 -0.3708
   86SAPS    HB 8165   0.552   3.306  10.646  0.5230  0.4792  0.9518
   86SAPS    C2 8166   0.630   3.167  10.503  0.6067 -0.7546  1.0679
   86SAPS    HS 8167   0.563   3.195  10.419 -0.1312  0.1323  1.9415
   86SAPS   O21 8168   0.663   3.027  10.492  0.3053  0.1115 -0.8587
   86SAPS   C21 8169   0.619   2.955  10.390  0.3540  0.3828 -0.5311
   86SAPS   O22 8170   0.535   2.983  10.309  0.1449 -0.3810  0.2583
   86SAPS   C22 8171   0.684   2.819  10.398 -0.9997 -0.4268  0.1471
   86SAPS   H2R 8172   0.663   2.759  10.489 -3.6915  3.6662  2.3672
   86SAPS   H2S 8173   0.643   2.755  10.317  0.4059  0.0139 -0.9314
   86SAPS    C3 8174   0.766   3.247  10.510  0.5059 -0.1229  0.1716
   86SAPS    HX 8175   0.830   3.197  10.585 -0.3239  0.0873  1.0327
   86SAPS    HY 8176   0.738   3.341  10.562 -0.1236 -0.1191 -0.1670
   86SAPS   O31 8177   0.829   3.261  10.380  0.6936  0.1129  0.3291
   86SAPS   C31 8178   0.784   3.362  10.309  0.0936  0.1593  0.8377
   86SAPS   O32 8179   0.699   3.445  10.335 -0.3190 -0.2641 -0.3036
   86SAPS   C32 8180   0.860   3.358  10.181 -0.0844  0.6543 -0.4741
   86SAPS   H2X 8181   0.864   3.252  10.149 -0.3032  0.5149 -0.0488
   86SAPS   H2Y 8182   0.964   3.395  10.194  0.5488 -0.6394 -1.7142
   86SAPS   C23 8183   0.836   2.831  10.376  0.7395  0.7477  0.7207
   86SAPS   H3R 8184   0.868   2.726  10.357  0.3427  0.6757  0.4341
   86SAPS   H3S 8185   0.887   2.871  10.466  0.7239  1.6733  0.3265
   86SAPS   C24 8186   0.880   2.917  10.248 -0.3872 -0.2841 -0.0151
   86SAPS   H4R 8187   0.985   2.952  10.255  0.4491 -2.4094 -1.6098
   86SAPS   H4S 8188   0.832   3.018  10.248 -0.3340 -0.2569  0.2122
   86SAPS   C25 8189   0.852   2.842  10.116 -0.2629 -0.4739 -0.3782
   86SAPS   H5R 8190   0.795   2.750  10.135  1.4792 -1.6956 -0.8930
   86SAPS   C26 8191   0.892   2.880   9.993  0.6749 -0.4476  0.0346
   86SAPS   H6R 8192   0.861   2.816   9.909 -1.6599  0.2566  0.3270
   86SAPS   C27 8193   0.971   3.005   9.961  0.4438  0.2526 -0.1270
   86SAPS   H7R 8194   0.954   3.084  10.037 -1.6597  1.5901 -1.9208
   86SAPS   H7S 8195   0.935   3.042   9.862  0.0598  0.1368 -0.0308
   86SAPS   C28 8196   1.126   2.983   9.954  0.3247  0.7386  0.2846
   86SAPS   H8R 8197   1.166   2.949  10.051 -0.6836  1.4721  0.9834
   86SAPS   C29 8198   1.219   3.018   9.862  0.5311 -0.2275  1.3512
   86SAPS   H9R 8199   1.324   2.994   9.882  0.0497 -1.4107  2.5645
   86SAPS  C210 8200   1.201   3.096   9.727  0.1164  0.6310 -0.3323
   86SAPS  H10R 8201   1.092   3.105   9.706 -0.1825 -2.9531 -0.5457
   86SAPS  H10S 8202   1.246   3.030   9.651 -3.5175 -1.1348 -1.0916
   86SAPS  C211 8203   1.269   3.226   9.708 -0.2039  0.1706  0.1735
   86SAPS  H11R 8204   1.339   3.259   9.787  0.5270  2.9624 -1.5493
   86SAPS  C212 8205   1.254   3.293   9.592 -0.5308  0.1466 -0.1210
   86SAPS  H12R 8206   1.299   3.391   9.571 -0.0118  0.0907  0.7333
   86SAPS  C213 8207   1.161   3.247   9.481 -0.4902  0.9463  0.8252
   86SAPS  H13R 8208   1.059   3.231   9.522 -0.4598  0.7674  0.8309
   86SAPS  H13S 8209   1.197   3.146   9.453 -1.0536  1.4184 -1.7488
   86SAPS  C214 8210   1.156   3.348   9.369  0.9719 -0.0429  0.3134
   86SAPS  H14R 8211   1.140   3.452   9.403 -0.3530  0.4677 -1.7597
   86SAPS  C215 8212   1.149   3.327   9.236  0.6847 -0.3800 -0.9120
   86SAPS  H15R 8213   1.152   3.415   9.171  0.7643  0.3357  0.0627
   86SAPS  C216 8214   1.136   3.195   9.165 -0.0154 -1.0866  0.0951
   86SAPS  H16R 8215   1.030   3.161   9.165 -0.0849 -0.8702  0.8655
   86SAPS  H16S 8216   1.189   3.109   9.209  0.8358 -0.7849 -0.3309
   86SAPS  C217 8217   1.186   3.215   9.018  0.0380  0.3465  0.0022
   86SAPS  H17R 8218   1.153   3.122   8.967 -0.7748  0.3965  0.4113
   86SAPS  H17S 8219   1.295   3.231   9.020  0.2720 -1.3087  1.5088
   86SAPS  C218 8220   1.121   3.337   8.943 -0.2980 -0.7327  0.1935
   86SAPS  H18R 8221   1.178   3.431   8.960 -0.0118 -0.4470 -2.1670
   86SAPS  H18S 8222   1.021   3.339   8.991 -1.4895  0.3591 -2.2233
   86SAPS  C219 8223   1.114   3.317   8.788  0.0398  0.0537 -0.3967
   86SAPS  H19R 8224   1.066   3.410   8.751  0.2236  0.8479  1.3296
   86SAPS  H19S 8225   1.045   3.230   8.783  1.4173 -1.0564 -0.6299
   86SAPS  C220 8226   1.251   3.297   8.720 -0.2447  0.8308 -0.4221
   86SAPS  H20R 8227   1.307   3.390   8.746  1.3942 -0.3616  0.3554
   86SAPS  H20S 8228   1.230   3.295   8.611 -0.3051 -2.1737 -0.3896
   86SAPS  H20T 8229   1.310   3.211   8.758 -2.1479  0.8272  2.6380
   86SAPS   C33 8230   0.810   3.441  10.069  0.0207 -0.1754 -0.1630
   86SAPS   H3X 8231   0.830   3.547  10.092 -0.3929 -0.3999  1.2555
   86SAPS   H3Y 8232   0.699   3.433  10.060  0.1912 -1.4711 -1.4316
   86SAPS   C34 8233   0.869   3.387   9.936  0.6554 -0.1209  0.2327
   86SAPS   H4X 8234   0.823   3.289   9.915  0.1785 -0.3622  2.2778
   86SAPS   H4Y 8235   0.978   3.374   9.953  0.6919  0.5172  0.5114
   86SAPS   C35 8236   0.833   3.473   9.812 -0.7557  0.3581  0.3703
   86SAPS   H5X 8237   0.859   3.581   9.822  2.3020 -0.4354  1.6302
   86SAPS   H5Y 8238   0.729   3.455   9.777 -0.1594 -0.5924 -0.9340
   86SAPS   C36 8239   0.917   3.443   9.681  0.4906 -0.4615 -0.1387
   86SAPS   H6X 8240   0.885   3.343   9.643  1.5884 -0.9720  0.2581
   86SAPS   H6Y 8241   1.024   3.427   9.709 -0.5668 -2.2909  3.1907
   86SAPS   C37 8242   0.905   3.539   9.555  0.1035 -0.4363  0.2848
   86SAPS   H7X 8243   0.801   3.576   9.544 -0.7288 -2.1011  2.1652
   86SAPS   H7Y 8244   0.936   3.481   9.466 -1.5529  2.2008 -2.1065
   86SAPS   C38 8245   1.002   3.653   9.565 -0.3319 -0.1943  1.1777
   86SAPS   H8X 8246   1.107   3.617   9.566 -0.3536 -0.4609 -1.3675
   86SAPS   H8Y 8247   0.971   3.703   9.659 -0.2164 -0.0791  1.1549
   86SAPS   C39 8248   0.992   3.746   9.446  0.2029  0.6545  0.7692
   86SAPS   H9X 8249   0.884   3.772   9.440 -0.1198 -0.7419  0.4137
   86SAPS   H9Y 8250   1.017   3.682   9.359  0.0759 -0.0999  1.2777
   86SAPS  C310 8251   1.081   3.871   9.463  0.2005 -0.2051 -0.4505
   86SAPS  H10X 8252   1.180   3.836   9.500  0.7258  1.2443 -0.4675
   86SAPS  H10Y 8253   1.024   3.936   9.534 -0.4977  1.2651 -2.3318
   86SAPS  C311 8254   1.104   3.940   9.332  0.1388 -0.5432  0.2337
   86SAPS  H11X 8255   1.173   4.024   9.354 -0.3705  0.1914 -0.9688
   86SAPS  H11Y 8256   1.011   3.986   9.294  0.0469 -0.9992 -0.0999
   86SAPS  C312 8257   1.174   3.853   9.228 -0.4419  0.0588  0.3170
   86SAPS  H12X 8258   1.098   3.776   9.200 -0.7997  0.6778 -0.4355
   86SAPS  H12Y 8259   1.259   3.808   9.283  1.2014  3.0231  0.2802
   86SAPS  C313 8260   1.207   3.933   9.094 -0.0201  0.2920 -0.1364
   86SAPS  H13X 8261   1.245   4.031   9.129 -2.3237  0.5141  1.8557
   86SAPS  H13Y 8262   1.111   3.946   9.039 -1.1246 -2.0350  1.1287
   86SAPS  C314 8263   1.311   3.871   8.998 -0.0603  0.5573 -0.0545
   86SAPS  H14X 8264   1.303   3.760   9.007 -2.5775  0.8163  1.4605
   86SAPS  H14Y 8265   1.413   3.893   9.035 -0.4290  0.7617  0.8789
   86SAPS  C315 8266   1.301   3.935   8.858 -0.1659 -0.3012  0.6290
   86SAPS  H15X 8267   1.310   4.045   8.866 -1.0956  0.0614 -2.6026
   86SAPS  H15Y 8268   1.197   3.922   8.819  0.2369 -0.3004 -0.4564
   86SAPS  C316 8269   1.400   3.882   8.765  0.2726  0.0241 -0.2120
   86SAPS  H16X 8270   1.371   3.782   8.725  0.0650  0.4632 -1.1679
   86SAPS  H16Y 8271   1.501   3.857   8.805  0.2380 -0.2940 -0.3171
   86SAPS  C317 8272   1.429   3.982   8.651  0.3745  0.5854 -0.7009
   86SAPS  H17X 8273   1.499   4.058   8.694 -1.1073  0.7929  1.4038
   86SAPS  H17Y 8274   1.337   4.033   8.617 -1.3568 -2.7444 -1.1849
   86SAPS  C318 8275   1.501   3.914   8.531 -0.6312  0.3460 -0.3394
   86SAPS  H18X 8276   1.543   3.986   8.458 -0.0455 -0.7285 -1.0688
   86SAPS  H18Y 8277   1.422   3.862   8.472 -3.3972  1.9234  1.8280
   86SAPS  H18Z 8278   1.565   3.832   8.570  3.5640  3.4527 -0.4138
   87SAPS     N 8279   1.140   3.767  10.815 -0.6547 -0.0609  0.0083
   87SAPS   HN1 8280   1.178   3.692  10.754 -2.7543 -0.5448 -0.7396
   87SAPS   HN2 8281   1.065   3.823  10.769  1.5292  1.9978 -1.1860
   87SAPS   HN3 8282   1.216   3.836  10.833  0.1454 -0.7146 -0.7764
   87SAPS   C12 8283   1.097   3.717  10.949 -0.1107 -0.3015  0.6616
   87SAPS  H12A 8284   1.046   3.624  10.927  1.3592 -0.5714 -1.7478
   87SAPS   C13 8285   1.211   3.690  11.047 -1.0336  0.3927 -0.2509
   87SAPS  O13A 8286   1.324   3.747  11.041  0.2068  0.2296 -0.1922
   87SAPS  O13B 8287   1.180   3.624  11.147 -0.2412  0.4131  0.4912
   87SAPS   C11 8288   0.992   3.816  11.013  0.1303  0.1187  0.4179
   87SAPS  H11A 8289   1.050   3.909  11.032 -1.4531  1.0306  0.8805
   87SAPS  H11B 8290   0.952   3.783  11.111 -0.5041  2.3061  0.9353
   87SAPS     P 8291   0.736   3.840  10.956  0.3307  0.2213 -0.1661
   87SAPS   O13 8292   0.699   3.695  10.950  0.7053  0.5001  0.5730
   87SAPS   O14 8293   0.714   3.909  11.082 -0.0132 -0.0157  0.7621
   87SAPS   O12 8294   0.887   3.847  10.919 -0.5950  0.5121 -0.2857
   87SAPS   O11 8295   0.685   3.932  10.839  0.2730 -0.1601  0.5075
   87SAPS    C1 8296   0.720   3.913  10.695 -0.4571 -0.1091 -0.0906
   87SAPS    HA 8297   0.784   3.996  10.659 -1.4111 -0.0384 -1.6692
   87SAPS    HB 8298   0.780   3.823  10.670 -2.3571 -2.6811  3.9752
   87SAPS    C2 8299   0.596   3.903  10.608  0.1707  0.0014 -0.1917
   87SAPS    HS 8300   0.528   3.826  10.648  0.0164 -0.1090 -0.6562
   87SAPS   O21 8301   0.630   3.868  10.468  0.0338 -0.0998  0.1566
   87SAPS   C21 8302   0.527   3.826  10.396 -0.0466  0.3524 -1.1682
   87SAPS   O22 8303   0.415   3.804  10.440 -0.4165 -0.0127  0.4469
   87SAPS   C22 8304   0.562   3.831  10.251  0.2626 -0.0064  1.1041
   87SAPS   H2R 8305   0.575   3.938  10.223 -2.8228  0.5255  1.5057
   87SAPS   H2S 8306   0.656   3.776  10.229  0.1092  0.9024 -1.9531
   87SAPS    C3 8307   0.517   4.039  10.616  0.4489  1.0907  0.0343
   87SAPS    HX 8308   0.504   4.064  10.723  0.9250 -0.1408  0.3864
   87SAPS    HY 8309   0.418   4.026  10.568  0.1707  0.1995  0.8322
   87SAPS   O31 8310   0.598   4.146  10.570 -0.6659 -0.3550 -0.2335
   87SAPS   C31 8311   0.575   4.179  10.441  0.3668 -0.5643 -0.0443
   87SAPS   O32 8312   0.500   4.129  10.362  0.3435 -0.3168 -0.1491
   87SAPS   C32 8313   0.682   4.287  10.400 -0.6371  0.6043 -0.2693
   87SAPS   H2X 8314   0.778   4.232  10.398 -0.2554  1.2754 -0.7663
   87SAPS   H2Y 8315   0.676   4.372  10.472 -2.0292  0.7246 -0.5088
   87SAPS   C23 8316   0.445   3.778  10.157  0.0935  1.0531  0.6760
   87SAPS   H3R 8317   0.349   3.826  10.185 -0.2735  1.0687 -0.5834
   87SAPS   H3S 8318   0.441   3.667  10.165  0.6009  0.9344 -0.5564
   87SAPS   C24 8319   0.463   3.819  10.009  0.9163  0.2519  0.0838
   87SAPS   H4R 8320   0.551   3.765   9.968  0.3900  0.5498 -1.4733
   87SAPS   H4S 8321   0.494   3.925   9.998 -0.8805  0.6126 -1.9455
   87SAPS   C25 8322   0.339   3.794   9.925 -0.2491  1.3090  0.2523
   87SAPS   H5R 8323   0.248   3.840   9.965 -0.0572  1.7976  0.1232
   87SAPS   C26 8324   0.331   3.704   9.825  0.4914  1.1124  0.5385
   87SAPS   H6R 8325   0.232   3.691   9.778 -0.6765  1.9989  2.6908
   87SAPS   C27 8326   0.455   3.621   9.778  0.5397  0.1956 -0.0761
   87SAPS   H7R 8327   0.494   3.566   9.866 -2.1094 -2.6526 -0.6146
   87SAPS   H7S 8328   0.525   3.694   9.731  0.8330  1.2491  1.9225
   87SAPS   C28 8329   0.406   3.521   9.677  0.7295  0.1606  0.4654
   87SAPS   H8R 8330   0.356   3.439   9.730  0.1844  1.7300  2.4530
   87SAPS   C29 8331   0.424   3.523   9.544  0.9375 -0.1959  0.6158
   87SAPS   H9R 8332   0.374   3.443   9.488  1.9187 -0.7261  0.4870
   87SAPS  C210 8333   0.491   3.630   9.456 -0.3208  0.8526 -0.4976
   87SAPS  H10R 8334   0.600   3.637   9.476  0.0046 -0.1195 -1.8792
   87SAPS  H10S 8335   0.451   3.729   9.490  1.6499  1.0126  1.5167
   87SAPS  C211 8336   0.445   3.622   9.315  0.1501 -0.3742 -0.1045
   87SAPS  H11R 8337   0.337   3.613   9.296 -0.1352  0.4384  1.1024
   87SAPS  C212 8338   0.526   3.622   9.206  0.2621 -0.1570  0.2946
   87SAPS  H12R 8339   0.484   3.622   9.105  1.3939  0.3953 -0.1908
   87SAPS  C213 8340   0.680   3.640   9.203 -0.1378 -0.2609  0.7410
   87SAPS  H13R 8341   0.729   3.630   9.301  0.3319 -0.3093  0.5012
   87SAPS  H13S 8342   0.704   3.746   9.181  0.8454 -0.3428  1.4167
   87SAPS  C214 8343   0.758   3.545   9.108  0.0654 -0.8973 -0.7665
   87SAPS  H14R 8344   0.737   3.437   9.107  0.1418 -0.8993 -2.8952
   87SAPS  C215 8345   0.854   3.581   9.012  0.1009  0.4570  0.5332
   87SAPS  H15R 8346   0.901   3.501   8.953  2.6945 -0.6930  3.9578
   87SAPS  C216 8347   0.906   3.722   8.985  0.2103  0.7750  0.0022
   87SAPS  H16R 8348   1.016   3.731   8.969  0.5181  1.7164  2.3470
   87SAPS  H16S 8349   0.882   3.780   9.077  1.3712 -1.1119  1.5573
   87SAPS  C217 8350   0.846   3.790   8.863 -0.1764  0.0303 -0.1062
   87SAPS  H17R 8351   0.874   3.743   8.766  2.6381 -0.3254  0.8427
   87SAPS  H17S 8352   0.904   3.884   8.869  2.7880 -1.7209 -0.4074
   87SAPS  C218 8353   0.691   3.812   8.878  0.2482  0.4084 -0.6123
   87SAPS  H18R 8354   0.674   3.861   8.976 -1.7033  0.2449 -0.8518
   87SAPS  H18S 8355   0.641   3.713   8.875  0.5437  0.2272  0.2789
   87SAPS  C219 8356   0.622   3.873   8.761 -0.3444  0.1079  0.3348
   87SAPS  H19R 8357   0.514   3.852   8.777 -0.8591  1.6848 -0.8612
   87SAPS  H19S 8358   0.660   3.807   8.680 -0.1005 -1.7667  1.9510
   87SAPS  C220 8359   0.642   4.026   8.753  0.1881  0.0850 -0.3915
   87SAPS  H20R 8360   0.617   4.064   8.854  3.1567 -2.1416  1.2608
   87SAPS  H20S 8361   0.581   4.065   8.668  1.5242  0.3468 -1.2623
   87SAPS  H20T 8362   0.746   4.049   8.720  0.0761 -0.9846 -1.5310
   87SAPS   C33 8363   0.663   4.345  10.252 -0.6955 -0.3232 -0.1086
   87SAPS   H3X 8364   0.570   4.406  10.252  0.0839  0.8859  0.8654
   87SAPS   H3Y 8365   0.645   4.268  10.174 -0.6778  0.7752 -1.2236
   87SAPS   C34 8366   0.792   4.419  10.215 -0.3650 -0.8109 -1.0671
   87SAPS   H4X 8367   0.867   4.351  10.168  0.4358 -0.3801 -0.4019
   87SAPS   H4Y 8368   0.844   4.471  10.297 -2.1367  0.1389 -0.5256
   87SAPS   C35 8369   0.767   4.523  10.107 -0.0207  0.6912 -0.3703
   87SAPS   H5X 8370   0.859   4.552  10.052  1.9531  0.9221  2.8988
   87SAPS   H5Y 8371   0.725   4.620  10.141  0.4135  1.7444 -2.7478
   87SAPS   C36 8372   0.681   4.464   9.990  0.7235  0.8010  0.7530
   87SAPS   H6X 8373   0.576   4.439  10.013  0.5498  2.2696  1.6309
   87SAPS   H6Y 8374   0.726   4.369   9.954 -3.5878 -1.1070  0.1510
   87SAPS   C37 8375   0.665   4.553   9.870 -0.0671 -0.0704  0.2321
   87SAPS   H7X 8376   0.591   4.631   9.896 -0.9893 -1.2584  1.2649
   87SAPS   H7Y 8377   0.610   4.494   9.793 -2.4159  2.4563 -0.0964
   87SAPS   C38 8378   0.771   4.621   9.795 -0.0373 -0.3556  0.5948
   87SAPS   H8X 8379   0.869   4.568   9.786  0.4879  0.6147  0.5103
   87SAPS   H8Y 8380   0.799   4.716   9.846 -4.6386  2.6034 -2.0554
   87SAPS   C39 8381   0.729   4.648   9.652  0.3615 -0.1470  0.7289
   87SAPS   H9X 8382   0.642   4.717   9.664  0.4168 -0.0612  0.6321
   87SAPS   H9Y 8383   0.694   4.557   9.599  1.7160  0.8653 -2.0084
   87SAPS  C310 8384   0.836   4.724   9.573 -0.0158 -0.0845  0.2885
   87SAPS  H10X 8385   0.934   4.672   9.579  0.9182  1.2921 -2.1534
   87SAPS  H10Y 8386   0.856   4.822   9.622 -1.4967  0.5609 -0.3622
   87SAPS  C311 8387   0.797   4.742   9.427  0.1140 -0.0821 -0.0599
   87SAPS  H11X 8388   0.720   4.822   9.428  1.2732  1.0429  1.0859
   87SAPS  H11Y 8389   0.762   4.649   9.376 -1.3905  0.6097 -0.3070
   87SAPS  C312 8390   0.913   4.793   9.344  0.2902 -0.0800 -0.3733
   87SAPS  H12X 8391   0.993   4.717   9.357 -0.2496 -0.3592  1.4707
   87SAPS  H12Y 8392   0.947   4.890   9.385  0.8454  0.2510 -1.5991
   87SAPS  C313 8393   0.879   4.828   9.196 -0.0331  0.2574 -0.1232
   87SAPS  H13X 8394   0.808   4.912   9.208 -1.6099 -0.9616 -0.7938
   87SAPS  H13Y 8395   0.827   4.736   9.165  1.4782 -1.6130  2.6367
   87SAPS  C314 8396   0.999   4.855   9.098  0.2913  0.2444  0.0726
   87SAPS  H14X 8397   1.060   4.762   9.108  0.6446  0.3263 -1.1948
   87SAPS  H14Y 8398   1.061   4.938   9.138  2.4904 -1.0982 -0.4503
   87SAPS  C315 8399   0.958   4.877   8.950 -1.4684 -0.0170  0.0037
   87SAPS  H15X 8400   0.926   4.984   8.948  0.5930  0.6136 -0.6303
   87SAPS  H15Y 8401   0.871   4.814   8.922 -1.6988 -0.0953  0.8945
   87SAPS  C316 8402   1.077   4.855   8.853  0.4570  0.2357  0.2172
   87SAPS  H16X 8403   1.127   4.758   8.873  1.4966  0.8830  0.7780
   87SAPS  H16Y 8404   1.164   4.923   8.868  1.1182 -0.9461  1.8594
   87SAPS  C317 8405   1.035   4.870   8.707 -0.0280  1.1283  0.3652
   87SAPS  H17X 8406   0.962   4.789   8.684  0.5301  0.7168  0.0440
   87SAPS  H17Y 8407   1.125   4.846   8.647 -1.9856 -1.1226 -1.7737
   87SAPS  C318 8408   0.971   5.005   8.657  0.4236 -0.8668 -0.7236
   87SAPS  H18X 8409   0.925   5.011   8.556 -1.7001  3.8503  0.3751
   87SAPS  H18Y 8410   1.049   5.083   8.667 -0.2291 -0.3916  0.8199
   87SAPS  H18Z 8411   0.895   5.044   8.728  1.3486  0.8356 -0.6488
   88SAPS     N 8412   3.046   2.827  10.750 -0.9734 -0.1965  0.9351
   88SAPS   HN1 8413   3.036   2.724  10.764  1.8295 -0.9153 -1.8347
   88SAPS   HN2 8414   2.955   2.855  10.707 -0.3275 -0.9825 -1.0137
   88SAPS   HN3 8415   3.117   2.869  10.687 -0.3617 -0.2394  1.5884
   88SAPS   C12 8416   3.055   2.894  10.885  0.0517 -0.0391  0.2059
   88SAPS  H12A 8417   3.163   2.903  10.895  0.2597 -1.8348 -0.1949
   88SAPS   C13 8418   2.998   3.034  10.879  0.0728  0.9885 -0.9353
   88SAPS  O13A 8419   2.955   3.073  10.768  0.6863 -0.0808  0.2312
   88SAPS  O13B 8420   3.021   3.110  10.980  0.6978  0.6053  0.5237
   88SAPS   C11 8421   2.988   2.807  10.997 -0.2257  0.5627  0.4057
   88SAPS  H11A 8422   2.878   2.802  10.979 -0.3395 -1.0019  1.4321
   88SAPS  H11B 8423   3.011   2.864  11.089 -1.0648  0.9118  0.4049
   88SAPS     P 8424   2.984   2.534  10.947 -0.0647 -0.0059  0.4363
   88SAPS   O13 8425   2.869   2.493  11.022  0.3928  0.0734 -0.4032
   88SAPS   O14 8426   2.957   2.550  10.802 -0.1278 -0.0925 -0.3078
   88SAPS   O12 8427   3.046   2.677  10.997  0.5513 -0.0784 -0.5518
   88SAPS   O11 8428   3.099   2.429  10.960 -0.0331  0.6073  0.1658
   88SAPS    C1 8429   3.243   2.464  10.944  0.0591  0.8728  0.1269
   88SAPS    HA 8430   3.258   2.575  10.945 -0.8777  0.9968  0.3721
   88SAPS    HB 8431   3.307   2.420  11.023 -1.0444 -4.0164 -1.5738
   88SAPS    C2 8432   3.303   2.423  10.795 -0.1343  0.4351 -0.2557
   88SAPS    HS 8433   3.396   2.479  10.774  0.0087 -0.0731 -0.9845
   88SAPS   O21 8434   3.209   2.440  10.693  0.3151  0.2903 -0.1351
   88SAPS   C21 8435   3.198   2.554  10.633  0.7593 -0.1413 -0.7688
   88SAPS   O22 8436   3.268   2.653  10.660 -0.0935  0.1579  0.0157
   88SAPS   C22 8437   3.102   2.536  10.511 -0.3261 -0.1978 -0.1986
   88SAPS   H2R 8438   3.137   2.450  10.449  0.2020 -1.0784  1.2902
   88SAPS   H2S 8439   3.003   2.504  10.547 -0.2879 -0.6452 -0.4945
   88SAPS    C3 8440   3.356   2.272  10.795 -0.3796 -0.1545  0.0272
   88SAPS    HX 8441   3.278   2.198  10.823  1.3532 -1.1681  2.3440
   88SAPS    HY 8442   3.425   2.258  10.881 -2.0384  0.6963  1.5117
   88SAPS   O31 8443   3.431   2.242  10.669 -0.4355  0.2022 -0.1720
   88SAPS   C31 8444   3.365   2.212  10.561 -0.0915  0.5341  0.2252
   88SAPS   O32 8445   3.243   2.191  10.557  0.1255 -0.4436 -0.0227
   88SAPS   C32 8446   3.463   2.194  10.453 -0.0426  0.1249 -0.2518
   88SAPS   H2X 8447   3.521   2.103  10.481 -0.7034 -0.4504 -0.7328
   88SAPS   H2Y 8448   3.527   2.283  10.442 -0.7889  0.6481 -0.3884
   88SAPS   C23 8449   3.093   2.673  10.424  0.6484  0.2223  0.0538
   88SAPS   H3R 8450   3.196   2.713  10.411  0.5037  0.8628  0.7730
   88SAPS   H3S 8451   3.039   2.744  10.491  4.2955  0.2566  3.1771
   88SAPS   C24 8452   3.036   2.647  10.284  0.3760  0.1564  0.5856
   88SAPS   H4R 8453   2.936   2.602  10.299 -0.9318  3.0162  0.8275
   88SAPS   H4S 8454   3.105   2.570  10.244  0.5299  0.2314  0.7052
   88SAPS   C25 8455   3.025   2.771  10.197 -0.0491  0.0059  0.5614
   88SAPS   H5R 8456   3.112   2.838  10.202  0.3615 -0.6102  1.9387
   88SAPS   C26 8457   2.929   2.806  10.109 -0.4996  0.5081 -0.0122
   88SAPS   H6R 8458   2.946   2.892  10.043  0.1192  1.1178  0.9386
   88SAPS   C27 8459   2.801   2.729  10.069  0.0026 -0.5616  0.4439
   88SAPS   H7R 8460   2.737   2.711  10.158 -0.3806 -0.3984  0.2016
   88SAPS   H7S 8461   2.823   2.623  10.044  0.0599 -0.2845 -0.7097
   88SAPS   C28 8462   2.715   2.795   9.961  0.2915  0.0262  0.3229
   88SAPS   H8R 8463   2.649   2.873  10.001 -0.4864 -0.0338 -0.8421
   88SAPS   C29 8464   2.723   2.780   9.827 -0.0635 -0.1739 -0.1460
   88SAPS   H9R 8465   2.644   2.832   9.771 -1.3209  0.1598  1.8683
   88SAPS  C210 8466   2.820   2.695   9.746  0.6084  1.0466  0.2904
   88SAPS  H10R 8467   2.917   2.680   9.798  1.7259 -0.4703 -2.1590
   88SAPS  H10S 8468   2.846   2.736   9.646 -1.8051 -0.1725 -0.8732
   88SAPS  C211 8469   2.762   2.557   9.741  0.1038  0.1118  0.2254
   88SAPS  H11R 8470   2.781   2.496   9.830  3.6444  0.5827 -0.1244
   88SAPS  C212 8471   2.688   2.511   9.638  0.0337 -0.6211  0.1222
   88SAPS  H12R 8472   2.645   2.411   9.655  1.8987 -1.6344 -0.8492
   88SAPS  C213 8473   2.656   2.588   9.516  0.2677  0.9227  0.1060
   88SAPS  H13R 8474   2.679   2.518   9.433 -2.0346  2.8076 -2.1855
   88SAPS  H13S 8475   2.725   2.674   9.506  0.8512  0.5359  0.7267
   88SAPS  C214 8476   2.515   2.641   9.510  0.0861 -0.3431 -0.0590
   88SAPS  H14R 8477   2.497   2.744   9.544  1.8372  0.3109 -0.9979
   88SAPS  C215 8478   2.410   2.580   9.449 -0.0866  0.3281  1.0555
   88SAPS  H15R 8479   2.314   2.634   9.458 -0.3669  0.4706 -2.2529
   88SAPS  C216 8480   2.400   2.453   9.372  0.1646  0.7921 -0.1352
   88SAPS  H16R 8481   2.341   2.376   9.427  0.4179 -1.1205 -2.4704
   88SAPS  H16S 8482   2.494   2.400   9.348 -0.3927 -0.5738  0.6081
   88SAPS  C217 8483   2.351   2.475   9.227 -0.1643 -0.5911 -0.0872
   88SAPS  H17R 8484   2.373   2.392   9.157 -0.5299 -0.2117 -0.6491
   88SAPS  H17S 8485   2.419   2.558   9.196  1.8406 -1.9339  0.6030
   88SAPS  C218 8486   2.203   2.505   9.210 -0.5486 -0.2741 -0.0795
   88SAPS  H18R 8487   2.169   2.601   9.255 -2.3377 -0.4415 -1.0354
   88SAPS  H18S 8488   2.151   2.432   9.276 -0.5620 -1.6131 -1.5377
   88SAPS  C219 8489   2.167   2.515   9.060  0.1988 -0.3982 -0.4538
   88SAPS  H19R 8490   2.057   2.518   9.040  0.4631 -2.0789 -2.3417
   88SAPS  H19S 8491   2.202   2.421   9.012  1.1721  1.0669 -2.7102
   88SAPS  C220 8492   2.241   2.628   8.992  0.0525 -0.4924  0.1474
   88SAPS  H20R 8493   2.212   2.661   8.890  0.0054 -1.0894 -0.0368
   88SAPS  H20S 8494   2.350   2.632   9.013 -0.4040  1.2924  2.3949
   88SAPS  H20T 8495   2.218   2.722   9.046 -0.2390 -0.0773 -0.6929
   88SAPS   C33 8496   3.393   2.171  10.316 -0.5561 -0.0320  0.0673
   88SAPS   H3X 8497   3.323   2.254  10.292  1.7687  1.5907 -1.2635
   88SAPS   H3Y 8498   3.333   2.078  10.311 -0.5064 -0.1603  1.6128
   88SAPS   C34 8499   3.506   2.169  10.210 -0.1473  0.7584  0.0881
   88SAPS   H4X 8500   3.561   2.075  10.232  0.6221  1.4609  1.2025
   88SAPS   H4Y 8501   3.577   2.254  10.217  1.3428 -0.5664  1.2500
   88SAPS   C35 8502   3.454   2.184  10.065  0.4546 -0.1768 -0.8590
   88SAPS   H5X 8503   3.425   2.288  10.040 -2.4462 -0.9294 -0.7927
   88SAPS   H5Y 8504   3.357   2.130  10.058 -0.1947  0.7395  0.9045
   88SAPS   C36 8505   3.562   2.132   9.968 -0.2543 -0.6822 -0.4317
   88SAPS   H6X 8506   3.578   2.024   9.989  2.0204 -0.1733  0.6057
   88SAPS   H6Y 8507   3.657   2.183   9.994 -0.8097  0.6504 -0.9657
   88SAPS   C37 8508   3.534   2.170   9.821 -0.7687  0.5100 -0.2083
   88SAPS   H7X 8509   3.571   2.273   9.802 -2.9188  1.0406 -1.7710
   88SAPS   H7Y 8510   3.423   2.167   9.818 -0.7083 -1.6995 -0.8322
   88SAPS   C38 8511   3.607   2.081   9.719 -0.3017  0.4135  0.1504
   88SAPS   H8X 8512   3.573   1.977   9.703  1.0211  0.3153 -2.3042
   88SAPS   H8Y 8513   3.716   2.078   9.739  0.0413 -0.9359 -1.7509
   88SAPS   C39 8514   3.580   2.130   9.576  0.2309  0.1282  0.0648
   88SAPS   H9X 8515   3.609   2.236   9.557  0.6683 -0.2666 -1.5263
   88SAPS   H9Y 8516   3.471   2.116   9.562  0.3246 -1.4199  0.7290
   88SAPS  C310 8517   3.651   2.042   9.473 -0.1247 -0.3769 -0.4321
   88SAPS  H10X 8518   3.595   1.946   9.476 -0.2706 -0.3561 -1.8007
   88SAPS  H10Y 8519   3.759   2.022   9.489 -0.6567 -2.7039  0.3938
   88SAPS  C311 8520   3.633   2.103   9.328  0.4075 -0.4781 -0.2857
   88SAPS  H11X 8521   3.648   2.213   9.325 -1.0315 -0.2954 -1.9214
   88SAPS  H11Y 8522   3.527   2.084   9.300 -0.4893  1.1835  1.8443
   88SAPS  C312 8523   3.724   2.039   9.227 -0.0591 -0.1528 -0.1372
   88SAPS  H12X 8524   3.720   1.930   9.246  0.0968 -0.1969 -0.3505
   88SAPS  H12Y 8525   3.829   2.070   9.245 -0.5181 -0.0041  2.3831
   88SAPS  C313 8526   3.701   2.069   9.078 -0.0339  0.4505 -0.0414
   88SAPS  H13X 8527   3.596   2.046   9.050 -0.1306  2.3239 -1.3061
   88SAPS  H13Y 8528   3.779   2.007   9.030  0.5062 -0.1584  1.6108
   88SAPS  C314 8529   3.744   2.211   9.033 -0.6600 -0.4898  0.1392
   88SAPS  H14X 8530   3.837   2.236   9.089 -2.1652  3.0154  1.2159
   88SAPS  H14Y 8531   3.660   2.280   9.057 -0.3658  0.1100 -0.5547
   88SAPS  C315 8532   3.760   2.223   8.880  0.0820  0.3421  0.0311
   88SAPS  H15X 8533   3.765   2.330   8.852  2.9695  0.3701  0.5645
   88SAPS  H15Y 8534   3.668   2.183   8.831 -0.5237 -0.4483  1.7600
   88SAPS  C316 8535   3.883   2.146   8.845 -0.1934  0.1120 -0.3214
   88SAPS  H16X 8536   3.883   2.035   8.857 -1.6093 -0.1108 -2.1915
   88SAPS  H16Y 8537   3.969   2.180   8.907 -0.0089 -0.2106 -0.3981
   88SAPS  C317 8538   3.921   2.180   8.698  0.4656 -0.2773 -0.2523
   88SAPS  H17X 8539   3.952   2.286   8.686 -2.0552  0.6101  0.7272
   88SAPS  H17Y 8540   3.832   2.170   8.632  0.2217 -2.8320  0.4189
   88SAPS  C318 8541   4.024   2.089   8.632  0.0477  0.4414 -1.0552
   88SAPS  H18X 8542   4.116   2.092   8.696 -0.2320 -1.5461 -0.5273
   88SAPS  H18Y 8543   4.068   2.106   8.532  0.1295 -2.1411 -1.5032
   88SAPS  H18Z 8544   3.987   1.984   8.629 -2.5392  1.3166 -0.9119
   89SAPS     N 8545   2.756   5.723  11.217  0.1185  0.1441 -0.0409
   89SAPS   HN1 8546   2.809   5.800  11.262  1.0661 -0.9899  0.8177
   89SAPS   HN2 8547   2.719   5.768  11.131  1.4015  1.4373  0.0615
   89SAPS   HN3 8548   2.678   5.696  11.279  0.7397 -2.2426 -0.2283
   89SAPS   C12 8549   2.842   5.602  11.198  0.1206  0.3347 -0.8061
   89SAPS  H12A 8550   2.921   5.634  11.131 -0.4616  2.0579 -0.7094
   89SAPS   C13 8551   2.895   5.548  11.324 -0.2212 -0.6991 -0.6741
   89SAPS  O13A 8552   2.885   5.618  11.428 -0.6178  0.8130  0.5587
   89SAPS  O13B 8553   2.955   5.436  11.321 -0.3482  0.3107 -0.7197
   89SAPS   C11 8554   2.754   5.500  11.124  0.3246 -0.0807 -0.0912
   89SAPS  H11A 8555   2.667   5.482  11.190  1.4033 -1.1450  1.0758
   89SAPS  H11B 8556   2.813   5.407  11.104 -0.6968 -0.9472  0.8439
   89SAPS     P 8557   2.600   5.450  10.929 -0.3488  0.2678 -0.7559
   89SAPS   O13 8558   2.509   5.404  11.035 -0.2323  0.6606  0.0459
   89SAPS   O14 8559   2.540   5.511  10.807 -0.2798 -0.6628 -0.0586
   89SAPS   O12 8560   2.703   5.544  10.996 -0.0739 -0.1818  0.3412
   89SAPS   O11 8561   2.678   5.323  10.890 -1.0667 -0.1880 -0.0923
   89SAPS    C1 8562   2.799   5.332  10.799  1.9791  0.2116  0.8953
   89SAPS    HA 8563   2.865   5.416  10.829  1.1348  0.8238  1.0575
   89SAPS    HB 8564   2.861   5.242  10.816 -0.5035 -1.4275  1.6159
   89SAPS    C2 8565   2.754   5.340  10.652 -0.5388 -0.2086  0.3576
   89SAPS    HS 8566   2.701   5.434  10.624  0.1038 -0.1196 -0.5955
   89SAPS   O21 8567   2.677   5.214  10.625 -0.0621 -0.4551 -0.3566
   89SAPS   C21 8568   2.587   5.231  10.532  0.3207  0.7334 -0.5318
   89SAPS   O22 8569   2.556   5.340  10.473  0.1844 -0.1551  0.7435
   89SAPS   C22 8570   2.514   5.109  10.506  0.1085 -0.2114 -0.6530
   89SAPS   H2R 8571   2.489   5.062  10.603  3.2510 -2.0313 -0.6707
   89SAPS   H2S 8572   2.418   5.145  10.462  0.1780  2.0308  0.9213
   89SAPS    C3 8573   2.881   5.353  10.568  0.5149  0.7372 -0.0902
   89SAPS    HX 8574   2.946   5.268  10.597  1.2761  0.9347 -1.1735
   89SAPS    HY 8575   2.946   5.441  10.591  1.2357  0.0558  0.4777
   89SAPS   O31 8576   2.870   5.342  10.424 -0.0528 -0.4355  0.2877
   89SAPS   C31 8577   2.819   5.438  10.354 -0.6677  0.3948 -0.1028
   89SAPS   O32 8578   2.801   5.555  10.387  0.6915  0.7184 -0.0320
   89SAPS   C32 8579   2.798   5.393  10.214 -0.3931  0.3274  0.1308
   89SAPS   H2X 8580   2.710   5.445  10.172 -1.2819 -2.4722 -1.6088
   89SAPS   H2Y 8581   2.776   5.285  10.199 -3.2436  0.7889  0.8458
   89SAPS   C23 8582   2.592   5.014  10.412  0.0670 -0.2318  0.4519
   89SAPS   H3R 8583   2.589   4.924  10.476 -2.2698  0.8892  1.9791
   89SAPS   H3S 8584   2.700   5.034  10.391  0.2048 -1.2554  0.1839
   89SAPS   C24 8585   2.523   5.003  10.277  0.0125  0.3650 -0.3165
   89SAPS   H4R 8586   2.544   5.087  10.209  0.5460  0.1300 -0.4385
   89SAPS   H4S 8587   2.412   4.992  10.281  0.0230  0.7665  1.7456
   89SAPS   C25 8588   2.572   4.880  10.210  0.2983 -0.1268 -0.9903
   89SAPS   H5R 8589   2.583   4.793  10.276 -0.6359  0.2729 -0.2993
   89SAPS   C26 8590   2.622   4.872  10.084  0.2271  0.2119 -0.6970
   89SAPS   H6R 8591   2.650   4.770  10.055 -0.4835 -0.7352  1.8490
   89SAPS   C27 8592   2.627   4.980   9.977 -0.6576 -0.7237 -0.1623
   89SAPS   H7R 8593   2.618   5.082  10.019  3.0051 -1.0052  1.5050
   89SAPS   H7S 8594   2.534   4.973   9.916 -1.5127 -1.0068  1.1693
   89SAPS   C28 8595   2.746   4.988   9.880  0.0109  0.5409 -0.6931
   89SAPS   H8R 8596   2.814   5.072   9.899 -1.1030  1.1187  0.8803
   89SAPS   C29 8597   2.770   4.926   9.769 -0.0955  0.4455  0.7000
   89SAPS   H9R 8598   2.869   4.946   9.726  0.2624 -1.7677  0.4448
   89SAPS  C210 8599   2.694   4.811   9.693  0.3503  0.3141  0.0946
   89SAPS  H10R 8600   2.636   4.854   9.609  0.4436 -1.3266 -0.8344
   89SAPS  H10S 8601   2.618   4.777   9.765  3.3438 -1.2830  2.6396
   89SAPS  C211 8602   2.766   4.685   9.651 -0.1618 -0.4504 -0.5506
   89SAPS  H11R 8603   2.829   4.646   9.732 -1.2805 -1.1085  0.0229
   89SAPS  C212 8604   2.757   4.623   9.535  0.2867 -0.4494  0.0281
   89SAPS  H12R 8605   2.817   4.531   9.525 -2.1919 -1.9730 -1.4659
   89SAPS  C213 8606   2.683   4.656   9.404 -0.8281 -1.1243 -0.3351
   89SAPS  H13R 8607   2.603   4.729   9.425  0.0350 -0.1714 -0.3157
   89SAPS  H13S 8608   2.625   4.567   9.372  1.7074 -3.4801  1.4199
   89SAPS  C214 8609   2.776   4.699   9.296  0.5701 -0.0987  0.3728
   89SAPS  H14R 8610   2.883   4.713   9.317  0.3907  0.3604  1.0004
   89SAPS  C215 8611   2.728   4.727   9.168 -0.0587 -0.1842  0.3363
   89SAPS  H15R 8612   2.804   4.764   9.098 -0.2000 -0.7675 -0.1214
   89SAPS  C216 8613   2.581   4.709   9.114 -0.7226 -0.5684  1.0961
   89SAPS  H16R 8614   2.535   4.810   9.102  0.8247  0.4004  2.8497
   89SAPS  H16S 8615   2.516   4.639   9.171  0.7829 -1.9126  1.1812
   89SAPS  C217 8616   2.595   4.646   8.972  0.4091  0.3931 -0.1010
   89SAPS  H17R 8617   2.616   4.539   8.992 -0.3083  0.2305 -0.2325
   89SAPS  H17S 8618   2.686   4.690   8.925  0.3514 -0.1526 -0.7346
   89SAPS  C218 8619   2.472   4.663   8.880  0.1415 -0.0788 -0.5627
   89SAPS  H18R 8620   2.456   4.773   8.878  0.4044 -0.0434 -2.0960
   89SAPS  H18S 8621   2.380   4.622   8.926 -0.0981  0.5736 -0.4584
   89SAPS  C219 8622   2.482   4.614   8.731  0.9582  0.0217  0.8686
   89SAPS  H19R 8623   2.524   4.692   8.664 -0.2392 -1.7835 -2.0809
   89SAPS  H19S 8624   2.376   4.601   8.698  1.1769  1.4226 -0.4528
   89SAPS  C220 8625   2.561   4.481   8.706 -0.4837 -0.0011 -0.5903
   89SAPS  H20R 8626   2.667   4.500   8.681 -0.0879 -1.8682 -0.3861
   89SAPS  H20S 8627   2.522   4.432   8.614  1.3632 -1.5977 -0.5526
   89SAPS  H20T 8628   2.559   4.412   8.793  0.5088 -2.1989 -2.2639
   89SAPS   C33 8629   2.919   5.452  10.131  0.1886  0.6416  0.0697
   89SAPS   H3X 8630   3.018   5.417  10.168  0.4392  0.9150 -0.3346
   89SAPS   H3Y 8631   2.922   5.563  10.139  0.4238  0.4314  3.9170
   89SAPS   C34 8632   2.912   5.409   9.985  0.0518 -0.1628 -0.0727
   89SAPS   H4X 8633   2.815   5.444   9.943 -0.7027 -0.4939  1.3560
   89SAPS   H4Y 8634   2.915   5.299   9.968  1.2033 -0.4182  1.7374
   89SAPS   C35 8635   3.027   5.477   9.911  0.0554 -0.1701  0.4473
   89SAPS   H5X 8636   3.123   5.445   9.956 -0.5027  0.6808  2.3252
   89SAPS   H5Y 8637   3.020   5.587   9.925 -2.5461 -0.1961 -0.3647
   89SAPS   C36 8638   3.025   5.462   9.759  0.8742 -0.3960  0.8358
   89SAPS   H6X 8639   3.116   5.505   9.712  0.0256 -0.5527 -0.9952
   89SAPS   H6Y 8640   2.937   5.511   9.713  2.0252 -0.8066 -1.9164
   89SAPS   C37 8641   2.998   5.317   9.705 -0.2515  0.2394 -0.4738
   89SAPS   H7X 8642   2.909   5.276   9.757  0.5506  1.6797  2.1622
   89SAPS   H7Y 8643   3.076   5.248   9.743  0.6015  1.1035 -0.6359
   89SAPS   C38 8644   2.989   5.314   9.545 -0.8411  0.5391  0.8711
   89SAPS   H8X 8645   2.912   5.384   9.507  1.2264  1.8690 -0.9825
   89SAPS   H8Y 8646   2.963   5.209   9.521  1.2085  0.4569 -1.1567
   89SAPS   C39 8647   3.121   5.351   9.470  0.9034  0.0444 -0.4433
   89SAPS   H9X 8648   3.194   5.281   9.516  1.5917  1.0749  0.0529
   89SAPS   H9Y 8649   3.141   5.450   9.515  0.2986 -0.3869  0.7956
   89SAPS  C310 8650   3.142   5.346   9.315 -0.6116  0.0942 -0.2162
   89SAPS  H10X 8651   3.120   5.244   9.275 -0.1352 -0.8182  1.7784
   89SAPS  H10Y 8652   3.251   5.360   9.299 -0.7179 -0.3373 -1.3213
   89SAPS  C311 8653   3.053   5.441   9.235  1.1517  0.0388  0.0970
   89SAPS  H11X 8654   3.096   5.541   9.262 -1.4575  1.4517 -0.7874
   89SAPS  H11Y 8655   2.951   5.434   9.278  0.7481  2.0500 -0.4690
   89SAPS  C312 8656   3.064   5.413   9.082  0.1999 -0.0097 -0.4739
   89SAPS  H12X 8657   3.048   5.305   9.062 -1.9704  0.5249 -1.6913
   89SAPS  H12Y 8658   3.170   5.426   9.051  0.2772 -0.0687 -0.2355
   89SAPS  C313 8659   2.970   5.504   9.002  0.4272 -0.0115  0.1053
   89SAPS  H13X 8660   3.007   5.608   9.012  1.3449 -0.4066  0.9167
   89SAPS  H13Y 8661   2.867   5.483   9.038 -0.0379  0.9555 -0.6263
   89SAPS  C314 8662   2.946   5.464   8.855  0.2303  0.0921  0.8045
   89SAPS  H14X 8663   2.850   5.508   8.819  0.0680 -0.8152  0.0960
   89SAPS  H14Y 8664   2.920   5.356   8.847 -2.1459  0.6325  0.9041
   89SAPS  C315 8665   3.064   5.514   8.760  0.0152  0.2083  0.1185
   89SAPS  H15X 8666   3.162   5.474   8.795 -0.2874 -0.1412  0.5789
   89SAPS  H15Y 8667   3.055   5.624   8.771 -2.1696 -0.0277  0.9929
   89SAPS  C316 8668   3.039   5.478   8.613 -0.1189 -0.2622  0.9104
   89SAPS  H16X 8669   2.931   5.468   8.589  0.4510 -2.0268 -1.0118
   89SAPS  H16Y 8670   3.099   5.390   8.583  0.8846  0.8852 -0.4993
   89SAPS  C317 8671   3.085   5.583   8.510  0.6046 -0.2448 -0.2772
   89SAPS  H17X 8672   3.015   5.669   8.516  0.6796 -0.2848  1.2487
   89SAPS  H17Y 8673   3.079   5.546   8.405  0.3637 -0.3378 -0.2295
   89SAPS  C318 8674   3.229   5.620   8.523 -0.2608 -0.1107  0.7788
   89SAPS  H18X 8675   3.254   5.654   8.626 -0.6073 -0.5984  1.0302
   89SAPS  H18Y 8676   3.253   5.699   8.450  0.5609 -0.9987  0.0742
   89SAPS  H18Z 8677   3.292   5.531   8.501 -0.6070  0.2403 -1.6741
   90SAPS     N 8678   4.916   5.166  10.962 -0.6873 -0.4207 -0.7615
   90SAPS   HN1 8679   4.875   5.091  10.902 -0.2231 -1.4864  0.2224
   90SAPS   HN2 8680   4.841   5.211  11.018  0.5533  0.5434  0.1414
   90SAPS   HN3 8681   4.959   5.238  10.901 -0.8111  0.0451 -0.3012
   90SAPS   C12 8682   5.022   5.093  11.047  0.7668  0.5234  0.3622
   90SAPS  H12A 8683   5.085   5.171  11.086  0.1935  3.3973 -4.1566
   90SAPS   C13 8684   4.953   4.991  11.141 -0.3381  0.3474  0.4700
   90SAPS  O13A 8685   4.831   4.993  11.148  0.5164  0.3305 -0.1584
   90SAPS  O13B 8686   5.023   4.924  11.228  0.0179  0.8169  0.8224
   90SAPS   C11 8687   5.112   5.012  10.944 -1.0491  0.6099  0.2087
   90SAPS  H11A 8688   5.190   4.950  10.995  0.8650  1.2669 -1.8445
   90SAPS  H11B 8689   5.164   5.081  10.875  1.0580  1.5473  2.6424
   90SAPS     P 8690   5.084   4.805  10.774  0.0136 -0.0491  0.0530
   90SAPS   O13 8691   5.221   4.770  10.801  0.4642  0.2065 -0.8660
   90SAPS   O14 8692   4.984   4.697  10.795  0.1326 -0.2813 -0.0767
   90SAPS   O12 8693   5.028   4.931  10.857  0.0620  0.1347  0.1495
   90SAPS   O11 8694   5.083   4.853  10.622  0.3511 -0.1953 -0.5734
   90SAPS    C1 8695   5.023   4.964  10.557 -0.4767  0.1810 -0.0932
   90SAPS    HA 8696   5.018   5.048  10.630  1.0857  1.0549 -0.9493
   90SAPS    HB 8697   5.087   5.003  10.475  0.8071  2.1378  1.7762
   90SAPS    C2 8698   4.879   4.921  10.515 -0.1358  0.2377  0.2612
   90SAPS    HS 8699   4.838   4.867  10.603 -0.3593 -1.1717 -0.6955
   90SAPS   O21 8700   4.886   4.837  10.404 -0.1294 -0.3193  0.3662
   90SAPS   C21 8701   4.788   4.746  10.402  0.3928  0.1565  0.2219
   90SAPS   O22 8702   4.706   4.732  10.491 -0.2012  0.2924  0.1183
   90SAPS   C22 8703   4.772   4.681  10.256  0.2503  0.1454  0.6975
   90SAPS   H2R 8704   4.840   4.594  10.249  1.3626  1.0772 -0.3614
   90SAPS   H2S 8705   4.668   4.642  10.252  0.2679  0.2828 -1.6399
   90SAPS    C3 8706   4.791   5.050  10.485 -0.3460  0.1122  0.0070
   90SAPS    HX 8707   4.853   5.125  10.431 -0.5341 -0.2251 -0.6915
   90SAPS    HY 8708   4.767   5.107  10.577  0.7233  1.3446 -0.4625
   90SAPS   O31 8709   4.672   5.010  10.415  0.2176  0.1375 -0.0703
   90SAPS   C31 8710   4.614   5.092  10.334 -0.5802 -0.3248 -0.3873
   90SAPS   O32 8711   4.641   5.210  10.315  0.0188 -0.2329 -0.0962
   90SAPS   C32 8712   4.477   5.036  10.287 -0.1286 -0.4901 -0.3762
   90SAPS   H2X 8713   4.402   5.035  10.370 -0.9939  0.0143 -1.1386
   90SAPS   H2Y 8714   4.506   4.929  10.278 -1.5406 -0.8765 -0.5215
   90SAPS   C23 8715   4.796   4.784  10.149  0.1261 -1.3036  0.0330
   90SAPS   H3R 8716   4.898   4.828  10.151  0.7278 -2.6699 -0.0230
   90SAPS   H3S 8717   4.722   4.866  10.164  0.7528 -0.1286 -3.0127
   90SAPS   C24 8718   4.776   4.724  10.006  0.4100 -0.3207 -0.1072
   90SAPS   H4R 8719   4.788   4.813   9.940 -0.0136 -3.1414 -4.2069
   90SAPS   H4S 8720   4.672   4.684  10.006 -0.4398  1.8070  1.4083
   90SAPS   C25 8721   4.888   4.625   9.978  0.1136 -0.3058  0.2540
   90SAPS   H5R 8722   4.947   4.577  10.057 -0.1150  0.0024  0.6150
   90SAPS   C26 8723   4.924   4.609   9.848 -0.5615  0.7340  0.3102
   90SAPS   H6R 8724   5.006   4.541   9.820  0.3719  1.5423  1.0235
   90SAPS   C27 8725   4.857   4.663   9.724  0.2710 -0.0971 -1.0730
   90SAPS   H7R 8726   4.750   4.670   9.753  0.3090  0.1558 -0.9980
   90SAPS   H7S 8727   4.856   4.585   9.644 -0.8154 -1.5726  0.3458
   90SAPS   C28 8728   4.917   4.794   9.686 -0.4178  0.0105 -0.5873
   90SAPS   H8R 8729   4.901   4.875   9.759 -0.7836 -1.9164  1.5404
   90SAPS   C29 8730   4.986   4.824   9.576  0.4423 -0.0095  0.3770
   90SAPS   H9R 8731   5.030   4.925   9.566 -1.9494  1.2001  1.7179
   90SAPS  C210 8732   5.021   4.731   9.468 -0.3913  0.3756  0.4323
   90SAPS  H10R 8733   4.977   4.633   9.498 -0.4886  0.7471  1.5553
   90SAPS  H10S 8734   5.130   4.726   9.449 -0.6918 -1.1322 -0.9751
   90SAPS  C211 8735   4.950   4.773   9.342 -1.2667 -0.6219 -0.6461
   90SAPS  H11R 8736   4.843   4.792   9.359 -0.5752  1.3226  1.8638
   90SAPS  C212 8737   5.005   4.769   9.216  0.3870 -0.1526  0.2487
   90SAPS  H12R 8738   4.953   4.803   9.125  0.5023 -0.0796  0.2094
   90SAPS  C213 8739   5.140   4.714   9.182  1.0023  0.0607 -0.2100
   90SAPS  H13R 8740   5.138   4.648   9.093  1.3671 -0.0772 -0.1141
   90SAPS  H13S 8741   5.174   4.639   9.256  1.3994 -0.0432 -0.5006
   90SAPS  C214 8742   5.248   4.825   9.163 -0.2222  0.5548  0.5785
   90SAPS  H14R 8743   5.286   4.860   9.261  2.8216 -0.7969 -0.0599
   90SAPS  C215 8744   5.290   4.882   9.047 -0.6717  0.4681 -0.5798
   90SAPS  H15R 8745   5.367   4.960   9.049 -0.1898 -0.0052 -0.6259
   90SAPS  C216 8746   5.219   4.847   8.914 -0.8799  0.2037  0.0482
   90SAPS  H16R 8747   5.184   4.945   8.876 -2.6447 -0.4456 -0.0454
   90SAPS  H16S 8748   5.123   4.792   8.926 -0.5127 -0.2425  1.0238
   90SAPS  C217 8749   5.301   4.763   8.806 -0.6486  0.4358 -0.5106
   90SAPS  H17R 8750   5.398   4.815   8.798 -0.8387  1.2346  1.8239
   90SAPS  H17S 8751   5.245   4.772   8.711 -1.1142  1.1129 -0.1798
   90SAPS  C218 8752   5.328   4.617   8.836 -0.4101  0.6921 -0.2183
   90SAPS  H18R 8753   5.238   4.562   8.871 -0.3129 -1.3361 -2.9321
   90SAPS  H18S 8754   5.397   4.598   8.921  0.6624 -3.7138 -1.9223
   90SAPS  C219 8755   5.377   4.536   8.710  0.2342  0.3185  0.2728
   90SAPS  H19R 8756   5.471   4.579   8.671  0.0836  1.0348  0.6925
   90SAPS  H19S 8757   5.297   4.542   8.633  0.1188 -0.0858  0.3615
   90SAPS  C220 8758   5.405   4.391   8.745  0.0566  0.8711 -0.4677
   90SAPS  H20R 8759   5.427   4.338   8.649  1.0584  3.6058 -1.8160
   90SAPS  H20S 8760   5.317   4.342   8.792  0.8330 -0.8862 -0.8002
   90SAPS  H20T 8761   5.493   4.371   8.810 -0.9045  1.0755  0.9154
   90SAPS   C33 8762   4.426   5.088  10.150  0.5011 -0.5093 -0.5232
   90SAPS   H3X 8763   4.432   5.199  10.152  0.5859 -0.5331  0.8253
   90SAPS   H3Y 8764   4.319   5.060  10.135  0.0858  0.8055 -0.0707
   90SAPS   C34 8765   4.509   5.041  10.037  0.0960 -0.6490 -0.9205
   90SAPS   H4X 8766   4.520   4.931  10.026  1.2133 -1.0523  3.1711
   90SAPS   H4Y 8767   4.606   5.091  10.059 -0.6089  0.1667  0.3696
   90SAPS   C35 8768   4.462   5.089   9.899  0.3515 -0.1442  0.3334
   90SAPS   H5X 8769   4.476   5.198   9.909  0.4006 -0.2754  1.8182
   90SAPS   H5Y 8770   4.357   5.059   9.880  0.1660 -0.6531  2.0164
   90SAPS   C36 8771   4.551   5.028   9.789 -0.0667  0.2934 -0.3636
   90SAPS   H6X 8772   4.560   4.918   9.798  1.4789  0.1974 -2.6775
   90SAPS   H6Y 8773   4.648   5.080   9.808 -0.1009 -0.1837  1.1689
   90SAPS   C37 8774   4.499   5.058   9.651 -0.4188 -0.5223 -0.8108
   90SAPS   H7X 8775   4.481   5.168   9.642  3.1011  0.2138  0.3989
   90SAPS   H7Y 8776   4.398   5.013   9.649 -0.2274 -0.9677 -0.4874
   90SAPS   C38 8777   4.585   5.002   9.539  0.5829 -0.0020  0.1798
   90SAPS   H8X 8778   4.585   4.893   9.556  0.2990 -0.1838 -0.9074
   90SAPS   H8Y 8779   4.684   5.052   9.546  0.7303 -0.1880 -0.5301
   90SAPS   C39 8780   4.524   5.020   9.398  0.7119 -0.0462 -0.7732
   90SAPS   H9X 8781   4.485   5.124   9.385 -0.6616 -0.4606 -0.0126
   90SAPS   H9Y 8782   4.438   4.951   9.398  0.6758 -0.0004 -0.1165
   90SAPS  C310 8783   4.626   4.997   9.279  0.5891 -0.3185 -0.0335
   90SAPS  H10X 8784   4.667   4.895   9.295 -0.4367 -0.7591 -0.1956
   90SAPS  H10Y 8785   4.712   5.066   9.292 -0.2026  0.5472  0.6916
   90SAPS  C311 8786   4.557   5.009   9.149  0.3629  0.1488  0.2177
   90SAPS  H11X 8787   4.496   5.101   9.163 -1.0027 -0.2361 -2.7512
   90SAPS  H11Y 8788   4.490   4.922   9.138  0.7783 -0.4504  2.2371
   90SAPS  C312 8789   4.644   5.015   9.017  0.0873 -0.3010  0.2998
   90SAPS  H12X 8790   4.734   5.080   9.027 -0.7385  1.2134 -1.6806
   90SAPS  H12Y 8791   4.571   5.059   8.946  1.0259  1.2074  0.2461
   90SAPS  C313 8792   4.686   4.879   8.971  0.4813  0.4815  0.4566
   90SAPS  H13X 8793   4.606   4.801   8.966  0.9273  0.0074  0.7157
   90SAPS  H13Y 8794   4.763   4.847   9.043  0.9793 -1.0416 -0.7331
   90SAPS  C314 8795   4.759   4.884   8.834 -0.7382 -0.1405  0.1893
   90SAPS  H14X 8796   4.676   4.903   8.762  0.1800  1.5626 -0.4648
   90SAPS  H14Y 8797   4.801   4.783   8.815  0.4209  0.2091  0.9208
   90SAPS  C315 8798   4.879   4.986   8.819  0.4470 -0.1191 -0.0382
   90SAPS  H15X 8799   4.939   4.989   8.912  0.4721  0.3821 -0.0718
   90SAPS  H15Y 8800   4.834   5.086   8.802  0.5911  0.0023  0.2934
   90SAPS  C316 8801   4.967   4.966   8.695 -0.3789 -0.1144  0.2062
   90SAPS  H16X 8802   5.009   4.864   8.705  0.1937 -0.0522 -1.3764
   90SAPS  H16Y 8803   5.056   5.030   8.709  1.0178 -2.6213  3.1957
   90SAPS  C317 8804   4.900   4.975   8.553  0.2906  0.3763 -0.1900
   90SAPS  H17X 8805   4.856   5.074   8.531 -2.4011 -1.1935 -2.2430
   90SAPS  H17Y 8806   4.810   4.909   8.551  1.3518 -1.0925 -0.9040
   90SAPS  C318 8807   4.998   4.944   8.433  0.0001  0.3120  0.3917
   90SAPS  H18X 8808   5.047   4.846   8.447 -2.1009 -0.6786  0.9735
   90SAPS  H18Y 8809   5.070   5.029   8.427  0.7476 -0.4035 -0.9800
   90SAPS  H18Z 8810   4.936   4.937   8.341 -1.7083  0.3486  1.5136
   91SAPS     N 8811   3.408   1.198   6.407  0.1417  0.4657  0.1941
   91SAPS   HN1 8812   3.355   1.257   6.474  1.2017 -0.3183  1.7629
   91SAPS   HN2 8813   3.351   1.115   6.380 -1.0779  1.6642 -0.9943
   91SAPS   HN3 8814   3.498   1.165   6.448 -0.5573 -2.2091 -0.3583
   91SAPS   C12 8815   3.434   1.263   6.271 -0.3625  0.3458 -0.3460
   91SAPS  H12A 8816   3.516   1.330   6.291 -1.4113  1.8806 -1.0169
   91SAPS   C13 8817   3.466   1.159   6.159 -0.0094  0.4551 -0.3207
   91SAPS  O13A 8818   3.472   1.040   6.188  0.3571  0.0100 -0.0916
   91SAPS  O13B 8819   3.476   1.202   6.045  0.2786  0.2887  0.0195
   91SAPS   C11 8820   3.310   1.348   6.228  0.3349  0.1338 -0.7436
   91SAPS  H11A 8821   3.219   1.285   6.234 -0.8228  1.8289 -0.1603
   91SAPS  H11B 8822   3.307   1.369   6.119  1.3536 -1.4211 -1.0901
   91SAPS     P 8823   3.222   1.596   6.239  0.9486 -0.2827 -0.2556
   91SAPS   O13 8824   3.308   1.637   6.123 -0.0928  0.2939  0.4379
   91SAPS   O14 8825   3.080   1.572   6.208 -0.3069 -0.1617  0.4810
   91SAPS   O12 8826   3.280   1.463   6.301 -0.3947  0.4519  0.1144
   91SAPS   O11 8827   3.228   1.698   6.358 -0.0525  0.2519  0.3538
   91SAPS    C1 8828   3.201   1.675   6.500 -0.4776  0.2295  0.4680
   91SAPS    HA 8829   3.130   1.754   6.534 -2.9988 -1.8089  0.1130
   91SAPS    HB 8830   3.138   1.584   6.519  1.5678 -1.5247 -0.9405
   91SAPS    C2 8831   3.336   1.669   6.590 -0.0876 -0.6377 -0.4810
   91SAPS    HS 8832   3.337   1.562   6.622 -1.0677  0.0621  1.9663
   91SAPS   O21 8833   3.338   1.749   6.708  0.0152 -0.0016 -0.0238
   91SAPS   C21 8834   3.228   1.753   6.787 -0.0068  0.5612  0.7917
   91SAPS   O22 8835   3.127   1.683   6.779 -0.0991  0.7498  0.9116
   91SAPS   C22 8836   3.253   1.835   6.916  0.0277 -0.4417  0.3529
   91SAPS   H2R 8837   3.181   1.919   6.926  0.0221 -0.6377  2.0893
   91SAPS   H2S 8838   3.230   1.773   7.005 -2.5152 -1.6436 -1.0764
   91SAPS    C3 8839   3.472   1.701   6.505 -0.0626  0.2958  0.5082
   91SAPS    HX 8840   3.466   1.802   6.460  2.2832  1.3728  2.5171
   91SAPS    HY 8841   3.483   1.637   6.415 -0.3498 -1.4572  1.6889
   91SAPS   O31 8842   3.588   1.694   6.590  0.4322 -0.0789 -0.3467
   91SAPS   C31 8843   3.640   1.808   6.639 -0.5902 -0.5413  0.0574
   91SAPS   O32 8844   3.596   1.920   6.635  0.4331 -0.0591  0.0067
   91SAPS   C32 8845   3.773   1.764   6.705 -0.1478 -0.0393 -0.1218
   91SAPS   H2X 8846   3.843   1.757   6.619  1.9843  2.6110  1.2989
   91SAPS   H2Y 8847   3.769   1.666   6.757 -0.5007  0.6991  1.2538
   91SAPS   C23 8848   3.394   1.889   6.931  0.1902  0.3137 -0.1871
   91SAPS   H3R 8849   3.397   1.967   6.851 -0.0219 -0.2996 -0.8028
   91SAPS   H3S 8850   3.469   1.809   6.918  0.7318  0.9927 -1.4004
   91SAPS   C24 8851   3.417   1.955   7.069 -0.2493  0.2280 -0.4592
   91SAPS   H4R 8852   3.395   1.878   7.146  0.9556 -1.4685 -1.7744
   91SAPS   H4S 8853   3.346   2.039   7.082 -2.6828 -1.9751  0.8062
   91SAPS   C25 8854   3.554   2.014   7.093 -0.3292 -0.6427 -0.1432
   91SAPS   H5R 8855   3.581   2.102   7.033  0.7067  0.0617  1.3215
   91SAPS   C26 8856   3.652   1.989   7.185  0.3929  0.1420  0.3220
   91SAPS   H6R 8857   3.745   2.048   7.185  0.1593  0.5304 -1.1340
   91SAPS   C27 8858   3.628   1.906   7.311 -0.5492 -0.1829 -0.1380
   91SAPS   H7R 8859   3.725   1.879   7.358 -0.6983 -0.3456  0.0793
   91SAPS   H7S 8860   3.579   1.811   7.280  0.4744 -0.8501  0.2748
   91SAPS   C28 8861   3.538   1.981   7.412  0.1151 -0.1825  0.2454
   91SAPS   H8R 8862   3.462   2.045   7.366  1.2487  1.8550  1.1454
   91SAPS   C29 8863   3.539   1.961   7.542  0.1960 -0.1246  1.0159
   91SAPS   H9R 8864   3.468   2.022   7.600  0.7861  0.5102  1.0712
   91SAPS  C210 8865   3.628   1.861   7.615  0.5412 -0.2737  0.4961
   91SAPS  H10R 8866   3.705   1.899   7.686  2.7558 -2.3321 -0.7211
   91SAPS  H10S 8867   3.695   1.814   7.539 -2.0253  0.0177 -2.0163
   91SAPS  C211 8868   3.544   1.752   7.672 -0.3328 -0.2850  0.4380
   91SAPS  H11R 8869   3.480   1.702   7.598 -0.2691 -0.0965  0.2563
   91SAPS  C212 8870   3.545   1.713   7.800  0.6403 -0.5831  1.2687
   91SAPS  H12R 8871   3.478   1.631   7.832 -2.1786  0.4334 -1.6634
   91SAPS  C213 8872   3.620   1.780   7.908 -0.5427  0.1954  0.7910
   91SAPS  H13R 8873   3.627   1.890   7.900  0.3222  0.1178  0.4932
   91SAPS  H13S 8874   3.727   1.752   7.908 -0.1541  1.5966 -1.6466
   91SAPS  C214 8875   3.573   1.757   8.050 -0.2859 -0.4857 -0.1717
   91SAPS  H14R 8876   3.537   1.655   8.069 -0.0744 -0.4765  0.2842
   91SAPS  C215 8877   3.552   1.840   8.151  0.1049 -0.3292 -0.0580
   91SAPS  H15R 8878   3.502   1.795   8.238 -0.7362  2.1755  0.8040
   91SAPS  C216 8879   3.570   1.992   8.169 -0.2478 -0.1874  0.0935
   91SAPS  H16R 8880   3.476   2.035   8.210  0.2242  0.9797 -0.0249
   91SAPS  H16S 8881   3.587   2.044   8.072 -0.3755 -1.0256 -0.3762
   91SAPS  C217 8882   3.695   2.032   8.253 -0.1650  0.1242 -0.7159
   91SAPS  H17R 8883   3.786   1.991   8.204  0.8097 -0.7009  1.6925
   91SAPS  H17S 8884   3.691   1.974   8.348  0.1012 -1.3853 -1.6201
   91SAPS  C218 8885   3.709   2.184   8.279  0.1452  0.1527  0.4347
   91SAPS  H18R 8886   3.808   2.211   8.320  1.2625 -2.7620 -0.2089
   91SAPS  H18S 8887   3.618   2.201   8.341 -0.2114 -3.7545  1.1029
   91SAPS  C219 8888   3.689   2.281   8.155 -0.3132 -0.1091 -0.5120
   91SAPS  H19R 8889   3.584   2.280   8.119  0.2047  3.0185 -2.3007
   91SAPS  H19S 8890   3.750   2.248   8.068 -1.2239  0.5500 -1.4029
   91SAPS  C220 8891   3.725   2.430   8.188 -0.6510  0.4556 -0.0313
   91SAPS  H20R 8892   3.660   2.466   8.271 -2.0583 -1.4011 -0.3153
   91SAPS  H20S 8893   3.688   2.494   8.105  1.0139  0.1145 -1.0400
   91SAPS  H20T 8894   3.831   2.438   8.220 -1.1970 -0.2902  2.0151
   91SAPS   C33 8895   3.829   1.870   6.806  0.5371  0.4173 -0.0469
   91SAPS   H3X 8896   3.769   1.869   6.899  0.6466 -2.3560  0.0407
   91SAPS   H3Y 8897   3.817   1.971   6.761 -1.5757 -0.8856 -2.5218
   91SAPS   C34 8898   3.975   1.836   6.846 -0.0889  0.3686  0.1255
   91SAPS   H4X 8899   4.005   1.920   6.913 -1.0803 -0.1035  1.1772
   91SAPS   H4Y 8900   4.032   1.837   6.751  0.4776 -0.9458  0.4508
   91SAPS   C35 8901   3.992   1.702   6.927 -0.2632 -0.5477  0.2735
   91SAPS   H5X 8902   4.089   1.657   6.897 -2.2949 -3.3788 -2.2260
   91SAPS   H5Y 8903   3.925   1.625   6.885  0.1363 -0.9091  0.3026
   91SAPS   C36 8904   3.985   1.703   7.080 -0.0789  0.0582 -0.3269
   91SAPS   H6X 8905   3.985   1.599   7.120  0.4027 -0.1111 -0.7677
   91SAPS   H6Y 8906   3.897   1.769   7.099  0.9218  0.8037  1.8649
   91SAPS   C37 8907   4.101   1.777   7.139 -0.3610 -0.2465  0.1318
   91SAPS   H7X 8908   4.086   1.883   7.110 -0.4694 -0.5236 -0.8467
   91SAPS   H7Y 8909   4.194   1.743   7.088  0.5089  1.7113  0.3809
   91SAPS   C38 8910   4.118   1.779   7.291 -0.7458 -0.0878 -0.1537
   91SAPS   H8X 8911   4.205   1.846   7.304 -0.7470  0.1963 -1.4954
   91SAPS   H8Y 8912   4.158   1.687   7.339  0.0657  0.5843  0.4732
   91SAPS   C39 8913   3.990   1.812   7.376 -0.6125  0.3395 -0.2654
   91SAPS   H9X 8914   3.920   1.726   7.366 -2.5651  1.9976 -1.2403
   91SAPS   H9Y 8915   3.937   1.901   7.336 -2.7987 -1.1189 -0.7717
   91SAPS  C310 8916   4.015   1.850   7.525  0.1255 -0.2570 -0.0187
   91SAPS  H10X 8917   3.917   1.893   7.556  0.2710  2.4216 -3.0314
   91SAPS  H10Y 8918   4.083   1.936   7.538  1.2614 -1.3252  1.2139
   91SAPS  C311 8919   4.034   1.727   7.617 -0.3239  0.0352  0.2193
   91SAPS  H11X 8920   4.122   1.671   7.580 -0.6623 -1.3578  1.4867
   91SAPS  H11Y 8921   3.946   1.660   7.628 -1.6882  1.8637  0.6703
   91SAPS  C312 8922   4.061   1.769   7.762 -0.1483 -0.2654 -0.6810
   91SAPS  H12X 8923   3.997   1.846   7.809 -0.2475 -0.0714 -1.1283
   91SAPS  H12Y 8924   4.158   1.822   7.750  0.8056 -1.8679 -0.1169
   91SAPS  C313 8925   4.078   1.648   7.853 -0.1741  0.0855 -0.2798
   91SAPS  H13X 8926   4.160   1.590   7.804  1.1084  0.0414  1.8360
   91SAPS  H13Y 8927   3.990   1.581   7.851 -0.9739  1.0915  0.7485
   91SAPS  C314 8928   4.122   1.682   7.992  0.1006  0.5713 -0.0005
   91SAPS  H14X 8929   4.038   1.737   8.040 -0.4515  0.2351 -0.5966
   91SAPS  H14Y 8930   4.207   1.754   7.985  0.7769 -0.2316 -0.1666
   91SAPS  C315 8931   4.169   1.559   8.076 -0.2596  0.4386  0.1541
   91SAPS  H15X 8932   4.258   1.526   8.018  1.5240  1.8166  2.0079
   91SAPS  H15Y 8933   4.088   1.484   8.061 -0.1151 -0.0854  1.8103
   91SAPS  C316 8934   4.192   1.579   8.223 -0.3294  0.3226  0.3119
   91SAPS  H16X 8935   4.154   1.493   8.282  1.0507 -0.5524 -0.0369
   91SAPS  H16Y 8936   4.150   1.679   8.251 -0.0862  1.2776 -2.6000
   91SAPS  C317 8937   4.347   1.602   8.252 -0.0598 -0.2775  0.0616
   91SAPS  H17X 8938   4.350   1.632   8.359  2.0901  1.1831 -0.3776
   91SAPS  H17Y 8939   4.399   1.672   8.184 -0.3894 -0.1573 -0.0674
   91SAPS  C318 8940   4.438   1.478   8.236 -0.4930 -0.4046  0.1756
   91SAPS  H18X 8941   4.537   1.497   8.284 -0.1180 -0.1141 -0.6956
   91SAPS  H18Y 8942   4.460   1.465   8.128 -0.3968 -0.2268  0.1749
   91SAPS  H18Z 8943   4.396   1.388   8.286 -3.5627  1.1980  0.5412
   92SAPS     N 8944   3.307   0.110   6.225 -1.0162 -0.2738  0.1804
   92SAPS   HN1 8945   3.368   0.070   6.151 -0.4456  1.9137 -0.5677
   92SAPS   HN2 8946   3.360   0.176   6.285 -0.0010 -2.0202  1.2511
   92SAPS   HN3 8947   3.275   0.039   6.294 -1.3077  2.0924  2.5723
   92SAPS   C12 8948   3.195   0.180   6.164 -0.3881  0.0501 -0.5798
   92SAPS  H12A 8949   3.239   0.238   6.084  2.7549 -0.2437  0.8606
   92SAPS   C13 8950   3.090   0.091   6.096  0.1729  0.2069 -0.3758
   92SAPS  O13A 8951   3.101  -0.035   6.109  0.8226  0.0363 -0.2644
   92SAPS  O13B 8952   2.982   0.144   6.048 -0.3496 -0.4995  0.0042
   92SAPS   C11 8953   3.118   0.270   6.271  0.3520  0.1388  0.5783
   92SAPS  H11A 8954   3.025   0.302   6.220  1.0109  0.8817 -0.1574
   92SAPS  H11B 8955   3.178   0.363   6.282 -0.6101  0.7366  0.8472
   92SAPS     P 8956   2.966   0.236   6.485  0.0133 -0.0972 -0.1389
   92SAPS   O13 8957   2.963   0.379   6.524 -0.3383 -0.3032 -0.6299
   92SAPS   O14 8958   2.847   0.181   6.424 -0.1646 -0.3715 -0.0497
   92SAPS   O12 8959   3.092   0.209   6.399  0.2434  0.6686  0.9221
   92SAPS   O11 8960   2.994   0.162   6.615 -0.1782 -0.7098  0.4653
   92SAPS    C1 8961   2.998   0.030   6.660  0.2859  0.4957  0.8584
   92SAPS    HA 8962   3.058  -0.034   6.591  1.4796  1.4074  1.0496
   92SAPS    HB 8963   3.051   0.028   6.757 -1.2787 -1.1549  1.7064
   92SAPS    C2 8964   2.859  -0.035   6.689 -0.1451  0.3448  0.3689
   92SAPS    HS 8965   2.793  -0.043   6.600 -1.6036 -0.2840  1.4878
   92SAPS   O21 8966   2.786   0.046   6.779  0.4643 -0.0286 -0.3108
   92SAPS   C21 8967   2.656   0.029   6.783 -0.5204 -0.1534  0.3450
   92SAPS   O22 8968   2.582  -0.031   6.706 -0.8691 -0.0717 -0.4504
   92SAPS   C22 8969   2.609   0.103   6.912 -0.3027 -0.5975 -0.2213
   92SAPS   H2R 8970   2.665   0.053   6.994 -1.1160 -0.1395  0.6239
   92SAPS   H2S 8971   2.634   0.210   6.899 -2.6512 -0.1854 -1.7102
   92SAPS    C3 8972   2.885  -0.173   6.748  0.0695 -0.8676 -0.2731
   92SAPS    HX 8973   2.949  -0.237   6.683  1.2086  0.4901 -0.5039
   92SAPS    HY 8974   2.790  -0.230   6.762 -0.9192  0.2403 -2.3569
   92SAPS   O31 8975   2.961  -0.161   6.870 -0.0365 -0.1808 -0.4827
   92SAPS   C31 8976   2.898  -0.139   6.981  0.0510 -0.1356 -0.3250
   92SAPS   O32 8977   2.781  -0.158   6.999  0.5951  0.5099  0.2176
   92SAPS   C32 8978   2.999  -0.084   7.081 -0.3900  0.6344  0.4933
   92SAPS   H2X 8979   3.058  -0.003   7.034 -0.9586  0.6234 -0.2519
   92SAPS   H2Y 8980   3.062  -0.168   7.118 -1.5554 -1.8505 -2.9068
   92SAPS   C23 8981   2.460   0.086   6.951 -0.1033 -0.5526  0.3113
   92SAPS   H3R 8982   2.440  -0.023   6.952  0.1665 -0.6072 -0.3108
   92SAPS   H3S 8983   2.403   0.122   6.863  1.8330 -0.5354 -0.9635
   92SAPS   C24 8984   2.432   0.161   7.085 -0.7245  0.1838  0.4354
   92SAPS   H4R 8985   2.326   0.147   7.112 -0.3640 -0.7541  1.3966
   92SAPS   H4S 8986   2.448   0.270   7.076 -1.0529  0.0636 -1.8986
   92SAPS   C25 8987   2.518   0.101   7.199  0.2493  0.0852 -0.6407
   92SAPS   H5R 8988   2.536  -0.008   7.199 -1.1744 -0.1612  0.9799
   92SAPS   C26 8989   2.579   0.179   7.294 -0.4974 -0.0221 -0.8751
   92SAPS   H6R 8990   2.640   0.133   7.372  0.4945  3.2696  0.3640
   92SAPS   C27 8991   2.565   0.329   7.312  0.1549  0.8807 -0.3881
   92SAPS   H7R 8992   2.487   0.342   7.390 -0.8899  2.2535 -1.6376
   92SAPS   H7S 8993   2.526   0.372   7.217 -0.3748  1.0974 -0.0780
   92SAPS   C28 8994   2.693   0.397   7.350  0.5605 -0.6044 -0.5285
   92SAPS   H8R 8995   2.762   0.405   7.265  1.9683 -0.8652  0.5707
   92SAPS   C29 8996   2.727   0.434   7.475  0.2769 -0.2248  0.1197
   92SAPS   H9R 8997   2.822   0.489   7.490  1.1784 -1.9969  1.0911
   92SAPS  C210 8998   2.647   0.429   7.597  0.6075  0.1824  0.1691
   92SAPS  H10R 8999   2.688   0.358   7.671 -1.2072 -2.0540 -0.9223
   92SAPS  H10S 9000   2.549   0.389   7.563  0.2374 -0.2084  1.6317
   92SAPS  C211 9001   2.619   0.563   7.664 -0.3208 -0.6729 -0.2964
   92SAPS  H11R 9002   2.583   0.644   7.599 -0.4579  0.6154  1.3342
   92SAPS  C212 9003   2.622   0.593   7.800  0.1955 -0.4427 -0.5976
   92SAPS  H12R 9004   2.602   0.698   7.827  0.2045 -0.9049  1.2919
   92SAPS  C213 9005   2.668   0.504   7.908 -0.7378  0.2167  0.9506
   92SAPS  H13R 9006   2.689   0.399   7.878  0.0622  0.8265 -0.6726
   92SAPS  H13S 9007   2.592   0.495   7.988 -0.2296 -1.5397  1.2552
   92SAPS  C214 9008   2.800   0.544   7.965  0.3383  0.1002  0.2335
   92SAPS  H14R 9009   2.880   0.484   7.920  0.9963  1.4312 -0.4384
   92SAPS  C215 9010   2.828   0.625   8.073  0.2262  0.0865  0.2184
   92SAPS  H15R 9011   2.935   0.648   8.083  0.6437 -0.6703 -2.2582
   92SAPS  C216 9012   2.729   0.694   8.168 -0.0457  0.5767  0.1856
   92SAPS  H16R 9013   2.621   0.684   8.146  0.1249 -0.5893 -0.1702
   92SAPS  H16S 9014   2.744   0.803   8.156 -0.0850  0.5963  0.3189
   92SAPS  C217 9015   2.746   0.660   8.318 -0.1992 -0.5540  0.3500
   92SAPS  H17R 9016   2.846   0.694   8.351 -0.6980 -0.2301  1.5646
   92SAPS  H17S 9017   2.760   0.550   8.327 -0.1854 -0.5579  0.2778
   92SAPS  C218 9018   2.643   0.713   8.409  0.3711  0.0620  0.1342
   92SAPS  H18R 9019   2.629   0.640   8.492  0.7273  0.0748  0.2057
   92SAPS  H18S 9020   2.545   0.704   8.359  1.3515 -0.4317 -1.7288
   92SAPS  C219 9021   2.668   0.861   8.445 -0.0006  0.9205  0.2101
   92SAPS  H19R 9022   2.675   0.922   8.352  1.9844 -1.4189 -1.2437
   92SAPS  H19S 9023   2.766   0.865   8.497  1.3631  2.4021 -2.3734
   92SAPS  C220 9024   2.565   0.913   8.539 -0.2070  0.1604 -0.9204
   92SAPS  H20R 9025   2.565   1.024   8.540  0.5357  0.1828  2.5245
   92SAPS  H20S 9026   2.574   0.882   8.645 -0.2866  1.3209 -0.5702
   92SAPS  H20T 9027   2.466   0.890   8.494 -0.7790  1.2517 -0.2254
   92SAPS   C33 9028   2.916  -0.033   7.202  0.4481 -0.7877 -0.5198
   92SAPS   H3X 9029   2.873  -0.126   7.245  0.5007 -1.0838 -1.1025
   92SAPS   H3Y 9030   2.835   0.035   7.168 -1.3758 -1.6936  1.8514
   92SAPS   C34 9031   3.009   0.012   7.314 -0.2286 -0.0624  0.3880
   92SAPS   H4X 9032   3.085   0.080   7.271 -0.8988 -0.3969 -1.3884
   92SAPS   H4Y 9033   3.055  -0.082   7.350 -0.4597 -0.9936 -1.6812
   92SAPS   C35 9034   2.939   0.077   7.429  0.3367 -0.1891 -0.3448
   92SAPS   H5X 9035   2.865   0.152   7.394 -0.1430  0.2738  1.5995
   92SAPS   H5Y 9036   3.014   0.127   7.495 -0.4016  0.6949 -0.1596
   92SAPS   C36 9037   2.864  -0.015   7.523 -0.1438  0.0167 -1.3412
   92SAPS   H6X 9038   2.937  -0.091   7.557  0.4372  0.8625 -0.6669
   92SAPS   H6Y 9039   2.786  -0.070   7.466  0.8981 -1.9649 -0.8789
   92SAPS   C37 9040   2.791   0.059   7.626 -0.0582  0.4287 -0.3066
   92SAPS   H7X 9041   2.709   0.120   7.581 -2.1129 -3.5348 -2.1558
   92SAPS   H7Y 9042   2.854   0.118   7.696 -2.0162  1.3585  0.7206
   92SAPS   C38 9043   2.723  -0.037   7.724 -0.0449  0.0510  0.3067
   92SAPS   H8X 9044   2.801  -0.082   7.790  2.2540  2.0063 -0.9694
   92SAPS   H8Y 9045   2.671  -0.124   7.680  0.0167  1.3182 -2.3382
   92SAPS   C39 9046   2.635   0.041   7.828  1.4666  0.7053  0.1569
   92SAPS   H9X 9047   2.602  -0.035   7.902  1.4514  1.0236  0.4815
   92SAPS   H9Y 9048   2.547   0.094   7.784  0.2647 -0.4909  1.0853
   92SAPS  C310 9049   2.713   0.140   7.915 -0.3247  0.0339  0.0525
   92SAPS  H10X 9050   2.633   0.207   7.953  0.2072  1.0546 -0.6152
   92SAPS  H10Y 9051   2.777   0.209   7.856  0.1690  0.4329  1.0413
   92SAPS  C311 9052   2.788   0.076   8.029  0.0765  0.7761 -0.4669
   92SAPS  H11X 9053   2.880   0.027   7.990  0.4006  0.5537  0.5701
   92SAPS  H11Y 9054   2.726  -0.003   8.076 -1.6258  2.6619  0.5145
   92SAPS  C312 9055   2.822   0.184   8.140  0.2254  0.7717  0.7688
   92SAPS  H12X 9056   2.735   0.247   8.170 -0.9287 -0.5403  0.2344
   92SAPS  H12Y 9057   2.904   0.247   8.098 -0.4044  1.0583 -0.0468
   92SAPS  C313 9058   2.886   0.113   8.271 -0.1314  0.4723 -0.5195
   92SAPS  H13X 9059   2.987   0.079   8.240  0.0186 -0.2853  0.7532
   92SAPS  H13Y 9060   2.815   0.034   8.303  1.8630 -1.0265  0.3535
   92SAPS  C314 9061   2.904   0.213   8.390 -0.7300  0.0306 -0.7430
   92SAPS  H14X 9062   2.820   0.286   8.393 -1.0813 -0.3489 -1.3637
   92SAPS  H14Y 9063   2.994   0.275   8.369 -0.1905  0.2690  2.1271
   92SAPS  C315 9064   2.930   0.159   8.524  0.7193 -0.2023  0.5298
   92SAPS  H15X 9065   3.020   0.095   8.538  0.0793 -0.6202  3.0065
   92SAPS  H15Y 9066   2.848   0.094   8.562  0.2249 -0.4163 -0.8932
   92SAPS  C316 9067   2.949   0.272   8.628  0.0122  0.1789  0.3884
   92SAPS  H16X 9068   2.868   0.347   8.612  0.8914  1.3926  1.4615
   92SAPS  H16Y 9069   3.051   0.310   8.602  0.4794 -0.3444  1.4410
   92SAPS  C317 9070   2.947   0.228   8.780 -0.7076  0.0064 -0.5174
   92SAPS  H17X 9071   2.927   0.324   8.832 -0.1609  0.1609 -0.5961
   92SAPS  H17Y 9072   3.040   0.188   8.826 -1.1574 -0.8299 -0.3309
   92SAPS  C318 9073   2.829   0.139   8.826  0.7838  0.2984 -0.3524
   92SAPS  H18X 9074   2.817   0.147   8.936 -1.9596 -1.2243 -0.4783
   92SAPS  H18Y 9075   2.858   0.037   8.796 -2.9978 -0.5879 -1.2945
   92SAPS  H18Z 9076   2.736   0.171   8.774  1.0346  0.8692 -0.4586
   93SAPS     N 9077   3.681   0.065   6.379 -0.2738  0.3874  0.1974
   93SAPS   HN1 9078   3.729   0.061   6.471 -1.5669 -1.7516  0.8066
   93SAPS   HN2 9079   3.606   0.136   6.373 -1.9696 -1.3056  0.8376
   93SAPS   HN3 9080   3.628  -0.022   6.359  0.1128  0.1637  0.1346
   93SAPS   C12 9081   3.786   0.085   6.267  0.4510 -0.6295  0.1657
   93SAPS  H12A 9082   3.835  -0.010   6.254  0.4737 -0.4488 -1.1220
   93SAPS   C13 9083   3.712   0.108   6.129 -0.7742 -0.2506 -0.6240
   93SAPS  O13A 9084   3.587   0.093   6.121  0.0215 -0.1692 -0.0423
   93SAPS  O13B 9085   3.782   0.150   6.041 -0.2873  0.6728 -0.0121
   93SAPS   C11 9086   3.874   0.213   6.306 -0.9255 -0.2728 -0.4891
   93SAPS  H11A 9087   3.822   0.311   6.303 -0.0957  0.1473 -1.5384
   93SAPS  H11B 9088   3.952   0.241   6.232  1.0686 -2.8717  0.5330
   93SAPS     P 9089   4.062   0.268   6.463 -0.3914  0.1292 -0.1172
   93SAPS   O13 9090   4.185   0.210   6.419 -0.5140 -0.3349  0.2695
   93SAPS   O14 9091   4.027   0.403   6.416  0.6155 -0.4629 -0.1772
   93SAPS   O12 9092   3.934   0.178   6.427 -0.6131 -0.1855  0.2668
   93SAPS   O11 9093   4.059   0.268   6.625  0.2716  0.1425  0.6403
   93SAPS    C1 9094   3.941   0.320   6.689  0.1371 -0.8018  0.2456
   93SAPS    HA 9095   3.929   0.431   6.686 -0.8238 -0.9436 -1.0905
   93SAPS    HB 9096   3.849   0.285   6.638 -0.4665  1.5278 -0.3203
   93SAPS    C2 9097   3.943   0.258   6.828 -0.2467  0.0770 -0.0913
   93SAPS    HS 9098   3.958   0.149   6.811 -0.2942 -0.3923  2.6515
   93SAPS   O21 9099   3.817   0.300   6.889 -0.1439  0.3792  0.3912
   93SAPS   C21 9100   3.747   0.204   6.947 -0.1888 -0.0422  0.3373
   93SAPS   O22 9101   3.772   0.085   6.942 -0.9784 -0.0279 -0.4020
   93SAPS   C22 9102   3.643   0.257   7.037 -0.8046  0.6912 -0.4447
   93SAPS   H2R 9103   3.569   0.318   6.980 -2.1110 -0.3220  0.1403
   93SAPS   H2S 9104   3.577   0.175   7.070 -0.7199  0.6264 -0.4373
   93SAPS    C3 9105   4.063   0.291   6.924  0.6210 -0.4397 -0.0811
   93SAPS    HX 9106   4.058   0.395   6.963  1.7279 -0.6972  0.7875
   93SAPS    HY 9107   4.161   0.289   6.872  1.1959  1.3480  0.8990
   93SAPS   O31 9108   4.064   0.210   7.041  1.3056 -0.1062  0.6989
   93SAPS   C31 9109   4.138   0.098   7.031 -0.0546 -0.4198  0.1149
   93SAPS   O32 9110   4.175   0.055   6.927 -0.3025 -0.1589  0.0757
   93SAPS   C32 9111   4.156   0.031   7.175 -0.4302  0.2407  0.6587
   93SAPS   H2X 9112   4.252  -0.022   7.157  0.9083  2.7506  0.2404
   93SAPS   H2Y 9113   4.069  -0.032   7.204 -1.2014  1.0049  0.0322
   93SAPS   C23 9114   3.694   0.343   7.155  0.1641 -0.6055 -0.4727
   93SAPS   H3R 9115   3.603   0.385   7.202  0.1639 -2.0201  0.8643
   93SAPS   H3S 9116   3.747   0.435   7.124 -0.5844  0.4173  1.2243
   93SAPS   C24 9117   3.769   0.262   7.265 -0.0334  0.0478 -0.6942
   93SAPS   H4R 9118   3.807   0.336   7.339  2.6039 -0.5175 -1.4050
   93SAPS   H4S 9119   3.859   0.224   7.212  2.4949  2.7768  1.4461
   93SAPS   C25 9120   3.698   0.151   7.337 -0.6305  0.6244  0.9459
   93SAPS   H5R 9121   3.725   0.053   7.294  0.4287  0.1152  2.7351
   93SAPS   C26 9122   3.632   0.149   7.453  0.2430 -0.0719  0.0121
   93SAPS   H6R 9123   3.625   0.047   7.493  0.3259 -0.3473 -0.6613
   93SAPS   C27 9124   3.596   0.269   7.544  0.2701  0.1079  0.7528
   93SAPS   H7R 9125   3.510   0.244   7.610  0.7933  0.3338  1.5278
   93SAPS   H7S 9126   3.567   0.358   7.483  0.6239 -1.5704 -1.9644
   93SAPS   C28 9127   3.716   0.319   7.619 -0.2705 -0.3892 -0.2095
   93SAPS   H8R 9128   3.810   0.277   7.580  0.5639 -0.0903  1.4680
   93SAPS   C29 9129   3.709   0.375   7.740  0.4210  0.2476  0.3784
   93SAPS   H9R 9130   3.801   0.384   7.800 -1.0123 -0.0412  2.6306
   93SAPS  C210 9131   3.587   0.424   7.815 -0.2629  0.9175  0.4033
   93SAPS  H10R 9132   3.512   0.470   7.747  0.5932  0.1168 -1.1254
   93SAPS  H10S 9133   3.626   0.514   7.868 -1.2503  0.0205  2.6915
   93SAPS  C211 9134   3.523   0.327   7.916  0.5536  0.2054  0.6136
   93SAPS  H11R 9135   3.430   0.277   7.884  0.6987 -1.2423  2.3734
   93SAPS  C212 9136   3.577   0.289   8.033 -0.2434  0.3744 -0.5167
   93SAPS  H12R 9137   3.507   0.228   8.091 -0.4130 -0.3930 -1.5009
   93SAPS  C213 9138   3.703   0.336   8.100 -0.4188  0.1712 -0.3186
   93SAPS  H13R 9139   3.695   0.390   8.197  0.5652  1.1361 -0.7606
   93SAPS  H13S 9140   3.758   0.404   8.031  0.9411 -1.9542 -1.3673
   93SAPS  C214 9141   3.796   0.218   8.115  0.5299  0.8417 -0.0321
   93SAPS  H14R 9142   3.857   0.194   8.027 -1.4682 -1.7298 -0.7918
   93SAPS  C215 9143   3.828   0.147   8.226 -0.0560  0.5053  0.4510
   93SAPS  H15R 9144   3.903   0.067   8.219 -0.7981 -0.1037 -0.7010
   93SAPS  C216 9145   3.787   0.160   8.366  0.0977  0.0421 -0.1158
   93SAPS  H16R 9146   3.756   0.061   8.407 -0.2791 -0.7112 -2.1833
   93SAPS  H16S 9147   3.701   0.231   8.368  0.8320  0.9370 -0.0999
   93SAPS  C217 9148   3.903   0.217   8.456 -0.4242  0.6631 -0.3115
   93SAPS  H17R 9149   4.001   0.183   8.416 -0.7063 -0.1051 -0.3482
   93SAPS  H17S 9150   3.900   0.164   8.553  1.8073  0.0293 -0.5522
   93SAPS  C218 9151   3.899   0.374   8.475 -0.1851  0.5329 -0.4696
   93SAPS  H18R 9152   3.797   0.413   8.496 -1.3937 -2.6586 -0.2109
   93SAPS  H18S 9153   3.927   0.418   8.376  0.4721  0.8951 -0.1291
   93SAPS  C219 9154   4.002   0.424   8.572 -0.3789 -0.0872 -0.8982
   93SAPS  H19R 9155   4.102   0.389   8.538 -0.2069 -0.3908 -0.1017
   93SAPS  H19S 9156   3.987   0.373   8.670  0.2211 -1.8595 -1.7345
   93SAPS  C220 9157   3.989   0.575   8.596  0.0003  0.3114  0.4953
   93SAPS  H20R 9158   3.995   0.629   8.499  0.4216 -1.8573 -0.7230
   93SAPS  H20S 9159   4.071   0.634   8.642 -0.2546  1.4815 -0.5204
   93SAPS  H20T 9160   3.888   0.604   8.629 -0.2223  2.8040 -2.2048
   93SAPS   C33 9161   4.180   0.134   7.297  0.5391 -0.2636  0.0114
   93SAPS   H3X 9162   4.100   0.210   7.309  0.8361 -0.1611  1.3901
   93SAPS   H3Y 9163   4.272   0.193   7.282  0.2494  0.6838  1.8552
   93SAPS   C34 9164   4.208   0.063   7.433  0.3555 -0.0143 -0.2355
   93SAPS   H4X 9165   4.286  -0.016   7.426  0.2714 -0.2040  0.8695
   93SAPS   H4Y 9166   4.116   0.012   7.468  1.5985 -2.8304 -0.9394
   93SAPS   C35 9167   4.259   0.161   7.546  0.1796 -0.2628 -0.1087
   93SAPS   H5X 9168   4.187   0.245   7.560 -0.2639 -0.8995  1.5210
   93SAPS   H5Y 9169   4.361   0.193   7.516  0.7094 -1.3295  0.5189
   93SAPS   C36 9170   4.267   0.095   7.686  0.4865 -0.4211 -0.2506
   93SAPS   H6X 9171   4.339   0.011   7.677  0.0438 -0.6911 -1.2880
   93SAPS   H6Y 9172   4.166   0.058   7.711  1.5382 -2.1164  1.6218
   93SAPS   C37 9173   4.324   0.182   7.801  0.8975 -0.0724  1.2434
   93SAPS   H7X 9174   4.423   0.218   7.767  0.6765  0.2969  0.9771
   93SAPS   H7Y 9175   4.339   0.120   7.891  0.1500 -3.5713 -0.9589
   93SAPS   C38 9176   4.240   0.306   7.834 -0.3739  0.4973 -0.5828
   93SAPS   H8X 9177   4.210   0.369   7.747 -0.9505  2.1469  0.7907
   93SAPS   H8Y 9178   4.308   0.371   7.893 -0.2014 -1.1536  1.0943
   93SAPS   C39 9179   4.134   0.285   7.938 -0.2726 -0.1496  0.2172
   93SAPS   H9X 9180   4.034   0.247   7.908 -2.2778  3.5824  1.8700
   93SAPS   H9Y 9181   4.109   0.381   7.987 -0.6794 -0.2152  0.1359
   93SAPS  C310 9182   4.186   0.204   8.060 -0.6448 -1.1924 -0.4620
   93SAPS  H10X 9183   4.211   0.100   8.028  0.0438 -0.9112 -0.8518
   93SAPS  H10Y 9184   4.106   0.199   8.137  0.8633 -0.2548  1.2204
   93SAPS  C311 9185   4.307   0.262   8.135  0.4517  0.0445  0.8036
   93SAPS  H11X 9186   4.288   0.370   8.152 -0.7718  0.2497 -1.6648
   93SAPS  H11Y 9187   4.390   0.262   8.061  0.5465 -2.2568  0.8829
   93SAPS  C312 9188   4.345   0.200   8.267 -0.0402 -0.1686 -0.2607
   93SAPS  H12X 9189   4.394   0.102   8.247 -2.1147 -1.1925 -0.4787
   93SAPS  H12Y 9190   4.257   0.192   8.335  0.7743  0.0475  0.8435
   93SAPS  C313 9191   4.445   0.289   8.346 -0.3139 -0.2014  0.1974
   93SAPS  H13X 9192   4.405   0.381   8.395 -2.1865 -0.2148 -1.2395
   93SAPS  H13Y 9193   4.536   0.316   8.288 -0.3347 -2.0118 -0.7052
   93SAPS  C314 9194   4.513   0.216   8.468  0.5198  0.1290 -0.3803
   93SAPS  H14X 9195   4.582   0.139   8.428  1.8164  0.1711  1.6853
   93SAPS  H14Y 9196   4.428   0.160   8.514  0.5544 -0.8729 -1.5107
   93SAPS  C315 9197   4.591   0.301   8.567 -0.2919 -0.4172  0.5913
   93SAPS  H15X 9198   4.639   0.236   8.643  1.5600  1.0746  0.7100
   93SAPS  H15Y 9199   4.525   0.357   8.636  0.0691 -1.0639  1.4678
   93SAPS  C316 9200   4.692   0.399   8.511  0.3744 -0.5962 -0.0823
   93SAPS  H16X 9201   4.628   0.485   8.483  1.1514  0.8317  2.3687
   93SAPS  H16Y 9202   4.746   0.358   8.423  1.7654  0.5896  0.1978
   93SAPS  C317 9203   4.787   0.462   8.609 -0.2610 -0.3569  0.1053
   93SAPS  H17X 9204   4.849   0.396   8.673  2.1423  1.2810 -0.4439
   93SAPS  H17Y 9205   4.724   0.515   8.684 -0.4119 -0.2883 -0.0689
   93SAPS  C318 9206   4.880   0.569   8.542  0.0114  0.0198  0.4700
   93SAPS  H18X 9207   4.938   0.613   8.626 -0.8862  2.1876 -0.0186
   93SAPS  H18Y 9208   4.824   0.655   8.500 -1.4659  0.2263  2.7998
   93SAPS  H18Z 9209   4.932   0.514   8.460 -0.3399  0.8649 -0.3334
   94SAPS     N 9210   4.213   2.999   5.655  0.1359 -0.7336 -0.9292
   94SAPS   HN1 9211   4.195   2.947   5.567 -0.6330 -2.2894  0.1138
   94SAPS   HN2 9212   4.245   3.090   5.615 -0.8807  0.4439  0.8272
   94SAPS   HN3 9213   4.289   2.952   5.708 -0.8831  0.3412  1.5582
   94SAPS   C12 9214   4.083   3.020   5.728  1.0864  0.1874  0.5500
   94SAPS  H12A 9215   4.103   3.008   5.833  1.1560 -0.6098  0.4481
   94SAPS   C13 9216   4.025   3.165   5.685 -0.1373  0.4061  0.0544
   94SAPS  O13A 9217   4.103   3.247   5.638  0.5432  0.0468 -0.0414
   94SAPS  O13B 9218   3.912   3.196   5.740 -0.0502 -0.4978  0.4832
   94SAPS   C11 9219   3.971   2.914   5.685 -0.2539  0.7128  0.2391
   94SAPS  H11A 9220   3.944   2.938   5.580 -0.6563  0.6322  0.3216
   94SAPS  H11B 9221   3.877   2.925   5.744 -1.6262 -2.2723 -1.2871
   94SAPS     P 9222   4.035   2.700   5.816  0.1087  0.1058  0.2496
   94SAPS   O13 9223   3.906   2.710   5.890  0.0310 -0.0084  0.4183
   94SAPS   O14 9224   4.088   2.566   5.802 -0.5526 -0.5173 -0.0960
   94SAPS   O12 9225   4.024   2.778   5.681  0.9101  0.6678  0.1032
   94SAPS   O11 9226   4.146   2.789   5.883  0.0295 -0.0646 -1.2027
   94SAPS    C1 9227   4.278   2.739   5.915  0.5093 -0.1880 -0.5347
   94SAPS    HA 9228   4.298   2.630   5.903 -2.9838 -0.8686 -0.7922
   94SAPS    HB 9229   4.355   2.793   5.857  0.5562  0.0572 -0.2399
   94SAPS    C2 9230   4.306   2.744   6.063 -0.3925 -0.6982  0.1357
   94SAPS    HS 9231   4.405   2.695   6.072 -0.6056 -0.7161  2.7074
   94SAPS   O21 9232   4.197   2.680   6.140 -0.2916 -0.6197  0.3553
   94SAPS   C21 9233   4.240   2.607   6.243 -0.5012  0.0900  0.4585
   94SAPS   O22 9234   4.355   2.602   6.283 -0.3183 -0.6366 -0.7255
   94SAPS   C22 9235   4.127   2.509   6.290  0.3101  0.2739  0.5863
   94SAPS   H2R 9236   4.028   2.530   6.243  0.1836  0.6549  1.0141
   94SAPS   H2S 9237   4.172   2.409   6.274 -0.5481 -0.3207  1.8418
   94SAPS    C3 9238   4.316   2.891   6.122  0.6817  0.5048  0.2621
   94SAPS    HX 9239   4.213   2.933   6.126  0.8320  0.8526  0.4820
   94SAPS    HY 9240   4.368   2.961   6.053 -1.3430  0.7614 -1.0772
   94SAPS   O31 9241   4.374   2.900   6.250  0.2439  0.2488 -0.1986
   94SAPS   C31 9242   4.506   2.912   6.265  0.2371  0.1371  0.0832
   94SAPS   O32 9243   4.593   2.930   6.184  0.2988  0.0302  0.1053
   94SAPS   C32 9244   4.524   2.901   6.414  0.1511  0.3863  0.6104
   94SAPS   H2X 9245   4.491   2.805   6.459 -1.3356  1.7751  2.5563
   94SAPS   H2Y 9246   4.465   2.985   6.457 -0.3556  0.3700 -0.0399
   94SAPS   C23 9247   4.097   2.530   6.444 -0.2392 -0.0432  0.4092
   94SAPS   H3R 9248   4.199   2.547   6.486 -0.4725  0.7304  0.6882
   94SAPS   H3S 9249   4.046   2.441   6.485 -0.3956 -1.1349 -2.0484
   94SAPS   C24 9250   4.009   2.654   6.487 -0.0188 -0.6404 -0.0010
   94SAPS   H4R 9251   4.011   2.651   6.598  0.5608  3.2823  0.1671
   94SAPS   H4S 9252   3.904   2.627   6.464  0.2190 -0.7403 -0.9892
   94SAPS   C25 9253   4.037   2.787   6.435 -0.1102  0.0362 -0.3908
   94SAPS   H5R 9254   4.040   2.790   6.325 -0.1859 -3.0156 -0.5083
   94SAPS   C26 9255   4.082   2.890   6.511 -0.5576 -1.1046 -0.2169
   94SAPS   H6R 9256   4.105   2.986   6.463 -0.8302 -0.5877  0.6738
   94SAPS   C27 9257   4.109   2.885   6.660 -0.1145 -0.3588 -0.1469
   94SAPS   H7R 9258   4.019   2.838   6.706 -0.4013  0.9762  0.6826
   94SAPS   H7S 9259   4.096   2.985   6.707  0.5975  0.2773 -1.3000
   94SAPS   C28 9260   4.245   2.819   6.697 -0.0174 -0.0830 -0.0689
   94SAPS   H8R 9261   4.310   2.785   6.615  0.8686 -0.1104  0.6351
   94SAPS   C29 9262   4.292   2.787   6.816 -0.2013 -0.6885  0.3720
   94SAPS   H9R 9263   4.389   2.737   6.825  1.0884  1.5082 -0.9231
   94SAPS  C210 9264   4.225   2.816   6.940  0.1467  0.0369 -0.1243
   94SAPS  H10R 9265   4.154   2.897   6.915  1.6464  0.4837 -3.0987
   94SAPS  H10S 9266   4.296   2.867   7.009 -1.0937 -0.2471  1.3908
   94SAPS  C211 9267   4.172   2.694   7.011  0.1247  0.1152  0.8793
   94SAPS  H11R 9268   4.084   2.643   6.969 -0.0749  1.1287  0.0586
   94SAPS  C212 9269   4.213   2.653   7.128  1.0533 -0.1506  0.1353
   94SAPS  H12R 9270   4.157   2.569   7.173  0.5567  0.1189  0.0237
   94SAPS  C213 9271   4.327   2.703   7.213  0.0914 -0.4305 -0.1469
   94SAPS  H13R 9272   4.414   2.724   7.147 -0.2736  0.3198 -0.3875
   94SAPS  H13S 9273   4.369   2.613   7.264 -2.3477 -0.5698  1.6946
   94SAPS  C214 9274   4.295   2.814   7.311  0.2373 -0.1310 -0.2644
   94SAPS  H14R 9275   4.306   2.918   7.278  0.6238 -0.5665 -1.5427
   94SAPS  C215 9276   4.251   2.794   7.437  0.1692 -0.4863  0.0539
   94SAPS  H15R 9277   4.229   2.886   7.494 -4.5353 -1.4968  0.0788
   94SAPS  C216 9278   4.225   2.667   7.503  0.1290 -0.3844 -0.3631
   94SAPS  H16R 9279   4.297   2.591   7.463  1.7656  0.6561  0.5586
   94SAPS  H16S 9280   4.124   2.636   7.469  0.1145 -0.1974 -0.4880
   94SAPS  C217 9281   4.233   2.671   7.661 -0.2898  0.3398  0.0165
   94SAPS  H17R 9282   4.333   2.716   7.679  0.7691 -2.2402  0.8447
   94SAPS  H17S 9283   4.238   2.564   7.689  0.4697  0.5375  0.6504
   94SAPS  C218 9284   4.118   2.737   7.728  0.0459 -0.1872  0.1605
   94SAPS  H18R 9285   4.027   2.675   7.714  0.4386 -0.1052 -3.3458
   94SAPS  H18S 9286   4.114   2.840   7.688  1.8153 -0.4441 -0.7557
   94SAPS  C219 9287   4.139   2.737   7.876  0.7520  0.5084  0.2382
   94SAPS  H19R 9288   4.206   2.659   7.918 -2.3635 -0.9769  2.7112
   94SAPS  H19S 9289   4.051   2.686   7.922  1.0976 -0.3303 -0.0236
   94SAPS  C220 9290   4.168   2.875   7.940 -0.0904  0.5188 -0.5972
   94SAPS  H20R 9291   4.266   2.915   7.905  1.3515 -1.3926  1.0937
   94SAPS  H20S 9292   4.170   2.868   8.051 -0.2843 -3.0467 -0.7731
   94SAPS  H20T 9293   4.096   2.956   7.917 -1.1359 -0.2567 -0.0749
   94SAPS   C33 9294   4.671   2.929   6.442  0.0518 -0.5900  0.2602
   94SAPS   H3X 9295   4.715   3.029   6.421  0.6617 -1.2519 -1.7854
   94SAPS   H3Y 9296   4.743   2.857   6.399  0.0317 -0.3379 -0.1966
   94SAPS   C34 9297   4.697   2.916   6.592  0.7847  0.4632  0.3658
   94SAPS   H4X 9298   4.804   2.940   6.609  0.7396  0.5774  0.5007
   94SAPS   H4Y 9299   4.684   2.811   6.626  0.0587  1.1356  2.2573
   94SAPS   C35 9300   4.613   3.001   6.687 -0.2963  0.7433 -0.0095
   94SAPS   H5X 9301   4.503   2.984   6.686 -0.4066  1.1515  2.7210
   94SAPS   H5Y 9302   4.633   3.107   6.660 -0.9061  0.5432 -1.2890
   94SAPS   C36 9303   4.656   2.979   6.833  0.4812 -0.0770  0.0761
   94SAPS   H6X 9304   4.767   2.987   6.835  0.4738  0.9529 -2.0741
   94SAPS   H6Y 9305   4.626   2.874   6.856  0.3395  0.0163  0.3179
   94SAPS   C37 9306   4.607   3.083   6.928  0.0215  0.3589  0.0184
   94SAPS   H7X 9307   4.506   3.111   6.893 -0.5731 -2.4182 -0.6235
   94SAPS   H7Y 9308   4.673   3.172   6.917  0.0284  0.4890  1.0253
   94SAPS   C38 9309   4.607   3.031   7.071  0.8453 -0.0781  0.8350
   94SAPS   H8X 9310   4.711   2.997   7.087  1.0615  0.3552  0.3942
   94SAPS   H8Y 9311   4.549   2.936   7.070  1.6409 -0.5716  0.0269
   94SAPS   C39 9312   4.548   3.133   7.171  0.4877 -0.8461 -0.3021
   94SAPS   H9X 9313   4.440   3.148   7.149  0.6154 -2.0560 -1.8463
   94SAPS   H9Y 9314   4.599   3.228   7.148  0.9404 -0.3795  2.4723
   94SAPS  C310 9315   4.566   3.088   7.316  0.0103  0.3345 -0.0437
   94SAPS  H10X 9316   4.664   3.113   7.361 -0.3237 -1.0671  1.4837
   94SAPS  H10Y 9317   4.552   2.978   7.320  2.6778 -0.0739 -1.2823
   94SAPS  C311 9318   4.459   3.167   7.407  0.4837  0.1849 -0.0433
   94SAPS  H11X 9319   4.360   3.120   7.390  0.1268  1.6045 -2.1255
   94SAPS  H11Y 9320   4.439   3.270   7.370 -0.8448 -0.1997 -0.3938
   94SAPS  C312 9321   4.493   3.160   7.561 -0.0556 -0.0104 -0.2918
   94SAPS  H12X 9322   4.594   3.202   7.580  0.2887 -0.4327 -1.1224
   94SAPS  H12Y 9323   4.506   3.054   7.591 -1.7087 -0.7823 -2.1781
   94SAPS  C313 9324   4.394   3.241   7.640  0.0131  0.4275 -0.2421
   94SAPS  H13X 9325   4.296   3.207   7.600 -0.1419  1.2366 -0.5722
   94SAPS  H13Y 9326   4.402   3.345   7.602 -0.2076  0.9304  1.0392
   94SAPS  C314 9327   4.401   3.231   7.786 -0.3515 -0.2072  0.3794
   94SAPS  H14X 9328   4.507   3.221   7.816 -0.2790  2.6245  1.1773
   94SAPS  H14Y 9329   4.345   3.138   7.811  0.1940 -0.4472  0.7085
   94SAPS  C315 9330   4.352   3.353   7.857  0.3611 -0.2794 -0.1903
   94SAPS  H15X 9331   4.241   3.360   7.856  0.2868 -1.5788 -1.7969
   94SAPS  H15Y 9332   4.397   3.445   7.814  0.9476 -1.1254 -1.4054
   94SAPS  C316 9333   4.387   3.329   8.007  0.0226 -0.3877 -0.2235
   94SAPS  H16X 9334   4.352   3.421   8.059 -1.7839 -1.7602  1.0610
   94SAPS  H16Y 9335   4.496   3.309   8.015  0.2948  0.5795 -1.4111
   94SAPS  C317 9336   4.306   3.224   8.079 -0.3526 -0.3465 -0.4758
   94SAPS  H17X 9337   4.309   3.129   8.022 -0.4579  0.1126 -1.2467
   94SAPS  H17Y 9338   4.199   3.254   8.087 -0.0454  0.8435 -0.6447
   94SAPS  C318 9339   4.349   3.217   8.229 -0.1437 -0.3828 -0.0896
   94SAPS  H18X 9340   4.293   3.134   8.278  0.2000 -0.6995 -0.2298
   94SAPS  H18Y 9341   4.317   3.311   8.279 -0.5710 -0.0602 -0.9646
   94SAPS  H18Z 9342   4.458   3.204   8.242 -0.0773 -0.9273 -1.1612
   95SAPS     N 9343   6.698   0.262   6.021 -0.0582 -0.4596 -0.0752
   95SAPS   HN1 9344   6.657   0.199   5.949 -0.1363 -1.3855  0.7597
   95SAPS   HN2 9345   6.691   0.204   6.108  3.0395 -2.3881 -1.0471
   95SAPS   HN3 9346   6.644   0.351   6.019 -1.3816 -1.2552 -0.6233
   95SAPS   C12 9347   6.840   0.284   6.006  0.2516 -0.2412  0.1540
   95SAPS  H12A 9348   6.898   0.193   6.002 -2.3113 -1.9372  0.7854
   95SAPS   C13 9349   6.868   0.349   5.873 -0.2118 -0.5866 -0.0183
   95SAPS  O13A 9350   6.767   0.378   5.798 -0.2645  0.0147  0.4084
   95SAPS  O13B 9351   6.988   0.354   5.832 -0.3771  0.0568 -0.3797
   95SAPS   C11 9352   6.896   0.373   6.115  0.1759  0.0042 -0.0122
   95SAPS  H11A 9353   7.007   0.373   6.110  0.3393  3.6587  1.8589
   95SAPS  H11B 9354   6.857   0.327   6.207  0.1943  3.4707  1.8041
   95SAPS     P 9355   6.940   0.631   6.120  0.0902 -0.3275 -0.1626
   95SAPS   O13 9356   7.080   0.603   6.065 -0.1658 -0.4757 -0.1285
   95SAPS   O14 9357   6.873   0.753   6.082  0.5226 -0.5857  0.2038
   95SAPS   O12 9358   6.849   0.508   6.103  0.1939 -0.6947  0.8065
   95SAPS   O11 9359   6.949   0.632   6.278  0.6695  0.5451 -0.7362
   95SAPS    C1 9360   6.833   0.599   6.353 -0.3218  0.2355  0.5331
   95SAPS    HA 9361   6.737   0.603   6.295  0.5529 -0.6239 -1.0177
   95SAPS    HB 9362   6.836   0.493   6.387 -0.8630 -0.3143 -1.0340
   95SAPS    C2 9363   6.821   0.684   6.479 -0.2518  0.3469  0.8035
   95SAPS    HS 9364   6.792   0.788   6.457 -0.4151  0.4737  1.5873
   95SAPS   O21 9365   6.934   0.669   6.565 -0.4912  0.4349 -0.0050
   95SAPS   C21 9366   6.953   0.771   6.645 -0.0000  0.4345 -0.1512
   95SAPS   O22 9367   6.880   0.866   6.665  0.5664 -0.1234  0.0793
   95SAPS   C22 9368   7.101   0.762   6.697  0.5258  0.7459  0.0784
   95SAPS   H2R 9369   7.114   0.659   6.738 -0.8134  0.8767  0.8553
   95SAPS   H2S 9370   7.161   0.762   6.604  0.0886 -1.8555 -0.2533
   95SAPS    C3 9371   6.694   0.639   6.554 -0.4539 -0.2818 -1.2092
   95SAPS    HX 9372   6.606   0.662   6.491 -0.2395  0.9845 -1.0715
   95SAPS    HY 9373   6.685   0.697   6.648 -0.5494 -2.0341 -0.1219
   95SAPS   O31 9374   6.700   0.496   6.588  1.0402 -0.1579  0.2016
   95SAPS   C31 9375   6.695   0.464   6.718  0.2598 -1.0175 -0.6934
   95SAPS   O32 9376   6.715   0.538   6.812  0.0993  0.1167  0.0123
   95SAPS   C32 9377   6.666   0.320   6.749  0.5594 -0.3842 -0.5102
   95SAPS   H2X 9378   6.755   0.262   6.715 -0.3987 -2.2717  0.1416
   95SAPS   H2Y 9379   6.569   0.290   6.703 -0.6370 -1.0718  2.3941
   95SAPS   C23 9380   7.139   0.867   6.805 -0.3527 -0.3509 -0.3894
   95SAPS   H3R 9381   7.044   0.877   6.862  0.8125  4.4385  0.9074
   95SAPS   H3S 9382   7.151   0.963   6.750 -1.6799  1.0567  1.6855
   95SAPS   C24 9383   7.254   0.827   6.893 -0.2766 -0.8357 -0.2849
   95SAPS   H4R 9384   7.342   0.822   6.826 -1.3447  1.3894 -1.9333
   95SAPS   H4S 9385   7.241   0.721   6.926 -0.9631 -0.1534  1.7441
   95SAPS   C25 9386   7.278   0.916   7.011 -0.3172  0.2795 -1.0893
   95SAPS   H5R 9387   7.215   1.005   7.010 -0.9918 -0.1972 -2.1704
   95SAPS   C26 9388   7.366   0.896   7.112 -0.5412  0.5371  0.5388
   95SAPS   H6R 9389   7.364   0.962   7.200 -0.1827  0.4685  0.5992
   95SAPS   C27 9390   7.459   0.778   7.125 -0.5340 -0.3696 -0.2237
   95SAPS   H7R 9391   7.564   0.806   7.147 -0.3981 -0.9114 -0.1656
   95SAPS   H7S 9392   7.479   0.734   7.025 -1.3819 -0.3230 -0.4146
   95SAPS   C28 9393   7.402   0.666   7.204  0.7053  0.1908 -0.2158
   95SAPS   H8R 9394   7.346   0.594   7.142 -1.3824  0.6457  1.0794
   95SAPS   C29 9395   7.400   0.646   7.334  0.2664  0.2828  0.0054
   95SAPS   H9R 9396   7.337   0.565   7.373  0.7680  0.3212  0.9193
   95SAPS  C210 9397   7.455   0.725   7.448 -0.4642 -0.4405  0.2014
   95SAPS  H10R 9398   7.390   0.813   7.469 -0.3101 -0.7999  2.2574
   95SAPS  H10S 9399   7.545   0.783   7.418 -0.0733 -1.9774 -1.6402
   95SAPS  C211 9400   7.493   0.649   7.574  0.0126  0.1404 -0.5958
   95SAPS  H11R 9401   7.495   0.540   7.563  0.4876  0.0256  0.6217
   95SAPS  C212 9402   7.510   0.711   7.694  0.6043  0.5025  0.0676
   95SAPS  H12R 9403   7.529   0.652   7.785  2.1003 -0.7872 -1.0568
   95SAPS  C213 9404   7.510   0.861   7.727 -1.3039 -0.4625 -0.9453
   95SAPS  H13R 9405   7.531   0.920   7.635  1.1669 -1.6653 -1.1801
   95SAPS  H13S 9406   7.590   0.887   7.800 -1.2338 -1.8564 -0.5200
   95SAPS  C214 9407   7.375   0.910   7.783 -0.0812 -0.2786  0.8586
   95SAPS  H14R 9408   7.283   0.894   7.724  1.0603 -1.9291 -0.5165
   95SAPS  C215 9409   7.365   0.948   7.915  0.6404 -0.4683  0.2724
   95SAPS  H15R 9410   7.269   0.991   7.947  0.8835  1.6315 -1.6948
   95SAPS  C216 9411   7.472   0.960   8.020  0.7659 -0.4444 -0.1039
   95SAPS  H16R 9412   7.463   1.055   8.077 -0.1873 -0.0334 -0.9212
   95SAPS  H16S 9413   7.579   0.956   7.991  0.1084 -1.1991 -2.5040
   95SAPS  C217 9414   7.451   0.842   8.125 -0.0844 -0.3394 -0.1632
   95SAPS  H17R 9415   7.541   0.850   8.188 -1.0637  1.4653  1.0394
   95SAPS  H17S 9416   7.466   0.748   8.068 -4.2205 -1.1523 -0.0787
   95SAPS  C218 9417   7.319   0.822   8.195 -0.3497 -0.3742 -0.0346
   95SAPS  H18R 9418   7.246   0.800   8.114  2.0896 -0.3334 -2.3142
   95SAPS  H18S 9419   7.305   0.923   8.239  0.7701 -0.1897 -0.0777
   95SAPS  C219 9420   7.301   0.708   8.298  0.7366  0.0093  0.2173
   95SAPS  H19R 9421   7.359   0.730   8.390  0.9279 -0.6028  0.2448
   95SAPS  H19S 9422   7.343   0.616   8.252  0.9179  1.2892 -2.2716
   95SAPS  C220 9423   7.153   0.702   8.328 -0.1354 -0.1422 -0.2615
   95SAPS  H20R 9424   7.144   0.664   8.433  0.1309  1.2801  0.2861
   95SAPS  H20S 9425   7.110   0.618   8.269 -1.5945  1.4368 -1.5222
   95SAPS  H20T 9426   7.093   0.795   8.314 -0.3522 -0.6870 -3.1051
   95SAPS   C33 9427   6.665   0.287   6.906 -0.1997  0.5043  0.1413
   95SAPS   H3X 9428   6.623   0.382   6.946 -2.5840  0.2282 -1.6313
   95SAPS   H3Y 9429   6.770   0.271   6.938  0.0625  2.4849  0.3652
   95SAPS   C34 9430   6.570   0.174   6.934 -0.1122 -0.7629  0.2226
   95SAPS   H4X 9431   6.603   0.087   6.874 -2.8952 -0.5631 -1.6777
   95SAPS   H4Y 9432   6.469   0.209   6.906 -0.9639 -0.3187  3.5478
   95SAPS   C35 9433   6.576   0.127   7.078  0.3767 -0.4926  0.1779
   95SAPS   H5X 9434   6.670   0.068   7.092  1.3577  0.3359 -2.6675
   95SAPS   H5Y 9435   6.492   0.058   7.100  1.2367 -1.9252 -0.9254
   95SAPS   C36 9436   6.556   0.243   7.172  0.0077  0.1303 -0.2670
   95SAPS   H6X 9437   6.483   0.323   7.146 -0.2949  0.5568  1.7964
   95SAPS   H6Y 9438   6.652   0.299   7.171 -0.3304  0.9120  3.4801
   95SAPS   C37 9439   6.536   0.194   7.320 -0.2552 -0.5650  0.0924
   95SAPS   H7X 9440   6.634   0.154   7.350 -0.3961 -0.9248  0.0742
   95SAPS   H7Y 9441   6.462   0.111   7.315  0.9763 -1.6021 -1.3857
   95SAPS   C38 9442   6.483   0.293   7.424 -0.6164  0.0087  0.4432
   95SAPS   H8X 9443   6.385   0.332   7.388 -0.9815 -1.6366 -0.3859
   95SAPS   H8Y 9444   6.553   0.378   7.437 -0.5693  0.1999 -0.9747
   95SAPS   C39 9445   6.461   0.232   7.565  0.3090 -0.4422 -0.5492
   95SAPS   H9X 9446   6.562   0.214   7.608  0.6433 -0.1941 -1.2212
   95SAPS   H9Y 9447   6.421   0.128   7.568 -0.1375 -0.3269 -2.3026
   95SAPS  C310 9448   6.394   0.339   7.651 -0.1137 -0.9155 -0.5005
   95SAPS  H10X 9449   6.286   0.346   7.627 -0.2526 -1.2726  0.0210
   95SAPS  H10Y 9450   6.447   0.435   7.633  0.4942 -1.2840 -0.6782
   95SAPS  C311 9451   6.403   0.309   7.805  0.2203 -0.2765 -0.1205
   95SAPS  H11X 9452   6.507   0.329   7.838 -0.5196  1.2980  1.3433
   95SAPS  H11Y 9453   6.381   0.201   7.818  4.6110 -1.1515  0.6065
   95SAPS  C312 9454   6.316   0.396   7.888 -0.1281 -0.0277 -0.1242
   95SAPS  H12X 9455   6.213   0.370   7.857 -0.1545 -0.7832  0.5821
   95SAPS  H12Y 9456   6.333   0.505   7.872 -0.9949  0.0280 -0.6778
   95SAPS  C313 9457   6.329   0.368   8.036 -0.3225  0.4224  0.4287
   95SAPS  H13X 9458   6.428   0.390   8.082  0.2652 -0.9648 -0.1561
   95SAPS  H13Y 9459   6.315   0.258   8.031  0.9044  0.3134 -1.3065
   95SAPS  C314 9460   6.216   0.426   8.121 -0.4543  0.1724 -0.6525
   95SAPS  H14X 9461   6.117   0.389   8.085 -0.9286  1.5033 -0.7245
   95SAPS  H14Y 9462   6.217   0.533   8.092 -0.6190 -0.6631 -3.9152
   95SAPS  C315 9463   6.238   0.402   8.272 -0.0108  0.6623 -0.0258
   95SAPS  H15X 9464   6.340   0.434   8.300 -0.2616 -0.0750  1.8137
   95SAPS  H15Y 9465   6.235   0.292   8.284 -0.4093  0.9613  3.1721
   95SAPS  C316 9466   6.142   0.492   8.359  0.3814  0.4613 -0.2192
   95SAPS  H16X 9467   6.042   0.442   8.354  0.8578 -0.4558 -0.7250
   95SAPS  H16Y 9468   6.131   0.590   8.308  0.1363  0.5465 -0.0037
   95SAPS  C317 9469   6.203   0.510   8.494 -0.6083 -0.7719 -0.1807
   95SAPS  H17X 9470   6.310   0.535   8.478 -0.8343 -0.2253 -0.9065
   95SAPS  H17Y 9471   6.202   0.416   8.552 -0.6564 -0.5529  0.1738
   95SAPS  C318 9472   6.134   0.625   8.570 -0.2465  0.1346  0.4037
   95SAPS  H18X 9473   6.195   0.643   8.661  0.7733 -1.0351 -0.0290
   95SAPS  H18Y 9474   6.028   0.606   8.596 -1.3797  1.8235 -2.6964
   95SAPS  H18Z 9475   6.152   0.715   8.507  2.6171 -0.9029 -0.3350
   96SAPS     N 9476   1.550   1.782   6.292 -0.2719 -0.1230 -0.9580
   96SAPS   HN1 9477   1.638   1.808   6.243 -1.3273  2.6528 -1.4630
   96SAPS   HN2 9478   1.548   1.805   6.394 -4.1560  0.7049 -1.1399
   96SAPS   HN3 9479   1.548   1.679   6.281  0.7316 -0.2764  0.1808
   96SAPS   C12 9480   1.450   1.852   6.214 -0.7053 -0.3573 -0.0427
   96SAPS  H12A 9481   1.465   1.958   6.230  4.0441 -0.5044 -2.5136
   96SAPS   C13 9482   1.474   1.835   6.063  0.1114  0.2813  0.2463
   96SAPS  O13A 9483   1.564   1.757   6.023  0.0385 -0.3898  0.0345
   96SAPS  O13B 9484   1.408   1.908   5.981  0.3144 -0.1826 -0.6114
   96SAPS   C11 9485   1.307   1.811   6.247 -0.3370 -0.9502 -0.0588
   96SAPS  H11A 9486   1.290   1.704   6.221 -0.2890 -0.5413 -1.7782
   96SAPS  H11B 9487   1.236   1.864   6.180 -0.6571 -1.5396 -0.1853
   96SAPS     P 9488   1.206   1.960   6.435 -0.2981 -0.3052  0.0846
   96SAPS   O13 9489   1.290   2.073   6.381  0.3823 -0.5299 -0.1566
   96SAPS   O14 9490   1.061   1.965   6.400  0.0346  0.0140 -0.2540
   96SAPS   O12 9491   1.277   1.820   6.387 -0.2339  0.0417  0.6290
   96SAPS   O11 9492   1.225   1.953   6.595 -0.0554 -0.0069  0.0068
   96SAPS    C1 9493   1.305   1.846   6.649 -0.1135  0.3017  0.0971
   96SAPS    HA 9494   1.267   1.744   6.626  0.6627  0.1496 -0.5240
   96SAPS    HB 9495   1.407   1.871   6.614  0.2464 -0.1672  0.7921
   96SAPS    C2 9496   1.302   1.842   6.808 -0.0697  0.3086  0.1452
   96SAPS    HS 9497   1.361   1.754   6.843 -1.0271 -0.1875  0.5100
   96SAPS   O21 9498   1.171   1.845   6.856  0.6388 -0.7218 -0.0670
   96SAPS   C21 9499   1.125   1.718   6.889 -0.1102 -0.2084 -0.4789
   96SAPS   O22 9500   1.176   1.616   6.851 -0.0372 -0.0427 -0.0167
   96SAPS   C22 9501   1.001   1.725   6.988  0.4328 -0.5487 -0.2353
   96SAPS   H2R 9502   0.917   1.679   6.932 -1.6199  1.4913  1.1112
   96SAPS   H2S 9503   1.029   1.661   7.074 -0.8378  2.0225  2.1521
   96SAPS    C3 9504   1.377   1.966   6.873  0.0582  0.2121 -0.0933
   96SAPS    HX 9505   1.307   2.047   6.843  2.3102  1.3716 -2.4521
   96SAPS    HY 9506   1.477   1.992   6.832  0.5458 -2.4657 -0.6891
   96SAPS   O31 9507   1.383   1.955   7.017  0.5599  0.2094 -0.7055
   96SAPS   C31 9508   1.499   1.948   7.083  0.4432  0.4369  0.0998
   96SAPS   O32 9509   1.609   1.964   7.037  0.0152 -0.3624  0.4714
   96SAPS   C32 9510   1.470   1.917   7.227  0.1632  0.0638  0.9308
   96SAPS   H2X 9511   1.383   1.848   7.223  1.5472 -1.6755  0.2173
   96SAPS   H2Y 9512   1.434   2.012   7.273  1.3614  1.0203 -0.0540
   96SAPS   C23 9513   0.955   1.862   7.045 -0.1221 -0.0161 -0.0967
   96SAPS   H3R 9514   0.915   1.925   6.963 -0.4360  0.0265  0.0882
   96SAPS   H3S 9515   1.042   1.919   7.082 -0.5578  0.1732  0.6413
   96SAPS   C24 9516   0.852   1.850   7.159  0.8167  0.1879 -0.2140
   96SAPS   H4R 9517   0.843   1.943   7.219  1.5334  0.6444 -0.8050
   96SAPS   H4S 9518   0.884   1.779   7.239  1.4765  0.1068 -0.5431
   96SAPS   C25 9519   0.721   1.790   7.107 -0.0521 -0.3076 -0.5065
   96SAPS   H5R 9520   0.695   1.818   7.003  3.8315  2.0682 -0.9206
   96SAPS   C26 9521   0.626   1.711   7.174 -0.6287  0.2041  1.0373
   96SAPS   H6R 9522   0.538   1.684   7.115 -0.6307 -2.1270  2.0233
   96SAPS   C27 9523   0.634   1.666   7.317  0.0266  0.1459 -0.5827
   96SAPS   H7R 9524   0.662   1.756   7.376  2.1485 -1.2298  0.5663
   96SAPS   H7S 9525   0.714   1.589   7.328  0.9594  1.0905 -0.6455
   96SAPS   C28 9526   0.501   1.609   7.359  0.2484  0.2596 -0.1163
   96SAPS   H8R 9527   0.451   1.557   7.276 -1.6935  1.5527  0.2166
   96SAPS   C29 9528   0.437   1.622   7.478  0.5148  0.1049  0.0180
   96SAPS   H9R 9529   0.334   1.584   7.483 -0.3928  2.5628  0.7525
   96SAPS  C210 9530   0.479   1.689   7.609 -0.0018  0.3433 -0.6338
   96SAPS  H10R 9531   0.578   1.736   7.592  0.4382  0.0990  1.1969
   96SAPS  H10S 9532   0.494   1.609   7.684  0.7370  2.4366  1.4803
   96SAPS  C211 9533   0.373   1.790   7.652 -1.0771 -0.2925 -0.1460
   96SAPS  H11R 9534   0.365   1.881   7.591  0.5413 -0.5229 -0.7320
   96SAPS  C212 9535   0.317   1.806   7.768 -0.2416  0.7872  0.0650
   96SAPS  H12R 9536   0.264   1.899   7.793 -1.4110  0.5625 -1.4726
   96SAPS  C213 9537   0.337   1.704   7.882  0.0110 -0.4582 -0.5163
   96SAPS  H13R 9538   0.339   1.606   7.830  2.8390 -0.4113 -0.5839
   96SAPS  H13S 9539   0.242   1.713   7.939  0.1361  0.3011 -0.4253
   96SAPS  C214 9540   0.467   1.720   7.956 -0.8721 -0.3764 -0.3703
   96SAPS  H14R 9541   0.559   1.706   7.897 -0.0715 -1.1999  1.0503
   96SAPS  C215 9542   0.478   1.768   8.084  0.1263 -0.6118 -0.0928
   96SAPS  H15R 9543   0.581   1.779   8.121 -0.8058 -0.7125  2.6218
   96SAPS  C216 9544   0.360   1.799   8.181  0.9000  0.3861 -0.4945
   96SAPS  H16R 9545   0.263   1.758   8.144 -0.2617  1.2694  1.4518
   96SAPS  H16S 9546   0.344   1.907   8.199 -1.7605 -0.2296  1.1508
   96SAPS  C217 9547   0.374   1.731   8.314 -0.3527 -0.0496 -1.2399
   96SAPS  H17R 9548   0.473   1.693   8.345 -0.8873 -0.5596 -0.1342
   96SAPS  H17S 9549   0.312   1.639   8.310  1.5455 -1.4823  1.1697
   96SAPS  C218 9550   0.307   1.821   8.423  0.8381  0.2334 -0.3412
   96SAPS  H18R 9551   0.213   1.859   8.377 -0.6673  0.8351  3.1155
   96SAPS  H18S 9552   0.367   1.910   8.454 -0.3711  0.2418  2.0554
   96SAPS  C219 9553   0.264   1.752   8.554 -0.6184  0.0252  0.2415
   96SAPS  H19R 9554   0.357   1.705   8.592  0.8433  0.9199 -2.0825
   96SAPS  H19S 9555   0.184   1.679   8.530 -2.1543  1.3693  1.1152
   96SAPS  C220 9556   0.211   1.839   8.664  0.2896 -0.5499 -0.4149
   96SAPS  H20R 9557   0.294   1.897   8.709 -0.0831 -0.5688  0.3006
   96SAPS  H20S 9558   0.166   1.780   8.746 -1.6813  1.7152  0.1769
   96SAPS  H20T 9559   0.131   1.908   8.628 -1.7597 -2.1678  0.9512
   96SAPS   C33 9560   1.598   1.875   7.310 -1.0216 -0.1315  0.2002
   96SAPS   H3X 9561   1.679   1.950   7.295  0.5646 -1.6756  0.8977
   96SAPS   H3Y 9562   1.645   1.785   7.265  0.2118 -0.0056  1.1981
   96SAPS   C34 9563   1.568   1.854   7.463 -0.2300  0.6304  0.0369
   96SAPS   H4X 9564   1.655   1.811   7.517 -0.6134 -2.7387 -1.8471
   96SAPS   H4Y 9565   1.493   1.773   7.480  0.5639  0.2899  2.0845
   96SAPS   C35 9566   1.498   1.967   7.545 -0.3869 -0.1056  0.1316
   96SAPS   H5X 9567   1.413   2.001   7.482 -1.1085 -0.9890  0.6133
   96SAPS   H5Y 9568   1.566   2.053   7.557  0.9768 -1.1063 -0.3724
   96SAPS   C36 9569   1.439   1.921   7.680  0.0093 -0.2353  0.2537
   96SAPS   H6X 9570   1.400   1.817   7.668 -0.2113 -0.0953 -0.2305
   96SAPS   H6Y 9571   1.350   1.982   7.706  1.2026  1.6667 -0.0182
   96SAPS   C37 9572   1.537   1.910   7.794 -0.5891  0.2226 -0.5072
   96SAPS   H7X 9573   1.580   2.011   7.813 -2.7065  0.8021  1.4976
   96SAPS   H7Y 9574   1.628   1.849   7.775 -2.4995 -2.2289 -2.0268
   96SAPS   C38 9575   1.470   1.859   7.924 -0.6393  0.3134 -0.4627
   96SAPS   H8X 9576   1.443   1.755   7.894 -0.8100 -0.1235  1.1511
   96SAPS   H8Y 9577   1.384   1.915   7.965 -1.0687 -0.5918 -0.1224
   96SAPS   C39 9578   1.584   1.855   8.030  0.2751 -0.1959  0.5183
   96SAPS   H9X 9579   1.680   1.817   7.991 -0.2857 -0.9568 -0.1317
   96SAPS   H9Y 9580   1.540   1.782   8.102  0.5701  0.6887  1.6175
   96SAPS  C310 9581   1.610   1.985   8.104  0.1600  0.4513 -0.5909
   96SAPS  H10X 9582   1.514   2.024   8.144 -0.2394 -1.1743  0.0763
   96SAPS  H10Y 9583   1.639   2.059   8.027  1.5769 -1.0980 -1.5820
   96SAPS  C311 9584   1.707   1.969   8.217  0.1466  0.5149  0.8957
   96SAPS  H11X 9585   1.786   1.901   8.178 -1.3317 -1.0376  0.5361
   96SAPS  H11Y 9586   1.660   1.910   8.299 -2.0489  1.7522  0.5643
   96SAPS  C312 9587   1.780   2.095   8.266 -0.0830  0.2531 -0.4355
   96SAPS  H12X 9588   1.712   2.181   8.285  0.3842  0.9500 -1.8316
   96SAPS  H12Y 9589   1.858   2.121   8.191 -0.9323  1.0537 -1.0610
   96SAPS  C313 9590   1.853   2.066   8.397 -0.3810  0.0762  0.0841
   96SAPS  H13X 9591   1.896   1.965   8.388  2.0982  1.2591 -1.9805
   96SAPS  H13Y 9592   1.788   2.071   8.486  1.3941 -1.3842  1.4849
   96SAPS  C314 9593   1.971   2.163   8.424  0.1698 -0.2466  0.3649
   96SAPS  H14X 9594   1.919   2.260   8.410 -3.6006 -2.3995 -1.7217
   96SAPS  H14Y 9595   2.041   2.149   8.340  0.2888  1.1514  0.2301
   96SAPS  C315 9596   2.048   2.143   8.561  0.2753 -0.3794  0.2413
   96SAPS  H15X 9597   2.092   2.041   8.556  0.6093 -0.2426  0.3904
   96SAPS  H15Y 9598   1.977   2.150   8.646 -1.0203  0.1298 -0.8472
   96SAPS  C316 9599   2.163   2.248   8.584  0.2011  0.5692  0.7580
   96SAPS  H16X 9600   2.241   2.245   8.504  0.7147 -1.1804  1.3037
   96SAPS  H16Y 9601   2.220   2.213   8.673  0.0764 -0.0903  0.5776
   96SAPS  C317 9602   2.120   2.387   8.622 -0.0061  0.1208  0.1443
   96SAPS  H17X 9603   2.039   2.398   8.698 -0.5855 -0.9326 -0.2943
   96SAPS  H17Y 9604   2.058   2.425   8.537  0.1096  0.2247  0.1083
   96SAPS  C318 9605   2.232   2.480   8.657  0.7745 -0.0686 -0.6028
   96SAPS  H18X 9606   2.309   2.483   8.577 -0.9836  0.3246 -2.3215
   96SAPS  H18Y 9607   2.281   2.455   8.753  0.2647 -0.1561 -0.3615
   96SAPS  H18Z 9608   2.198   2.585   8.671  0.1062 -0.3512 -0.0887
   97SAPS     N 9609   1.979   6.569   6.284  0.0655  0.2677  0.3313
   97SAPS   HN1 9610   1.916   6.486   6.281  1.6459 -0.9456 -0.8888
   97SAPS   HN2 9611   2.070   6.551   6.236  0.9670  0.9931  1.7113
   97SAPS   HN3 9612   1.994   6.615   6.376  3.4689 -3.0787  1.6127
   97SAPS   C12 9613   1.913   6.677   6.203 -0.0608 -0.3658  0.7569
   97SAPS  H12A 9614   1.976   6.765   6.213 -1.7743  1.0586 -0.5931
   97SAPS   C13 9615   1.898   6.652   6.049 -0.4622 -0.4647 -0.2063
   97SAPS  O13A 9616   1.905   6.533   6.009  0.2333  0.6198 -0.5316
   97SAPS  O13B 9617   1.846   6.738   5.973  0.1061 -0.5686  0.2764
   97SAPS   C11 9618   1.778   6.704   6.276  0.5352 -0.0174  0.1039
   97SAPS  H11A 9619   1.719   6.611   6.283  0.9167 -0.3445 -0.9275
   97SAPS  H11B 9620   1.733   6.780   6.209 -0.2029 -1.0016 -0.5278
   97SAPS     P 9621   1.723   6.877   6.473 -0.0629 -0.4514  0.2490
   97SAPS   O13 9622   1.809   6.936   6.572 -0.8905 -0.2281 -0.3696
   97SAPS   O14 9623   1.666   6.965   6.368 -0.5410 -0.4768 -0.1520
   97SAPS   O12 9624   1.795   6.760   6.405  0.5602 -0.1571  0.3876
   97SAPS   O11 9625   1.608   6.805   6.555  0.0834  0.5977 -0.0321
   97SAPS    C1 9626   1.651   6.682   6.627  0.2323 -0.5098 -0.2328
   97SAPS    HA 9627   1.664   6.600   6.553 -0.5889  1.8386 -3.0977
   97SAPS    HB 9628   1.745   6.708   6.679  0.3958  1.3172 -1.3971
   97SAPS    C2 9629   1.546   6.651   6.740  0.4857  0.0662 -0.3575
   97SAPS    HS 9630   1.470   6.731   6.740 -0.5749 -0.9232 -1.6450
   97SAPS   O21 9631   1.623   6.652   6.862 -0.6036  0.2274 -0.2105
   97SAPS   C21 9632   1.575   6.692   6.974 -0.4506  0.3583  0.4478
   97SAPS   O22 9633   1.469   6.752   6.991 -0.5210  0.1290  0.1093
   97SAPS   C22 9634   1.683   6.664   7.085  0.7380 -0.8688 -0.3665
   97SAPS   H2R 9635   1.774   6.724   7.065 -0.3534  1.1743  0.5239
   97SAPS   H2S 9636   1.640   6.715   7.174 -3.1480 -0.5416 -2.3094
   97SAPS    C3 9637   1.472   6.514   6.732 -0.0934  0.8757 -0.8337
   97SAPS    HX 9638   1.546   6.433   6.721 -1.4857 -0.4305 -0.6871
   97SAPS    HY 9639   1.412   6.518   6.638 -3.6570  0.8467  1.3357
   97SAPS   O31 9640   1.392   6.475   6.851 -0.5476  0.4282 -0.6425
   97SAPS   C31 9641   1.281   6.526   6.864  0.9740 -0.0603 -0.0344
   97SAPS   O32 9642   1.228   6.604   6.791  0.4064 -0.1475 -0.7469
   97SAPS   C32 9643   1.219   6.461   6.993  0.5136  0.9787  0.2341
   97SAPS   H2X 9644   1.298   6.416   7.057 -0.9533 -0.0577  1.3713
   97SAPS   H2Y 9645   1.166   6.369   6.960  2.1134  0.1894 -0.1701
   97SAPS   C23 9646   1.708   6.517   7.112  0.2459  0.1607  0.3004
   97SAPS   H3R 9647   1.760   6.476   7.022  1.9027  0.1704  1.2287
   97SAPS   H3S 9648   1.608   6.471   7.117  0.5058 -0.3549  0.8241
   97SAPS   C24 9649   1.788   6.484   7.233 -0.2583 -0.4370  0.0271
   97SAPS   H4R 9650   1.888   6.532   7.236 -1.0307  1.4495 -2.5575
   97SAPS   H4S 9651   1.806   6.375   7.221  2.2805 -0.0538  0.0487
   97SAPS   C25 9652   1.706   6.498   7.356  0.0038 -0.1867  0.1913
   97SAPS   H5R 9653   1.596   6.498   7.355 -0.0364  1.2320  2.1270
   97SAPS   C26 9654   1.745   6.533   7.478 -0.1511  0.7401 -0.6004
   97SAPS   H6R 9655   1.668   6.533   7.556  1.1438  1.8632  0.7239
   97SAPS   C27 9656   1.886   6.555   7.533 -0.4447  0.1327  0.5324
   97SAPS   H7R 9657   1.955   6.572   7.447 -1.1795 -2.1571 -0.5585
   97SAPS   H7S 9658   1.931   6.468   7.586  1.2646  0.4877 -0.3016
   97SAPS   C28 9659   1.883   6.674   7.630  0.1445 -0.1315 -0.4449
   97SAPS   H8R 9660   1.879   6.772   7.581  0.6213  0.1376  0.0513
   97SAPS   C29 9661   1.886   6.674   7.763  0.2819  0.2105 -0.7258
   97SAPS   H9R 9662   1.862   6.769   7.813  0.7938 -0.5877  1.0757
   97SAPS  C210 9663   1.899   6.552   7.851 -0.6928  0.9344  0.4005
   97SAPS  H10R 9664   1.987   6.490   7.824 -1.6731  0.4989 -1.8811
   97SAPS  H10S 9665   1.815   6.483   7.831 -1.6503  1.6923  1.6998
   97SAPS  C211 9666   1.898   6.585   8.002 -0.0018  0.3300 -0.4351
   97SAPS  H11R 9667   1.990   6.588   8.063 -0.9938  1.1049  1.0701
   97SAPS  C212 9668   1.786   6.642   8.066 -0.0602  0.2748  0.1164
   97SAPS  H12R 9669   1.803   6.670   8.171  0.2705  1.9403 -0.3746
   97SAPS  C213 9670   1.649   6.675   8.012  0.9421  0.5729  0.8058
   97SAPS  H13R 9671   1.564   6.616   8.054  1.7582  0.4438  2.2838
   97SAPS  H13S 9672   1.653   6.636   7.908 -0.8115  2.2183  0.0824
   97SAPS  C214 9673   1.615   6.821   7.997  0.2544 -0.9575 -0.2340
   97SAPS  H14R 9674   1.698   6.893   7.999 -1.3989  0.9696  0.1203
   97SAPS  C215 9675   1.494   6.868   7.967 -0.7471 -0.1243 -0.8989
   97SAPS  H15R 9676   1.490   6.978   7.967  0.9419  0.0030  2.0067
   97SAPS  C216 9677   1.371   6.785   7.946 -0.0432  0.6267 -0.2572
   97SAPS  H16R 9678   1.278   6.817   7.998 -0.8535  0.1739 -1.3848
   97SAPS  H16S 9679   1.382   6.684   7.990 -0.9259  0.5267 -0.2656
   97SAPS  C217 9680   1.337   6.768   7.801  0.1423  0.0865 -0.5619
   97SAPS  H17R 9681   1.330   6.866   7.748 -1.0930 -0.7334 -1.9625
   97SAPS  H17S 9682   1.234   6.727   7.794  0.1183 -0.3304  1.8476
   97SAPS  C218 9683   1.431   6.666   7.730  0.2213 -0.1872  0.1541
   97SAPS  H18R 9684   1.474   6.590   7.799  0.1257 -0.7683 -0.4130
   97SAPS  H18S 9685   1.524   6.722   7.708  0.6207 -0.3162  1.4338
   97SAPS  C219 9686   1.378   6.611   7.596 -0.0252 -0.0744  0.8036
   97SAPS  H19R 9687   1.290   6.548   7.621  0.2736 -0.4674  0.8878
   97SAPS  H19S 9688   1.460   6.548   7.555  2.1472  2.2341  1.4621
   97SAPS  C220 9689   1.347   6.724   7.493 -0.2108  0.6812 -0.3014
   97SAPS  H20R 9690   1.359   6.698   7.386 -1.4379  4.3151 -1.3594
   97SAPS  H20S 9691   1.429   6.798   7.502  1.6614 -1.2581 -0.7963
   97SAPS  H20T 9692   1.247   6.769   7.506 -0.4565  0.4443 -1.3643
   97SAPS   C33 9693   1.123   6.553   7.067  0.1797 -0.1493  0.1567
   97SAPS   H3X 9694   1.031   6.575   7.008  0.4106 -0.2169 -0.2282
   97SAPS   H3Y 9695   1.177   6.649   7.083 -1.0464  0.6255 -0.2588
   97SAPS   C34 9696   1.085   6.512   7.208 -0.0819  0.5019  0.7996
   97SAPS   H4X 9697   1.179   6.505   7.266  0.4562  2.5507  0.2220
   97SAPS   H4Y 9698   1.023   6.420   7.214 -0.5372  0.8748  2.0816
   97SAPS   C35 9699   1.002   6.626   7.272 -0.0875  0.0580 -0.1921
   97SAPS   H5X 9700   0.910   6.638   7.211  0.3225 -0.2103 -0.8653
   97SAPS   H5Y 9701   1.062   6.719   7.270 -0.6301  0.4356  0.6876
   97SAPS   C36 9702   0.967   6.594   7.418 -0.6014  0.2640  0.3571
   97SAPS   H6X 9703   1.066   6.564   7.459 -0.8883  0.0088  0.8763
   97SAPS   H6Y 9704   0.914   6.497   7.434  0.6979 -0.7061 -1.0582
   97SAPS   C37 9705   0.908   6.709   7.501  0.6169 -0.3968 -0.7736
   97SAPS   H7X 9706   0.806   6.736   7.465  0.7740 -0.2669 -1.1264
   97SAPS   H7Y 9707   0.973   6.798   7.484 -0.9805  1.5976  3.0659
   97SAPS   C38 9708   0.901   6.669   7.642 -0.7122 -0.5109  0.0261
   97SAPS   H8X 9709   1.004   6.654   7.681 -0.2937  1.6980 -0.1423
   97SAPS   H8Y 9710   0.823   6.590   7.645 -1.4412  0.2287  1.4321
   97SAPS   C39 9711   0.851   6.785   7.732 -0.3933 -0.4682 -0.7734
   97SAPS   H9X 9712   0.751   6.820   7.697 -0.9158 -0.2372  0.9365
   97SAPS   H9Y 9713   0.927   6.862   7.706 -0.1879  0.1783  1.6286
   97SAPS  C310 9714   0.827   6.748   7.880  0.0834  0.2014  0.2353
   97SAPS  H10X 9715   0.804   6.640   7.887  0.7221 -0.0484 -1.2031
   97SAPS  H10Y 9716   0.744   6.817   7.908  0.3829  0.5324  0.3158
   97SAPS  C311 9717   0.937   6.795   7.977  0.4411  0.3643 -0.0042
   97SAPS  H11X 9718   0.968   6.899   7.950  2.6118  0.9375  4.3842
   97SAPS  H11Y 9719   1.024   6.732   7.951  0.1367  0.3001 -0.8836
   97SAPS  C312 9720   0.905   6.799   8.126 -0.5550 -0.5464  0.3067
   97SAPS  H12X 9721   0.995   6.842   8.175  1.5907 -1.8690 -2.3527
   97SAPS  H12Y 9722   0.888   6.697   8.167  0.7841 -0.5622  0.8447
   97SAPS  C313 9723   0.788   6.886   8.172 -0.4698 -0.6555  0.1397
   97SAPS  H13X 9724   0.695   6.837   8.135 -1.3227  0.7911  0.3242
   97SAPS  H13Y 9725   0.793   6.984   8.121 -3.0211 -1.4441 -1.7368
   97SAPS  C314 9726   0.787   6.918   8.322  0.2076  0.3924 -0.6312
   97SAPS  H14X 9727   0.862   6.997   8.347 -1.0561  1.4648 -0.1373
   97SAPS  H14Y 9728   0.811   6.822   8.373  0.1347  1.5603  1.6635
   97SAPS  C315 9729   0.661   6.970   8.382  0.2001  0.0976 -0.0136
   97SAPS  H15X 9730   0.587   6.887   8.368 -0.5452  0.8658 -0.7261
   97SAPS  H15Y 9731   0.635   7.062   8.326 -1.0233 -0.8086 -0.9642
   97SAPS  C316 9732   0.682   6.991   8.532 -0.1178  0.0206  0.0369
   97SAPS  H16X 9733   0.766   7.064   8.535  0.2408 -0.3994  0.1339
   97SAPS  H16Y 9734   0.713   6.904   8.594  0.2077 -0.0229 -0.1892
   97SAPS  C317 9735   0.568   7.067   8.603 -0.1366  0.7265  0.2713
   97SAPS  H17X 9736   0.600   7.078   8.708  0.4352 -0.8120  0.2636
   97SAPS  H17Y 9737   0.478   7.003   8.600  1.4439 -1.5634  0.5064
   97SAPS  C318 9738   0.542   7.201   8.541  1.1230 -0.2513  0.7351
   97SAPS  H18X 9739   0.515   7.187   8.434  0.8901 -2.3237  1.0372
   97SAPS  H18Y 9740   0.627   7.272   8.545  2.2702 -1.6467  1.5609
   97SAPS  H18Z 9741   0.464   7.256   8.600 -0.0512 -0.6293 -0.4383
   98SAPS     N 9742   6.172   6.700   6.298  0.0755 -0.4807 -0.4056
   98SAPS   HN1 9743   6.079   6.663   6.269  0.6420 -2.0158 -0.2906
   98SAPS   HN2 9744   6.234   6.629   6.340 -2.7161 -2.2247  0.9642
   98SAPS   HN3 9745   6.149   6.777   6.365  0.8799 -1.5805  1.1750
   98SAPS   C12 9746   6.242   6.762   6.184  0.2535 -0.8332  0.1872
   98SAPS  H12A 9747   6.289   6.683   6.127  1.6840  0.2318 -0.1319
   98SAPS   C13 9748   6.165   6.855   6.091  0.5243 -0.2594  0.5691
   98SAPS  O13A 9749   6.047   6.880   6.127  0.4191  0.2224 -0.1505
   98SAPS  O13B 9750   6.217   6.882   5.982 -0.4426 -0.1250  0.8658
   98SAPS   C11 9751   6.361   6.846   6.237 -0.8183  0.3989  0.6500
   98SAPS  H11A 9752   6.332   6.920   6.314  1.2321  0.2505  1.5905
   98SAPS  H11B 9753   6.408   6.895   6.150  0.6529  0.1777  1.3171
   98SAPS     P 9754   6.606   6.778   6.312 -0.1121  0.3295 -0.0408
   98SAPS   O13 9755   6.670   6.652   6.275  0.1215  0.1110  0.4589
   98SAPS   O14 9756   6.649   6.897   6.234 -0.2770 -0.6704 -0.2492
   98SAPS   O12 9757   6.448   6.754   6.303 -0.3125 -0.2189 -0.0800
   98SAPS   O11 9758   6.634   6.805   6.459 -0.9467  0.6611 -0.0706
   98SAPS    C1 9759   6.559   6.810   6.580  0.0635 -0.2632 -0.5199
   98SAPS    HA 9760   6.621   6.870   6.650  0.0057  2.5717 -2.7709
   98SAPS    HB 9761   6.463   6.860   6.555 -1.2510 -3.1783 -1.5004
   98SAPS    C2 9762   6.524   6.670   6.635 -0.2216 -0.3270 -0.2014
   98SAPS    HS 9763   6.459   6.608   6.569  1.1039  0.2653 -2.1080
   98SAPS   O21 9764   6.457   6.688   6.764  0.1852 -0.0488  0.2532
   98SAPS   C21 9765   6.333   6.709   6.758 -0.3886  0.1785  0.6963
   98SAPS   O22 9766   6.268   6.726   6.659 -0.0953 -0.2324  0.3794
   98SAPS   C22 9767   6.277   6.710   6.898 -1.1716  0.7238  0.5488
   98SAPS   H2R 9768   6.246   6.606   6.919  1.0220 -0.3836 -1.5446
   98SAPS   H2S 9769   6.353   6.748   6.970  0.6550 -0.0371 -0.9322
   98SAPS    C3 9770   6.645   6.582   6.664 -0.1392 -0.1613  0.1008
   98SAPS    HX 9771   6.686   6.542   6.569  1.0921 -0.5780  0.8035
   98SAPS    HY 9772   6.611   6.494   6.724 -1.3499 -0.6672 -1.2967
   98SAPS   O31 9773   6.736   6.651   6.743 -0.0016 -0.9979  0.3654
   98SAPS   C31 9774   6.853   6.694   6.693 -0.0116  1.0316 -0.0420
   98SAPS   O32 9775   6.910   6.643   6.597 -0.3686  0.9039 -0.2092
   98SAPS   C32 9776   6.912   6.784   6.789  0.3633 -0.5853  0.0561
   98SAPS   H2X 9777   6.847   6.806   6.876 -0.2773  3.4190 -1.3272
   98SAPS   H2Y 9778   6.928   6.882   6.739  0.2704  0.9580  2.9444
   98SAPS   C23 9779   6.144   6.789   6.910  0.7698 -0.0969 -0.5526
   98SAPS   H3R 9780   6.065   6.730   6.859  1.4163 -1.6350  0.1965
   98SAPS   H3S 9781   6.144   6.885   6.853  0.2471 -0.1816 -0.6962
   98SAPS   C24 9782   6.111   6.812   7.056 -0.0692 -0.3036  0.1076
   98SAPS   H4R 9783   6.142   6.726   7.119 -0.9282  0.8543  2.1352
   98SAPS   H4S 9784   6.001   6.806   7.070 -0.0717 -0.6916 -0.0673
   98SAPS   C25 9785   6.186   6.935   7.107  0.1899 -0.3507 -0.3136
   98SAPS   H5R 9786   6.262   6.981   7.042  1.5426  0.3969  1.7237
   98SAPS   C26 9787   6.171   6.973   7.237  0.0326 -0.1979 -0.1466
   98SAPS   H6R 9788   6.222   7.066   7.268 -0.5074 -0.3750  1.3091
   98SAPS   C27 9789   6.084   6.910   7.340 -0.4665 -0.9239 -0.6632
   98SAPS   H7R 9790   6.042   6.813   7.305  0.1094 -1.8534  1.1395
   98SAPS   H7S 9791   5.993   6.973   7.352  0.1852 -0.3819  1.7025
   98SAPS   C28 9792   6.148   6.899   7.475 -0.2008 -0.2924 -0.8459
   98SAPS   H8R 9793   6.247   6.851   7.475  0.7518  1.5809  0.8708
   98SAPS   C29 9794   6.089   6.942   7.591 -0.7681 -0.1964 -0.4204
   98SAPS   H9R 9795   6.135   6.915   7.687 -1.6804  1.6675  0.5557
   98SAPS  C210 9796   5.957   7.020   7.612 -0.3404 -0.0221  0.6750
   98SAPS  H10R 9797   5.881   6.941   7.632 -0.1567 -1.2224 -3.0012
   98SAPS  H10S 9798   5.927   7.074   7.520  0.5101 -0.2915  0.2332
   98SAPS  C211 9799   5.964   7.125   7.723 -0.2160  0.6955  0.5151
   98SAPS  H11R 9800   6.059   7.179   7.720 -0.1057  0.4121 -3.3645
   98SAPS  C212 9801   5.868   7.140   7.818 -0.0208 -0.0348  0.3509
   98SAPS  H12R 9802   5.878   7.219   7.894 -1.8094 -0.1231  0.6912
   98SAPS  C213 9803   5.747   7.048   7.829 -0.1189 -0.7994  0.5418
   98SAPS  H13R 9804   5.708   7.032   7.727 -0.7968  0.7201  0.5563
   98SAPS  H13S 9805   5.666   7.099   7.885 -0.2583 -0.5805  0.1383
   98SAPS  C214 9806   5.766   6.913   7.883  0.1746 -0.2883 -0.3592
   98SAPS  H14R 9807   5.780   6.835   7.807  1.8931  0.6670 -1.0581
   98SAPS  C215 9808   5.795   6.875   8.007  0.3033  0.2563 -0.4779
   98SAPS  H15R 9809   5.815   6.769   8.026  2.4382  0.7266  0.0886
   98SAPS  C216 9810   5.809   6.971   8.125  0.2566  0.1219  0.2730
   98SAPS  H16R 9811   5.736   6.967   8.209  1.4952  0.6196  1.3947
   98SAPS  H16S 9812   5.818   7.077   8.091  2.1658 -0.3422 -0.7509
   98SAPS  C217 9813   5.945   6.944   8.187 -0.4354  0.3486  0.0206
   98SAPS  H17R 9814   5.958   7.013   8.274  0.0911 -1.3347  1.3073
   98SAPS  H17S 9815   6.039   6.970   8.133 -0.6147  0.0148 -0.4486
   98SAPS  C218 9816   5.961   6.801   8.250  0.8956 -0.3953 -0.0735
   98SAPS  H18R 9817   5.972   6.725   8.169 -2.2823  0.8974 -1.8310
   98SAPS  H18S 9818   5.869   6.795   8.311  1.9400  0.0129  1.5627
   98SAPS  C219 9819   6.074   6.783   8.347 -0.3632 -0.2740  0.3680
   98SAPS  H19R 9820   6.060   6.688   8.403 -2.2513 -1.5043 -2.0900
   98SAPS  H19S 9821   6.067   6.855   8.431 -4.3340 -0.7937  0.5602
   98SAPS  C220 9822   6.214   6.778   8.286 -0.0264 -0.4671 -0.7120
   98SAPS  H20R 9823   6.298   6.791   8.358 -0.4401  0.9013 -0.4697
   98SAPS  H20S 9824   6.234   6.862   8.217  0.3946 -1.7495 -2.1645
   98SAPS  H20T 9825   6.221   6.682   8.231  1.3566 -1.8760  1.8210
   98SAPS   C33 9826   7.040   6.722   6.857 -0.1607 -0.5271  0.0742
   98SAPS   H3X 9827   7.121   6.745   6.785 -1.6947  0.5049 -1.3788
   98SAPS   H3Y 9828   7.017   6.614   6.871  1.4178 -0.6061  2.2940
   98SAPS   C34 9829   7.055   6.792   6.990  0.4602  0.1448  0.7956
   98SAPS   H4X 9830   7.049   6.902   6.977  0.0876 -0.0193 -0.4836
   98SAPS   H4Y 9831   7.160   6.765   7.016  0.3141 -1.5580 -0.2693
   98SAPS   C35 9832   6.959   6.741   7.101  0.1556 -0.0584  0.0490
   98SAPS   H5X 9833   6.973   6.632   7.115 -1.1497  0.0210  2.1880
   98SAPS   H5Y 9834   6.852   6.748   7.070 -0.4698 -0.2896  2.0864
   98SAPS   C36 9835   6.975   6.815   7.239 -0.2650  0.6677  0.3573
   98SAPS   H6X 9836   6.964   6.924   7.224 -0.5255  0.8116  1.5134
   98SAPS   H6Y 9837   7.080   6.811   7.276 -0.5598  0.7995  1.2086
   98SAPS   C37 9838   6.893   6.758   7.349  0.3014  0.0506 -0.7788
   98SAPS   H7X 9839   6.909   6.648   7.348 -0.1098 -0.0058 -1.0712
   98SAPS   H7Y 9840   6.786   6.787   7.339  0.5490  0.2807 -3.0720
   98SAPS   C38 9841   6.946   6.805   7.491 -0.7008  0.8312  0.7589
   98SAPS   H8X 9842   6.960   6.915   7.494 -0.4429  0.8819 -1.2489
   98SAPS   H8Y 9843   7.051   6.772   7.503 -0.7829 -0.1808 -1.1720
   98SAPS   C39 9844   6.869   6.757   7.615 -0.1688  0.2157  0.8605
   98SAPS   H9X 9845   6.918   6.665   7.656 -0.1746 -0.3971 -0.4628
   98SAPS   H9Y 9846   6.769   6.740   7.570  1.2033  0.1860 -2.3160
   98SAPS  C310 9847   6.873   6.863   7.730 -0.2373  0.4119 -0.2554
   98SAPS  H10X 9848   6.838   6.959   7.687  0.8940  0.5006 -0.9847
   98SAPS  H10Y 9849   6.977   6.886   7.763  0.2151  0.4347 -1.6895
   98SAPS  C311 9850   6.785   6.834   7.857  0.4694  0.1412  0.6518
   98SAPS  H11X 9851   6.682   6.811   7.824 -0.7171  3.4471  1.8322
   98SAPS  H11Y 9852   6.786   6.919   7.928  1.5149 -0.0060  0.8205
   98SAPS  C312 9853   6.832   6.706   7.931 -0.5296 -0.0395 -0.1510
   98SAPS  H12X 9854   6.931   6.744   7.963 -1.6259  0.2140  3.0791
   98SAPS  H12Y 9855   6.843   6.622   7.858  1.7997 -0.4690  0.6630
   98SAPS  C313 9856   6.744   6.682   8.057 -0.0002 -0.0017  0.5877
   98SAPS  H13X 9857   6.643   6.650   8.026  0.8810  0.2441 -2.6749
   98SAPS  H13Y 9858   6.737   6.779   8.113  1.3201 -1.0502  2.6283
   98SAPS  C314 9859   6.800   6.582   8.160 -0.3750  0.6122 -0.0384
   98SAPS  H14X 9860   6.886   6.630   8.212 -1.0947  0.9156  0.8667
   98SAPS  H14Y 9861   6.855   6.502   8.106  3.3847  2.5367  0.7533
   98SAPS  C315 9862   6.703   6.529   8.264 -0.4593 -0.6177 -0.0171
   98SAPS  H15X 9863   6.609   6.498   8.212 -1.0461  0.1617  0.5577
   98SAPS  H15Y 9864   6.668   6.611   8.331 -2.6814 -0.7198 -0.9853
   98SAPS  C316 9865   6.767   6.402   8.333 -0.4330 -0.6323  0.3430
   98SAPS  H16X 9866   6.871   6.426   8.363 -0.3847 -0.8608  0.3611
   98SAPS  H16Y 9867   6.780   6.330   8.249  2.0173 -1.5053  1.4238
   98SAPS  C317 9868   6.694   6.332   8.448 -0.0194  0.1193  0.1370
   98SAPS  H17X 9869   6.757   6.253   8.495 -1.3307 -1.1322 -0.1859
   98SAPS  H17Y 9870   6.601   6.284   8.411  0.0844  0.2649 -0.3248
   98SAPS  C318 9871   6.670   6.438   8.561 -0.7320 -0.0740  0.0690
   98SAPS  H18X 9872   6.613   6.388   8.643  2.8093 -1.5328  1.7564
   98SAPS  H18Y 9873   6.599   6.512   8.519 -2.9661 -1.6008  0.9816
   98SAPS  H18Z 9874   6.762   6.488   8.597 -1.7298  3.5367 -2.2164
   99SAPS     N 9875   6.427   4.444   6.481  0.0143  0.2340 -0.4753
   99SAPS   HN1 9876   6.472   4.517   6.541  0.6118 -0.8326  0.3885
   99SAPS   HN2 9877   6.384   4.368   6.537  0.1425  2.5249  2.8377
   99SAPS   HN3 9878   6.510   4.400   6.435  1.0313  1.2768  0.3304
   99SAPS   C12 9879   6.336   4.513   6.378 -0.2931 -0.0462  0.0944
   99SAPS  H12A 9880   6.272   4.586   6.426  0.3204  0.7078 -0.2296
   99SAPS   C13 9881   6.404   4.566   6.248 -0.2951 -1.0202 -0.0219
   99SAPS  O13A 9882   6.531   4.557   6.240  0.1834  0.5137  0.6115
   99SAPS  O13B 9883   6.335   4.628   6.164  0.3527 -0.9646 -0.6303
   99SAPS   C11 9884   6.239   4.402   6.321  0.2884  0.0758  0.1976
   99SAPS  H11A 9885   6.288   4.334   6.248 -0.0301  0.3369 -0.2559
   99SAPS  H11B 9886   6.160   4.463   6.275 -1.2852 -1.4073  0.8697
   99SAPS     P 9887   6.049   4.254   6.437 -0.4726 -0.1086  0.1288
   99SAPS   O13 9888   5.946   4.353   6.405  0.2942 -0.2639  0.3191
   99SAPS   O14 9889   6.058   4.135   6.353 -0.6813  0.3445 -0.6646
   99SAPS   O12 9890   6.188   4.328   6.438 -0.3545 -0.1788 -0.1375
   99SAPS   O11 9891   6.030   4.213   6.586 -0.3657  0.5967  0.1512
   99SAPS    C1 9892   6.059   4.311   6.689  0.4315 -0.0334 -0.1723
   99SAPS    HA 9893   6.169   4.325   6.700  0.2794  1.3781 -0.4045
   99SAPS    HB 9894   6.018   4.412   6.668 -0.8602 -0.8762 -1.7247
   99SAPS    C2 9895   5.999   4.279   6.830  0.6375 -0.0559  0.3686
   99SAPS    HS 9896   6.053   4.190   6.868 -0.3556 -0.1718  1.5348
   99SAPS   O21 9897   5.853   4.261   6.823  0.4087 -0.2193 -0.5107
   99SAPS   C21 9898   5.798   4.218   6.933 -0.0758  0.0016 -0.1193
   99SAPS   O22 9899   5.855   4.198   7.039  0.0332  0.0319 -0.0238
   99SAPS   C22 9900   5.651   4.186   6.904 -0.2074  0.5658  0.8210
   99SAPS   H2R 9901   5.598   4.280   6.929  1.5194  2.2834 -1.7110
   99SAPS   H2S 9902   5.637   4.170   6.795  1.3613 -2.4365  1.0021
   99SAPS    C3 9903   6.044   4.379   6.932  0.2025 -0.0656 -0.3628
   99SAPS    HX 9904   6.015   4.359   7.037  0.6381  0.1527 -0.1992
   99SAPS    HY 9905   5.985   4.470   6.908  0.2436 -0.2675 -1.2773
   99SAPS   O31 9906   6.189   4.401   6.919  0.0857 -0.3500 -0.6050
   99SAPS   C31 9907   6.239   4.523   6.977  0.0709  0.0081  0.0795
   99SAPS   O32 9908   6.178   4.593   7.052 -0.0687  0.2861  0.2199
   99SAPS   C32 9909   6.386   4.528   6.944 -0.0765 -1.0679 -1.0230
   99SAPS   H2X 9910   6.414   4.604   6.868  1.4828 -1.1115 -0.5143
   99SAPS   H2Y 9911   6.402   4.428   6.898  0.3392 -1.5125  0.0624
   99SAPS   C23 9912   5.606   4.057   6.983 -0.0489 -0.9445  0.0043
   99SAPS   H3R 9913   5.666   4.043   7.076 -1.2969 -1.1368  0.7857
   99SAPS   H3S 9914   5.633   3.969   6.921  0.9587 -0.8580  0.3002
   99SAPS   C24 9915   5.459   4.052   7.013  0.1955  0.0556  0.5332
   99SAPS   H4R 9916   5.448   4.123   7.099  0.1670  0.2635  0.3582
   99SAPS   H4S 9917   5.429   3.949   7.044 -0.4630  0.2820  0.6609
   99SAPS   C25 9918   5.374   4.100   6.900  0.3999  0.2966  0.6319
   99SAPS   H5R 9919   5.397   4.057   6.802  1.1303  2.5388 -0.2010
   99SAPS   C26 9920   5.275   4.187   6.903  0.1296 -0.1204 -0.0786
   99SAPS   H6R 9921   5.221   4.203   6.808  0.6748  1.8678 -0.0837
   99SAPS   C27 9922   5.239   4.265   7.029 -0.4632  0.2808 -0.1354
   99SAPS   H7R 9923   5.298   4.359   7.020 -2.7525  1.9920  1.8365
   99SAPS   H7S 9924   5.262   4.217   7.127  0.0243 -0.5885 -0.6688
   99SAPS   C28 9925   5.095   4.308   7.038  0.8434  0.3504 -0.2002
   99SAPS   H8R 9926   5.042   4.326   6.943  0.8569  1.0672 -0.0765
   99SAPS   C29 9927   5.020   4.341   7.144  0.3093 -0.2867 -0.5058
   99SAPS   H9R 9928   4.914   4.371   7.132  0.8533  1.1842 -1.9163
   99SAPS  C210 9929   5.062   4.330   7.290 -0.2034  0.2590 -0.4999
   99SAPS  H10R 9930   5.081   4.223   7.310 -0.0686  0.2219 -0.8291
   99SAPS  H10S 9931   4.973   4.355   7.353 -1.0506 -0.7540 -1.2903
   99SAPS  C211 9932   5.166   4.428   7.350  0.4887  0.1898  0.7412
   99SAPS  H11R 9933   5.216   4.486   7.271  0.0871 -1.5040 -0.7950
   99SAPS  C212 9934   5.185   4.464   7.478 -0.9035 -0.2439 -0.4195
   99SAPS  H12R 9935   5.280   4.517   7.497 -1.0019 -0.0598 -0.4495
   99SAPS  C213 9936   5.114   4.410   7.601  0.0363  0.3611  0.6728
   99SAPS  H13R 9937   5.138   4.305   7.626  0.2962  0.9215  2.8535
   99SAPS  H13S 9938   5.006   4.403   7.577  0.1391 -1.7178  0.7633
   99SAPS  C214 9939   5.139   4.482   7.731 -0.0596 -0.5788 -0.0182
   99SAPS  H14R 9940   5.053   4.540   7.767 -1.7061 -3.1566  0.3234
   99SAPS  C215 9941   5.243   4.474   7.815  0.0982 -0.6093  0.7950
   99SAPS  H15R 9942   5.248   4.545   7.899 -1.6610  0.6215 -0.1218
   99SAPS  C216 9943   5.366   4.386   7.805  0.3278 -0.4744 -0.0099
   99SAPS  H16R 9944   5.385   4.345   7.704  2.9250  0.3853  0.0663
   99SAPS  H16S 9945   5.357   4.295   7.868 -1.3043 -0.2426  0.1097
   99SAPS  C217 9946   5.487   4.464   7.841  0.6910 -0.1154  0.3811
   99SAPS  H17R 9947   5.486   4.499   7.946  0.6602 -0.6344  0.5565
   99SAPS  H17S 9948   5.500   4.537   7.758 -3.4020  0.4374  0.0930
   99SAPS  C218 9949   5.610   4.373   7.842 -0.4624  0.4248 -0.0971
   99SAPS  H18R 9950   5.607   4.296   7.762  0.5260  0.1713  0.1034
   99SAPS  H18S 9951   5.611   4.319   7.939  0.1938  1.2100  0.3351
   99SAPS  C219 9952   5.739   4.446   7.833 -0.2968 -0.2967 -0.4866
   99SAPS  H19R 9953   5.756   4.519   7.915 -1.0930  0.2223 -0.7695
   99SAPS  H19S 9954   5.738   4.521   7.751 -1.1524  2.7055  2.1468
   99SAPS  C220 9955   5.856   4.350   7.826 -0.7673 -0.4051 -0.2405
   99SAPS  H20R 9956   5.864   4.310   7.723  1.1251  0.9867 -0.6518
   99SAPS  H20S 9957   5.831   4.261   7.887  0.9428  1.2646  3.0156
   99SAPS  H20T 9958   5.952   4.395   7.859 -0.0560 -1.0186 -1.4329
   99SAPS   C33 9959   6.472   4.537   7.071 -0.1141 -0.0351  0.7138
   99SAPS   H3X 9960   6.577   4.502   7.060  0.0652 -0.0102  2.2428
   99SAPS   H3Y 9961   6.427   4.488   7.160  1.8766  1.4320  2.5768
   99SAPS   C34 9962   6.494   4.683   7.120 -0.2698  0.0711  0.7776
   99SAPS   H4X 9963   6.404   4.721   7.173 -1.7333 -3.6841  1.1273
   99SAPS   H4Y 9964   6.512   4.745   7.030  4.3708  1.3937  2.4372
   99SAPS   C35 9965   6.626   4.700   7.201 -0.7278  0.2253 -0.2923
   99SAPS   H5X 9966   6.633   4.797   7.256  2.3001  0.4083 -0.8911
   99SAPS   H5Y 9967   6.697   4.720   7.117  0.5822 -0.7262  0.5623
   99SAPS   C36 9968   6.671   4.587   7.301  0.4208  0.5455  0.5356
   99SAPS   H6X 9969   6.777   4.604   7.328  0.6245  0.1184  0.0166
   99SAPS   H6Y 9970   6.655   4.483   7.264  1.2318  0.0541  1.5313
   99SAPS   C37 9971   6.582   4.581   7.428 -0.1832  1.0891  0.0706
   99SAPS   H7X 9972   6.494   4.516   7.404  1.1615 -0.5854 -0.4827
   99SAPS   H7Y 9973   6.545   4.685   7.438  0.1193  1.4446 -2.2502
   99SAPS   C38 9974   6.645   4.540   7.563  1.0339  0.0431 -0.6152
   99SAPS   H8X 9975   6.719   4.615   7.600 -0.6136  1.5220 -0.2401
   99SAPS   H8Y 9976   6.703   4.446   7.563  0.5796 -0.2429  0.7262
   99SAPS   C39 9977   6.537   4.518   7.672  0.3320 -0.0898 -0.2835
   99SAPS   H9X 9978   6.468   4.433   7.655  0.8566 -0.5049 -0.3424
   99SAPS   H9Y 9979   6.476   4.609   7.688  1.2731  0.5466 -0.2501
   99SAPS  C310 9980   6.614   4.478   7.801  0.6859  0.2721  0.3180
   99SAPS  H10X 9981   6.695   4.550   7.825  0.1501  1.5952 -1.6717
   99SAPS  H10Y 9982   6.663   4.380   7.783  0.0644 -0.0030  0.1156
   99SAPS  C311 9983   6.518   4.468   7.915  0.1174  0.7301 -0.5067
   99SAPS  H11X 9984   6.438   4.399   7.882 -1.1404  2.0852 -0.3348
   99SAPS  H11Y 9985   6.473   4.568   7.933 -0.5253  0.3609 -0.0790
   99SAPS  C312 9986   6.576   4.414   8.047 -0.4515  1.2729  0.4953
   99SAPS  H12X 9987   6.659   4.479   8.085  1.4333 -1.6835  1.6316
   99SAPS  H12Y 9988   6.626   4.318   8.021  0.4478  1.3844  1.7474
   99SAPS  C313 9989   6.476   4.377   8.151  0.4542  0.3360 -0.2559
   99SAPS  H13X 9990   6.420   4.290   8.108 -1.3668  0.6631  1.3704
   99SAPS  H13Y 9991   6.408   4.462   8.176 -0.7461 -0.7213  0.1472
   99SAPS  C314 9992   6.550   4.321   8.275 -0.2664 -0.6259 -0.0329
   99SAPS  H14X 9993   6.615   4.404   8.311  0.1424  0.0935 -2.3168
   99SAPS  H14Y 9994   6.611   4.229   8.265 -0.9320 -1.7592  5.1150
   99SAPS  C315 9995   6.452   4.297   8.387 -0.0350  0.0446 -0.6005
   99SAPS  H15X 9996   6.375   4.223   8.358  1.0571 -1.1907 -0.3927
   99SAPS  H15Y 9997   6.412   4.400   8.401  2.0441  0.8232 -0.1655
   99SAPS  C316 9998   6.526   4.228   8.501 -0.8618  0.0043  0.3194
   99SAPS  H16X 9999   6.628   4.270   8.503 -1.1202  0.7138 -0.9342
   99SAPS  H16Y10000   6.526   4.119   8.477 -3.1765  0.0200  0.1341
   99SAPS  C31710001   6.458   4.247   8.642 -0.2618  0.7903 -0.8303
   99SAPS  H17X10002   6.356   4.204   8.639 -1.3218  3.2593 -0.9077
   99SAPS  H17Y10003   6.441   4.357   8.645  0.4764  0.9017 -0.5709
   99SAPS  C31810004   6.542   4.215   8.764  0.7631  0.7679  0.2356
   99SAPS  H18X10005   6.562   4.105   8.762  1.6535  0.9208  0.1576
   99SAPS  H18Y10006   6.496   4.239   8.862 -1.8271 -1.3407 -0.4117
   99SAPS  H18Z10007   6.636   4.275   8.762 -1.3779  4.2323 -0.9306
  100SAPS     N10008   1.427   6.070   6.317  0.2588  0.0342 -0.2830
  100SAPS   HN110009   1.364   6.001   6.271  1.7273 -0.9965 -0.7744
  100SAPS   HN210010   1.369   6.153   6.340  1.0671  0.9936 -1.6338
  100SAPS   HN310011   1.496   6.105   6.248  2.4541 -0.3989  1.6489
  100SAPS   C1210012   1.494   6.004   6.434 -0.1540 -0.7182  0.0171
  100SAPS  H12A10013   1.418   5.964   6.499 -0.8135  2.1544  1.1197
  100SAPS   C1310014   1.594   5.895   6.389 -1.0298  0.2405 -0.4557
  100SAPS  O13A10015   1.599   5.838   6.276 -0.0913  0.2444 -0.6816
  100SAPS  O13B10016   1.652   5.837   6.489 -0.2728 -0.2251  0.6400
  100SAPS   C1110017   1.566   6.117   6.508 -0.8570 -0.8340  0.0333
  100SAPS  H11A10018   1.629   6.069   6.585 -0.2101  0.7834  0.5320
  100SAPS  H11B10019   1.506   6.195   6.559  2.5971  2.1693 -0.2579
  100SAPS     P10020   1.715   6.327   6.417  0.1871 -0.7949  0.4730
  100SAPS   O1310021   1.837   6.339   6.330 -0.0825  0.2507 -0.4059
  100SAPS   O1410022   1.594   6.415   6.391 -0.1783  0.0106 -0.3549
  100SAPS   O1210023   1.658   6.192   6.410 -0.0119 -0.0606 -0.0797
  100SAPS   O1110024   1.748   6.334   6.568 -0.0314  0.6337 -0.0562
  100SAPS    C110025   1.860   6.271   6.639  0.3797  0.4273  0.0792
  100SAPS    HA10026   1.832   6.164   6.641 -3.1749  1.2564 -1.4317
  100SAPS    HB10027   1.961   6.279   6.593 -0.2066  0.8826 -1.1613
  100SAPS    C210028   1.880   6.331   6.783 -0.9536 -0.7651  0.4763
  100SAPS    HS10029   1.953   6.262   6.830 -0.9853 -1.5470 -0.5943
  100SAPS   O2110030   1.756   6.318   6.862 -0.3222  0.2324  0.4951
  100SAPS   C2110031   1.704   6.198   6.873 -0.3431  0.2423 -0.6911
  100SAPS   O2210032   1.756   6.093   6.852 -0.3093  0.4039  0.0629
  100SAPS   C2210033   1.562   6.218   6.928 -0.3342 -0.2882 -0.1274
  100SAPS   H2R10034   1.554   6.319   6.974  2.5192 -0.0650 -0.0299
  100SAPS   H2S10035   1.490   6.207   6.844  0.4207  0.4264 -0.8779
  100SAPS    C310036   1.925   6.480   6.775 -0.3820 -0.1432  0.4976
  100SAPS    HX10037   1.833   6.540   6.761  0.3493  0.8967  0.0359
  100SAPS    HY10038   1.994   6.482   6.688 -1.4012 -1.3749 -0.3538
  100SAPS   O3110039   1.978   6.520   6.899 -0.9516 -0.0704 -0.2391
  100SAPS   C3110040   2.114   6.525   6.909  0.0260 -0.3221  0.4615
  100SAPS   O3210041   2.190   6.502   6.818 -0.2047 -0.2611 -0.2739
  100SAPS   C3210042   2.137   6.556   7.055  0.0189 -0.1828 -0.2654
  100SAPS   H2X10043   2.243   6.524   7.071 -0.4192 -2.0399 -1.0627
  100SAPS   H2Y10044   2.070   6.495   7.119  0.3501  0.2020  0.4575
  100SAPS   C2310045   1.540   6.111   7.037  0.5276  0.1758  0.3391
  100SAPS   H3R10046   1.613   6.128   7.120  1.8134 -0.6854 -0.5897
  100SAPS   H3S10047   1.571   6.010   7.003 -0.0429  0.1714 -0.1759
  100SAPS   C2410048   1.398   6.095   7.096  0.3777 -0.1597  0.8249
  100SAPS   H4R10049   1.325   6.094   7.012 -0.8408  0.9262  1.8655
  100SAPS   H4S10050   1.370   6.183   7.157 -0.3003  2.2005 -2.7202
  100SAPS   C2510051   1.376   5.978   7.184 -0.0479  0.0104  0.4603
  100SAPS   H5R10052   1.329   5.897   7.126  1.0919 -1.6728  1.8402
  100SAPS   C2610053   1.408   5.966   7.312  0.5647 -0.8973 -1.2809
  100SAPS   H6R10054   1.379   5.874   7.365  1.7233 -1.6716 -1.9646
  100SAPS   C2710055   1.463   6.078   7.394 -0.4158 -0.9198  0.1407
  100SAPS   H7R10056   1.551   6.116   7.338  0.4995 -1.9095  0.8795
  100SAPS   H7S10057   1.512   6.026   7.479 -1.4302 -3.1636 -0.6236
  100SAPS   C2810058   1.376   6.187   7.433 -0.5129 -0.1792 -0.4224
  100SAPS   H8R10059   1.328   6.248   7.356  0.3509 -2.0275 -2.4851
  100SAPS   C2910060   1.339   6.214   7.555 -0.4871  0.7227 -0.0404
  100SAPS   H9R10061   1.275   6.302   7.569  0.5553  1.2150  1.7845
  100SAPS  C21010062   1.384   6.154   7.690  0.8330  0.1461 -0.0608
  100SAPS  H10R10063   1.411   6.047   7.683 -0.0267 -0.1827  1.5060
  100SAPS  H10S10064   1.298   6.138   7.759  0.6871 -0.2748 -0.3422
  100SAPS  C21110065   1.499   6.230   7.743 -0.0696  0.0114 -0.1291
  100SAPS  H11R10066   1.585   6.239   7.675 -1.2146  1.1482 -1.4561
  100SAPS  C21210067   1.516   6.284   7.861 -0.0248 -0.1458 -0.0880
  100SAPS  H12R10068   1.611   6.334   7.884  0.5645 -1.0934 -0.4625
  100SAPS  C21310069   1.423   6.269   7.978  0.1793 -0.0253 -0.6810
  100SAPS  H13R10070   1.482   6.263   8.072 -1.9018 -0.7797  0.6203
  100SAPS  H13S10071   1.381   6.167   7.974  0.1279 -0.0361  0.0648
  100SAPS  C21410072   1.320   6.378   7.979  0.5847  0.6307 -0.2629
  100SAPS  H14R10073   1.279   6.403   7.880  2.3176 -0.9823 -1.4138
  100SAPS  C21510074   1.276   6.446   8.085  0.3882  0.1259 -0.5602
  100SAPS  H15R10075   1.219   6.537   8.062  2.1720  1.5304  0.5211
  100SAPS  C21610076   1.303   6.434   8.233 -0.3653  0.5264 -0.4630
  100SAPS  H16R10077   1.285   6.326   8.252 -1.8919  1.0316  1.1156
  100SAPS  H16S10078   1.226   6.493   8.288  2.4346  3.1794  0.7579
  100SAPS  C21710079   1.448   6.462   8.281 -0.4961  0.3432  0.4401
  100SAPS  H17R10080   1.486   6.556   8.234 -1.2750  0.2782 -0.3140
  100SAPS  H17S10081   1.517   6.382   8.247  1.8522  3.0919 -1.4991
  100SAPS  C21810082   1.457   6.467   8.436  0.2271 -0.1320 -0.4110
  100SAPS  H18R10083   1.422   6.373   8.483 -1.1072  0.7600  0.4427
  100SAPS  H18S10084   1.398   6.555   8.470 -0.8399 -1.2982  0.8481
  100SAPS  C21910085   1.605   6.479   8.481  0.2111 -0.3984  0.1856
  100SAPS  H19R10086   1.615   6.529   8.580  0.9585 -0.1947  0.0102
  100SAPS  H19S10087   1.654   6.547   8.408 -1.2618  0.4628 -0.0245
  100SAPS  C22010088   1.671   6.338   8.483  0.2926 -0.2758 -0.0492
  100SAPS  H20R10089   1.659   6.273   8.393 -1.7343 -0.9675  0.7001
  100SAPS  H20S10090   1.625   6.287   8.570  1.1504  1.2905  1.3351
  100SAPS  H20T10091   1.781   6.347   8.493  0.1974  0.1472  0.5887
  100SAPS   C3310092   2.107   6.703   7.087  0.2255 -0.6089  0.2964
  100SAPS   H3X10093   1.999   6.719   7.103 -0.4259 -3.0407 -1.4711
  100SAPS   H3Y10094   2.147   6.784   7.021 -1.2937  0.7190  0.9672
  100SAPS   C3410095   2.167   6.726   7.227 -0.7841  0.3493  1.0249
  100SAPS   H4X10096   2.275   6.752   7.224 -0.8342  0.5175  0.6302
  100SAPS   H4Y10097   2.148   6.635   7.287 -0.7201  0.3085  0.9843
  100SAPS   C3510098   2.112   6.845   7.303  0.6930  0.6112 -0.1275
  100SAPS   H5X10099   2.004   6.826   7.320 -0.0983  2.9040 -2.2667
  100SAPS   H5Y10100   2.114   6.939   7.243  0.3816  0.1063 -0.9341
  100SAPS   C3610101   2.178   6.851   7.441 -0.3298  0.4501  0.5719
  100SAPS   H6X10102   2.285   6.825   7.422 -1.4338 -0.7117 -4.8446
  100SAPS   H6Y10103   2.139   6.775   7.513 -1.5474 -1.5039 -2.0904
  100SAPS   C3710104   2.170   6.998   7.499 -0.5860 -0.3125 -0.3873
  100SAPS   H7X10105   2.063   7.027   7.499 -0.3454  0.6552  1.1930
  100SAPS   H7Y10106   2.239   7.061   7.440  0.4034 -0.3611  0.6873
  100SAPS   C3810107   2.220   7.006   7.644  0.3232  1.0385 -0.1121
  100SAPS   H8X10108   2.242   7.112   7.667  1.1251  1.0642 -0.9894
  100SAPS   H8Y10109   2.305   6.940   7.673  0.3054  0.4971 -1.2775
  100SAPS   C3910110   2.105   6.977   7.748 -0.0606 -0.3071  0.4021
  100SAPS   H9X10111   2.054   6.885   7.713 -0.5035 -0.1096  0.5363
  100SAPS   H9Y10112   2.038   7.065   7.756  0.1699 -0.1656  0.8011
  100SAPS  C31010113   2.153   6.960   7.892  0.1201  0.0567  0.2479
  100SAPS  H10X10114   2.210   6.866   7.907  0.8698  0.6183  0.9075
  100SAPS  H10Y10115   2.062   6.939   7.952  0.8940  0.3479  1.5425
  100SAPS  C31110116   2.236   7.081   7.942  0.0000  0.3451 -0.1691
  100SAPS  H11X10117   2.184   7.179   7.949  1.4450  1.1358 -0.3296
  100SAPS  H11Y10118   2.324   7.094   7.876  0.0993 -0.5796 -0.2181
  100SAPS  C31210119   2.291   7.059   8.091  0.1061 -0.3337 -0.0362
  100SAPS  H12X10120   2.372   6.986   8.071 -0.2351 -0.5240 -0.7481
  100SAPS  H12Y10121   2.211   7.014   8.154 -0.0944 -0.0766 -0.1091
  100SAPS  C31310122   2.341   7.194   8.149  0.5348  0.6129 -0.5484
  100SAPS  H13X10123   2.252   7.241   8.196 -0.6156 -2.7574  0.7802
  100SAPS  H13Y10124   2.370   7.268   8.072  0.2907  1.9140  0.5963
  100SAPS  C31410125   2.470   7.177   8.228 -0.1920  0.3876  0.1906
  100SAPS  H14X10126   2.515   7.273   8.260  0.6564 -0.8176  2.7528
  100SAPS  H14Y10127   2.540   7.123   8.161  0.7018 -2.0139  2.9336
  100SAPS  C31510128   2.438   7.106   8.362  0.2137  0.4295 -0.7774
  100SAPS  H15X10129   2.535   7.091   8.415 -1.6615 -0.5106  2.5662
  100SAPS  H15Y10130   2.404   7.002   8.345 -0.5262  0.7639 -1.3579
  100SAPS  C31610131   2.346   7.181   8.459  0.1951 -0.6725  0.3770
  100SAPS  H16X10132   2.248   7.215   8.420 -0.0374 -2.0191 -0.2574
  100SAPS  H16Y10133   2.396   7.280   8.467 -1.8465  0.2586  2.1565
  100SAPS  C31710134   2.336   7.121   8.604 -0.7719 -0.9153  0.3396
  100SAPS  H17X10135   2.304   7.014   8.595  1.3878 -1.8655  3.2303
  100SAPS  H17Y10136   2.250   7.179   8.644  0.2705  1.5968 -0.9609
  100SAPS  C31810137   2.459   7.133   8.691  0.5907  0.5060  0.6912
  100SAPS  H18X10138   2.458   7.064   8.779  3.1655 -0.2297  0.1944
  100SAPS  H18Y10139   2.484   7.234   8.730  0.3278  0.6941  0.3716
  100SAPS  H18Z10140   2.541   7.098   8.626 -0.7621 -0.0820 -0.7311
  101OSM      N10141   0.735   0.292  10.645 -0.2017 -0.0544 -0.0578
  101OSM    C1510142   0.586   0.299  10.663  0.0866 -0.0662  0.0671
  101OSM   H15A10143   0.554   0.226  10.735 -3.5572  1.5386  0.1877
  101OSM   H15B10144   0.531   0.280  10.571 -1.8030  1.5482  0.8439
  101OSM   H15C10145   0.563   0.399  10.697  0.2132  0.2424 -0.7349
  101OSM    C1410146   0.776   0.382  10.533 -0.7360  0.2078  0.1067
  101OSM   H14A10147   0.878   0.368  10.501 -1.5302  1.2727 -3.0920
  101OSM   H14B10148   0.775   0.484  10.566 -1.0551  0.4577 -0.6738
  101OSM   H14C10149   0.717   0.385  10.443 -1.3379  2.4125  0.5562
  101OSM    C1310150   0.807   0.341  10.769 -0.5421  0.9612 -0.4643
  101OSM   H13A10151   0.798   0.445  10.795 -0.7358  0.6226  0.8255
  101OSM   H13B10152   0.912   0.326  10.749 -0.2616 -0.0548  1.6788
  101OSM   H13C10153   0.786   0.266  10.844  1.8039 -1.6833 -2.3396
  101OSM    C1210154   0.767   0.151  10.610 -0.1375 -0.1281  0.0231
  101OSM   H12A10155   0.865   0.168  10.567 -0.0986  1.0221  0.5610
  101OSM   H12B10156   0.708   0.115  10.527  3.0122  0.9655 -2.8122
  101OSM    C1110157   0.780   0.042  10.724 -0.0349 -0.1070 -0.3851
  101OSM   H11A10158   0.861   0.083  10.788  0.5855 -0.8670 -0.6797
  101OSM   H11B10159   0.815  -0.052  10.677  0.6346 -0.3047  0.4841
  101OSM      P10160   0.568  -0.092  10.806  0.3400  0.2909  0.0257
  101OSM    O1310161   0.648  -0.186  10.886 -0.1844 -0.7015  0.2442
  101OSM    O1410162   0.432  -0.065  10.851 -0.2150  0.3316  0.6381
  101OSM    O1110163   0.555  -0.138  10.651  0.0817 -0.5122  0.2927
  101OSM    O1210164   0.656   0.035  10.804 -0.4981  0.1635 -0.3044
  101OSM    C1S10165   0.452  -0.085  10.564 -0.8057 -0.4431  0.4305
  101OSM    H1S10166   0.422   0.019  10.588 -0.2446 -0.2138  0.1298
  101OSM    H1T10167   0.360  -0.149  10.561 -1.0900 -0.0155  0.0065
  101OSM     NF10168   0.430  -0.014  10.317 -0.2177  0.3098  0.1117
  101OSM    HNF10169   0.385  -0.067  10.246 -0.1474 -0.2002  0.4390
  101OSM    C2S10170   0.500  -0.100  10.417  0.0324 -0.6309  0.3836
  101OSM    H2S10171   0.599  -0.050  10.416 -0.0575 -0.4287  1.2452
  101OSM    C3S10172   0.514  -0.251  10.377  0.8078  0.1526  0.8131
  101OSM    H3S10173   0.407  -0.280  10.368  0.6640  1.5443 -2.6341
  101OSM     O310174   0.585  -0.335  10.472  0.7517 -0.2020  0.5101
  101OSM    HO310175   0.618  -0.276  10.540  2.4503  0.2593 -0.6898
  101OSM    C4S10176   0.580  -0.274  10.240 -0.3936  0.1246 -0.0108
  101OSM    H4S10177   0.512  -0.233  10.163 -0.1590 -1.3764 -1.0545
  101OSM    C5S10178   0.693  -0.332  10.189 -0.4403 -0.1089  0.2824
  101OSM    H5S10179   0.758  -0.388  10.257  3.0311  0.2657 -2.5679
  101OSM    C6S10180   0.715  -0.346  10.042 -0.4558  0.0238 -0.3783
  101OSM    H6S10181   0.724  -0.455  10.024 -0.1051 -0.3210  1.7570
  101OSM    H6T10182   0.813  -0.303  10.013  0.2061 -3.3144 -3.4456
  101OSM    C7S10183   0.614  -0.284   9.943  0.3349  0.2896 -0.4090
  101OSM    H7S10184   0.605  -0.178   9.977  0.0967  0.4894 -1.0982
  101OSM    H7T10185   0.514  -0.328   9.963  0.6449  0.2282  1.0567
  101OSM    C8S10186   0.652  -0.297   9.795  0.1225  0.2319 -0.1973
  101OSM    H8S10187   0.661  -0.406   9.774  2.4923  0.4048 -0.2247
  101OSM    H8T10188   0.755  -0.256   9.789  0.2637 -0.1141 -0.1221
  101OSM    C9S10189   0.555  -0.231   9.704 -0.3569  0.2511 -0.4447
  101OSM    H9S10190   0.543  -0.122   9.723 -0.0590  0.4208 -1.1815
  101OSM    H9T10191   0.457  -0.281   9.719  0.1156 -1.2814 -2.1369
  101OSM   C10S10192   0.605  -0.274   9.564 -0.2172  0.8155 -0.0521
  101OSM   H10S10193   0.632  -0.381   9.552  0.3001  1.1873 -2.3535
  101OSM   H10T10194   0.700  -0.219   9.547  0.4566 -0.1501  0.5470
  101OSM   C11S10195   0.513  -0.234   9.452  0.3959 -0.6363  0.2228
  101OSM   H11S10196   0.498  -0.124   9.454  0.3715 -0.6493  0.8272
  101OSM   H11T10197   0.411  -0.271   9.475  0.0522  0.4467  0.4614
  101OSM   C12S10198   0.553  -0.265   9.314  0.2068 -0.3328  0.1820
  101OSM   H12S10199   0.647  -0.211   9.289  0.3396 -0.2710  0.8001
  101OSM   H12T10200   0.481  -0.227   9.239 -0.5129 -1.2943  0.3721
  101OSM   C13S10201   0.578  -0.414   9.276  0.6473 -0.2140 -0.2513
  101OSM   H13S10202   0.506  -0.478   9.331  3.3568 -2.3085  0.9517
  101OSM   H13T10203   0.678  -0.440   9.316  0.7636 -2.2771 -1.7985
  101OSM   C14S10204   0.572  -0.436   9.124  1.0432 -0.4657  0.4107
  101OSM   H14S10205   0.490  -0.377   9.080  2.2686  0.3525 -0.8213
  101OSM   H14T10206   0.544  -0.542   9.106 -1.3516  0.1319  0.5402
  101OSM   C15S10207   0.705  -0.396   9.063 -0.3718  0.5832  0.6124
  101OSM   H15S10208   0.732  -0.289   9.076  0.4108  0.5250 -0.4994
  101OSM   H15T10209   0.678  -0.391   8.955 -2.6337  1.9844  1.1971
  101OSM   C16S10210   0.813  -0.498   9.104  1.1135 -0.4790 -0.0229
  101OSM   H16S10211   0.756  -0.588   9.134 -1.0853 -0.0135 -2.6167
  101OSM   H16T10212   0.868  -0.486   9.199 -1.1495  1.4165  1.1150
  101OSM   C17S10213   0.923  -0.523   9.002  0.1514  0.1119  0.1841
  101OSM   H17S10214   0.862  -0.546   8.912  0.3796 -0.9130  0.2955
  101OSM   H17T10215   0.980  -0.615   9.027  1.4079  1.0417  0.8186
  101OSM   C18S10216   1.014  -0.404   8.996 -0.7151  0.1110  0.3108
  101OSM   H18S10217   0.946  -0.317   8.987 -1.4486 -0.5935 -1.1847
  101OSM   H18T10218   1.083  -0.404   8.909  1.3704  1.8942  1.9125
  101OSM   H18U10219   1.069  -0.389   9.091  1.3030 -2.4570 -0.3817
  101OSM    C1F10220   0.409   0.117  10.336  0.3374 -0.5667 -0.2692
  101OSM     OF10221   0.453   0.177  10.431  0.2755 -0.2560 -0.0457
  101OSM    C2F10222   0.311   0.186  10.234  0.4131 -0.7543  0.6834
  101OSM    H2F10223   0.219   0.125  10.226  0.3587 -0.4085 -1.5136
  101OSM    H2G10224   0.364   0.177  10.137 -2.3347  1.8004 -1.1354
  101OSM    C3F10225   0.284   0.335  10.258  0.0044  0.2435 -0.4209
  101OSM    H3F10226   0.384   0.383  10.263  0.6683 -0.8625 -2.2930
  101OSM    H3G10227   0.238   0.359  10.356 -1.0670  0.1333 -0.8863
  101OSM    C4F10228   0.194   0.398  10.145 -0.0318  0.0733 -0.0163
  101OSM    H4F10229   0.096   0.345  10.139 -0.1357  0.1102  1.1477
  101OSM    H4G10230   0.250   0.402  10.050 -0.0112 -0.2712 -0.0226
  101OSM    C5F10231   0.157   0.545  10.173  0.4915 -0.5191 -0.1863
  101OSM    H5F10232   0.110   0.603  10.091 -1.2230  1.6692  2.2684
  101OSM    H5G10233   0.249   0.598  10.206  0.0718 -0.3716  0.7868
  101OSM    C6F10234   0.055   0.563  10.290  0.5669 -0.9573  1.2639
  101OSM    H6F10235   0.036   0.672  10.291 -1.1539 -1.2145 -0.3642
  101OSM    H6G10236   0.107   0.534  10.384 -0.6634 -0.4845  2.0973
  101OSM    C7F10237  -0.083   0.502  10.278  0.5266  0.3878 -0.0466
  101OSM    H7F10238  -0.143   0.544  10.362 -1.3344 -1.0051 -0.6438
  101OSM    H7G10239  -0.089   0.394  10.303  0.0185  0.8839  2.0600
  101OSM    C8F10240  -0.148   0.526  10.142 -0.2516  0.0847  0.2595
  101OSM    H8F10241  -0.244   0.471  10.139  0.6442 -1.5811  1.3937
  101OSM    H8G10242  -0.091   0.475  10.062 -1.6864 -0.9804 -0.1079
  101OSM    C9F10243  -0.185   0.670  10.106  0.2192  0.2022  0.2081
  101OSM    H9F10244  -0.252   0.725  10.174  1.2591  0.9938  0.6145
  101OSM   C10F10245  -0.161   0.741   9.996 -0.1538 -0.2429  0.2422
  101OSM   H10F10246  -0.189   0.847   9.989  0.9873  0.1256  1.1051
  101OSM   C11F10247  -0.078   0.703   9.878  0.1425  0.2726  0.3857
  101OSM   H11F10248  -0.149   0.678   9.796 -0.3066  1.0112  0.5510
  101OSM   H11G10249  -0.020   0.613   9.908  0.0517  0.2169  0.3942
  101OSM   C12F10250   0.032   0.811   9.842 -0.2087 -0.4555 -0.3834
  101OSM   H12F10251   0.090   0.843   9.932  1.1660  1.3500 -1.8750
  101OSM   H12G10252  -0.033   0.899   9.823  0.3589  0.1581  0.4549
  101OSM   C13F10253   0.124   0.769   9.730 -0.1384 -0.2728  0.9290
  101OSM   H13F10254   0.178   0.679   9.767  1.8346  0.7529  0.6196
  101OSM   H13G10255   0.199   0.843   9.695  0.3145 -2.1514 -2.3212
  101OSM   C14F10256   0.046   0.728   9.606  0.4922  0.5196 -0.3331
  101OSM   H14F10257  -0.027   0.646   9.616 -0.1903  1.0733 -0.7075
  101OSM   H14G10258   0.114   0.707   9.521  1.0800 -0.0257  0.2718
  101OSM   C15F10259  -0.033   0.835   9.548 -0.0140  0.3586  0.4404
  101OSM   H15F10260   0.020   0.933   9.555  1.8995 -0.5296 -1.1211
  101OSM   H15G10261  -0.130   0.842   9.601 -0.5161 -0.0653 -0.4137
  101OSM   C16F10262  -0.076   0.818   9.396 -0.6816 -0.0191 -0.0551
  101OSM   H16F10263  -0.124   0.718   9.390  0.4951 -0.6234  0.4856
  101OSM   H16G10264   0.015   0.810   9.333 -0.6343  0.5784 -0.0677
  101OSM   C17F10265  -0.175   0.918   9.343  0.0558 -0.2315  0.7345
  101OSM   H17F10266  -0.134   1.018   9.367  1.0834 -0.3282 -0.5530
  101OSM   H17G10267  -0.266   0.905   9.405 -0.2580  0.3017  0.3906
  101OSM   C18F10268  -0.199   0.918   9.194 -0.1707  0.6688 -0.4304
  101OSM   H18F10269  -0.099   0.926   9.147  0.5239  4.1556  1.4756
  101OSM   H18G10270  -0.271   0.997   9.161  1.7145  2.5279 -0.2185
  101OSM   H18H10271  -0.244   0.820   9.168 -0.6347  0.9104 -0.5437
  102OSM      N10272   6.297   6.550  11.017 -0.3657  0.4529  0.4846
  102OSM    C1510273   6.308   6.398  10.991 -0.0947 -0.2748 -0.2349
  102OSM   H15A10274   6.315   6.337  11.079 -0.5366  0.6697  0.4648
  102OSM   H15B10275   6.397   6.382  10.931 -0.8898 -2.9488 -0.7767
  102OSM   H15C10276   6.220   6.357  10.944  0.0784 -1.4688  0.4666
  102OSM    C1410277   6.197   6.573  11.124  0.6662  0.0380 -1.0489
  102OSM   H14A10278   6.198   6.676  11.155  0.7443 -0.6337  1.2461
  102OSM   H14B10279   6.212   6.504  11.206 -1.2673 -1.1453 -1.6732
  102OSM   H14C10280   6.095   6.565  11.090  0.4892  3.2941 -1.4462
  102OSM    C1310281   6.434   6.596  11.066 -0.4586 -0.7779 -0.0961
  102OSM   H13A10282   6.424   6.704  11.072 -2.2993 -1.0516  2.6553
  102OSM   H13B10283   6.514   6.575  10.996  0.7635 -0.7889  1.2785
  102OSM   H13C10284   6.453   6.567  11.168  1.5116 -1.1122 -0.5328
  102OSM    C1210285   6.261   6.620  10.883 -0.0291 -0.2577 -0.2195
  102OSM   H12A10286   6.288   6.725  10.887  1.5998 -0.6637 -0.0967
  102OSM   H12B10287   6.156   6.610  10.865 -0.7476  0.7124  3.0085
  102OSM    C1110288   6.337   6.572  10.754  0.1052  0.3805  0.2837
  102OSM   H11A10289   6.277   6.618  10.672 -0.6820 -0.3865  0.4160
  102OSM   H11B10290   6.313   6.464  10.745  0.6461  0.3433 -0.8999
  102OSM      P10291   6.578   6.494  10.701 -0.0877 -0.1861 -0.0622
  102OSM    O1310292   6.709   6.562  10.725 -0.8485  0.3263 -0.0873
  102OSM    O1410293   6.552   6.369  10.773  0.5609 -0.0618  0.0482
  102OSM    O1110294   6.546   6.481  10.550 -0.2083  0.1462 -0.2475
  102OSM    O1210295   6.472   6.602  10.737 -0.4235  0.4364 -0.6619
  102OSM    C1S10296   6.523   6.599  10.470  0.9053 -0.6253 -0.2470
  102OSM    H1S10297   6.615   6.661  10.467 -0.4862  1.4405 -1.0404
  102OSM    H1T10298   6.432   6.650  10.506  0.2147 -2.0521  0.0593
  102OSM     NF10299   6.442   6.679  10.243 -0.6438 -0.6026  0.1932
  102OSM    HNF10300   6.345   6.700  10.231 -0.0480  1.7775 -0.5352
  102OSM    C2S10301   6.482   6.559  10.329 -0.3158 -0.7850  0.8245
  102OSM    H2S10302   6.573   6.514  10.285  0.1705  1.4001 -0.4703
  102OSM    C3S10303   6.355   6.466  10.326 -0.4460 -0.2616  0.3407
  102OSM    H3S10304   6.269   6.530  10.355  1.9421  2.5919  1.3430
  102OSM     O310305   6.359   6.364  10.427  0.2991  0.1931  0.3540
  102OSM    HO310306   6.443   6.382  10.471  0.4881 -0.3219  0.2083
  102OSM    C4S10307   6.332   6.420  10.186 -0.5394 -0.4915 -0.8476
  102OSM    H4S10308   6.407   6.346  10.155 -0.0259 -0.3875  0.1466
  102OSM    C5S10309   6.237   6.463  10.097 -0.2577  0.7431  0.1795
  102OSM    H5S10310   6.178   6.554  10.118  1.0706  1.6586  0.0079
  102OSM    C6S10311   6.224   6.416   9.953 -0.3317 -0.7444 -0.1993
  102OSM    H6S10312   6.299   6.468   9.890  0.1905  0.1428  1.1352
  102OSM    H6T10313   6.127   6.446   9.906 -0.3429  0.6341  0.6808
  102OSM    C7S10314   6.254   6.265   9.926 -0.1420 -0.0027 -0.5180
  102OSM    H7S10315   6.170   6.202   9.964 -0.4509 -0.0711 -1.3114
  102OSM    H7T10316   6.351   6.230   9.966 -0.7098  0.8663  1.6911
  102OSM    C8S10317   6.255   6.242   9.779 -0.3694 -0.4441 -0.2948
  102OSM    H8S10318   6.352   6.275   9.736 -0.3763  0.7508  0.5908
  102OSM    H8T10319   6.178   6.299   9.723 -0.1279 -1.0497 -1.2453
  102OSM    C9S10320   6.248   6.093   9.739 -0.6177 -0.2042  0.9608
  102OSM    H9S10321   6.177   6.037   9.803  1.3446 -0.3816  3.0318
  102OSM    H9T10322   6.349   6.050   9.756  0.3147  1.7557  0.5118
  102OSM   C10S10323   6.197   6.076   9.591  0.0897 -0.5180 -0.3979
  102OSM   H10S10324   6.212   6.180   9.553 -0.4837  0.7063  2.5949
  102OSM   H10T10325   6.090   6.051   9.579  0.2065 -1.1709 -0.1207
  102OSM   C11S10326   6.279   5.965   9.514  0.0090 -0.1269  0.3561
  102OSM   H11S10327   6.243   5.864   9.543 -1.7588 -0.3144 -2.2872
  102OSM   H11T10328   6.384   5.974   9.550 -0.3293 -2.0861  1.8865
  102OSM   C12S10329   6.268   5.974   9.359  0.2137  0.4491  0.9872
  102OSM   H12S10330   6.164   5.967   9.321 -0.1543  0.6609  1.9511
  102OSM   H12T10331   6.334   5.903   9.306 -0.1098  0.8713 -0.0011
  102OSM   C13S10332   6.322   6.111   9.318  0.0862 -0.0165 -0.2811
  102OSM   H13S10333   6.419   6.121   9.372  0.1978 -2.0819 -0.0406
  102OSM   H13T10334   6.249   6.189   9.349 -0.6477 -0.1942 -1.5456
  102OSM   C14S10335   6.344   6.125   9.163 -0.0730  0.4052 -0.4393
  102OSM   H14S10336   6.240   6.122   9.123  0.6515 -1.3718 -2.2718
  102OSM   H14T10337   6.411   6.040   9.136  1.3928  1.7050 -0.9898
  102OSM   C15S10338   6.414   6.251   9.121  0.3760  0.3762  0.8494
  102OSM   H15S10339   6.511   6.265   9.173  0.0952 -0.9108  1.7086
  102OSM   H15T10340   6.350   6.338   9.150 -2.6898 -1.7868  0.7833
  102OSM   C16S10341   6.447   6.259   8.972 -0.0614 -0.2918 -0.1787
  102OSM   H16S10342   6.511   6.171   8.949 -1.3510 -0.8299 -1.8453
  102OSM   H16T10343   6.498   6.355   8.948 -1.2532  0.2255 -0.6488
  102OSM   C17S10344   6.318   6.244   8.885  0.1843  0.1250 -0.5374
  102OSM   H17S10345   6.250   6.326   8.915 -0.6475 -1.4517  2.0277
  102OSM   H17T10346   6.261   6.150   8.901 -1.8913  0.9916 -2.4610
  102OSM   C18S10347   6.357   6.262   8.737 -0.3221  0.2009  0.0158
  102OSM   H18S10348   6.388   6.369   8.728  1.5479 -0.2428  0.8872
  102OSM   H18T10349   6.273   6.249   8.665  0.4898 -2.2999 -0.5241
  102OSM   H18U10350   6.437   6.193   8.702 -1.4833 -0.7392 -0.8026
  102OSM    C1F10351   6.544   6.752  10.199  0.1210 -0.3509  0.5742
  102OSM     OF10352   6.658   6.714  10.220  0.2895  0.3756 -0.2077
  102OSM    C2F10353   6.520   6.882  10.135 -0.7848 -0.6787 -0.0938
  102OSM    H2F10354   6.578   6.959  10.190 -1.0732 -2.0934  2.2982
  102OSM    H2G10355   6.414   6.900  10.162  0.1106  0.5599  2.8696
  102OSM    C3F10356   6.534   6.870   9.984 -0.0623  0.1586  0.2196
  102OSM    H3F10357   6.445   6.818   9.943 -1.1568 -0.5583  3.3388
  102OSM    H3G10358   6.629   6.814   9.972  0.2058  0.9908 -1.6189
  102OSM    C4F10359   6.555   7.005   9.917 -0.1699  0.3972 -0.0542
  102OSM    H4F10360   6.629   7.072   9.965  1.7796 -1.5527 -0.2685
  102OSM    H4G10361   6.458   7.059   9.920  0.6975  2.0505 -1.0141
  102OSM    C5F10362   6.595   7.001   9.766  0.3332 -0.2419  0.2281
  102OSM    H5F10363   6.523   6.937   9.710 -0.2607  1.7136 -1.2888
  102OSM    H5G10364   6.698   6.966   9.746  0.3695 -1.1786  1.9694
  102OSM    C6F10365   6.564   7.133   9.689 -0.1723 -0.3155 -0.1188
  102OSM    H6F10366   6.570   7.117   9.579 -2.4046 -0.7797 -0.1897
  102OSM    H6G10367   6.630   7.217   9.720 -0.5189  0.5960 -1.7618
  102OSM    C7F10368   6.419   7.178   9.712  0.1153 -0.2335 -0.0443
  102OSM    H7F10369   6.411   7.216   9.816 -1.4140  0.8808 -0.5503
  102OSM    H7G10370   6.351   7.092   9.697  0.2041 -0.1006 -1.3027
  102OSM    C8F10371   6.393   7.292   9.607 -0.1669 -0.4168 -0.7184
  102OSM    H8F10372   6.420   7.250   9.508  1.2779 -0.9926 -0.0902
  102OSM    H8G10373   6.464   7.377   9.616  1.1083 -1.6897  2.1273
  102OSM    C9F10374   6.247   7.325   9.601 -1.0432 -0.5608 -0.1180
  102OSM    H9F10375   6.167   7.255   9.571 -1.4533 -0.4877  0.7802
  102OSM   C10F10376   6.200   7.438   9.646  0.7960 -0.5572 -0.1003
  102OSM   H10F10377   6.096   7.465   9.623  0.6347  0.7672  2.0024
  102OSM   C11F10378   6.276   7.550   9.717  0.2140 -0.2041 -0.0646
  102OSM   H11F10379   6.357   7.524   9.788 -0.3200 -0.4902  0.4496
  102OSM   H11G10380   6.198   7.604   9.774 -0.1172  0.0946 -0.7927
  102OSM   C12F10381   6.329   7.644   9.609  0.7916  0.3402  0.1619
  102OSM   H12F10382   6.363   7.589   9.519  0.5423 -3.0035  2.0447
  102OSM   H12G10383   6.409   7.712   9.644  1.3015 -0.4432  0.5164
  102OSM   C13F10384   6.209   7.736   9.552 -0.1081 -0.4345  0.3559
  102OSM   H13F10385   6.165   7.787   9.640 -0.7348 -0.7205  0.2080
  102OSM   H13G10386   6.129   7.667   9.518  0.6382 -1.4189  0.6026
  102OSM   C14F10387   6.242   7.834   9.438 -1.0534 -0.0978  0.6023
  102OSM   H14F10388   6.148   7.880   9.401 -1.2068 -0.1722  0.8965
  102OSM   H14G10389   6.288   7.782   9.352  0.1542 -0.7076  1.6023
  102OSM   C15F10390   6.334   7.956   9.483  0.8360  1.1005 -1.0676
  102OSM   H15F10391   6.421   7.910   9.534 -0.9832 -2.6206 -1.1191
  102OSM   H15G10392   6.274   8.011   9.558  0.1251  0.0611 -0.8561
  102OSM   C16F10393   6.381   8.043   9.365  0.7398 -0.2770  0.0123
  102OSM   H16F10394   6.464   7.989   9.316  1.2691 -1.7496  2.4250
  102OSM   H16G10395   6.428   8.141   9.391  2.9019 -0.3913 -3.1431
  102OSM   C17F10396   6.274   8.068   9.251  0.1467  0.4162  0.0907
  102OSM   H17F10397   6.178   8.106   9.294  0.6676 -0.7777  2.3946
  102OSM   H17G10398   6.243   7.966   9.220  1.7690 -0.2982  0.8083
  102OSM   C18F10399   6.331   8.143   9.137  0.3468  0.3436 -0.4308
  102OSM   H18F10400   6.259   8.135   9.053  0.5612 -0.8488 -0.5159
  102OSM   H18G10401   6.431   8.099   9.114  0.0650 -1.0026  0.8528
  102OSM   H18H10402   6.352   8.249   9.165  0.9019  0.0804  0.1766
  103OSM      N10403   1.407   2.558  11.108  0.6689 -0.2062 -0.0547
  103OSM    C1510404   1.269   2.613  11.148  0.8742  0.3025  0.5037
  103OSM   H15A10405   1.198   2.533  11.167 -0.8311  1.8797  0.9250
  103OSM   H15B10406   1.226   2.670  11.067  0.5183  0.1305  0.5699
  103OSM   H15C10407   1.279   2.679  11.233  0.5172  1.2708 -0.1966
  103OSM    C1410408   1.497   2.674  11.107 -0.2172 -0.3730 -0.3460
  103OSM   H14A10409   1.600   2.643  11.118 -1.3375 -3.6219  1.9490
  103OSM   H14B10410   1.480   2.740  11.190 -0.2355 -0.1119 -0.5586
  103OSM   H14C10411   1.499   2.738  11.020  1.1337  0.6505  0.4279
  103OSM    C1310412   1.455   2.469  11.212 -0.4552 -0.2077  0.2928
  103OSM   H13A10413   1.463   2.529  11.301 -0.8174  2.8559 -1.6774
  103OSM   H13B10414   1.543   2.412  11.189  0.0291  0.8174 -0.4289
  103OSM   H13C10415   1.386   2.388  11.234  1.1847 -1.4857  0.8094
  103OSM    C1210416   1.411   2.483  10.976 -0.0469 -0.4798  0.1783
  103OSM   H12A10417   1.512   2.456  10.949 -0.4787 -0.6992 -1.2834
  103OSM   H12B10418   1.386   2.564  10.909  1.7993 -0.5443 -0.6100
  103OSM    C1110419   1.314   2.365  10.948  0.3381 -0.1460 -0.5372
  103OSM   H11A10420   1.323   2.332  10.843 -1.6349  2.0041 -1.4331
  103OSM   H11B10421   1.212   2.405  10.972  0.5245 -0.7143  1.3300
  103OSM      P10422   1.459   2.146  11.012 -0.2930 -0.3064 -0.1176
  103OSM    O1310423   1.588   2.212  11.026 -0.7078 -0.0117 -0.3462
  103OSM    O1410424   1.436   2.031  11.099 -0.0797 -0.3409  0.5511
  103OSM    O1110425   1.451   2.108  10.856 -0.4999  0.2294 -0.4152
  103OSM    O1210426   1.352   2.253  11.036 -0.2624  0.0173 -0.1835
  103OSM    C1S10427   1.338   2.043  10.796  0.0389 -0.6099 -0.2391
  103OSM    H1S10428   1.241   2.089  10.825 -0.5105 -1.6130 -0.4673
  103OSM    H1T10429   1.330   1.935  10.819 -2.1001 -0.5453 -0.5530
  103OSM     NF10430   1.206   1.975  10.597  0.1090 -0.3358 -0.5344
  103OSM    HNF10431   1.225   1.886  10.556  0.4142 -0.8170  0.6348
  103OSM    C2S10432   1.332   2.044  10.642 -0.2286  0.4847  1.0735
  103OSM    H2S10433   1.321   2.149  10.608 -0.7558 -0.0632 -0.5001
  103OSM    C3S10434   1.466   1.976  10.580  0.1827  0.0866 -0.2482
  103OSM    H3S10435   1.467   1.872  10.621 -1.6482  0.9238  2.0122
  103OSM     O310436   1.588   2.031  10.639 -0.1367  0.6123 -0.5436
  103OSM    HO310437   1.565   2.067  10.725 -1.4391 -2.2997  0.3835
  103OSM    C4S10438   1.468   1.978  10.436  0.5386 -0.1797 -0.4605
  103OSM    H4S10439   1.422   1.889  10.390  2.2901 -0.3604 -1.9089
  103OSM    C5S10440   1.518   2.064  10.348  0.1724 -0.0873  0.4704
  103OSM    H5S10441   1.555   2.158  10.392 -1.2111  0.7228 -0.0510
  103OSM    C6S10442   1.513   2.056  10.200 -0.4040 -0.4188 -0.2579
  103OSM    H6S10443   1.422   2.106  10.163 -2.1491 -2.6899  0.8409
  103OSM    H6T10444   1.516   1.951  10.164  3.1478 -0.4306 -0.1708
  103OSM    C7S10445   1.635   2.132  10.149  0.3371 -0.0505  1.0725
  103OSM    H7S10446   1.729   2.088  10.189  0.5891  1.4460  2.1571
  103OSM    H7T10447   1.635   2.235  10.191  2.4833 -0.7306  2.8462
  103OSM    C8S10448   1.636   2.139   9.992 -0.3022  0.8494 -0.2955
  103OSM    H8S10449   1.535   2.179   9.968 -1.3961  1.6872  5.0726
  103OSM    H8T10450   1.641   2.031   9.965  1.4485  0.8315  0.0821
  103OSM    C9S10451   1.752   2.215   9.925  0.8913  0.3861 -0.7400
  103OSM    H9S10452   1.751   2.318   9.966 -0.0032  0.5493 -1.1700
  103OSM    H9T10453   1.729   2.205   9.817 -1.1502 -0.1427 -0.2848
  103OSM   C10S10454   1.891   2.151   9.949 -0.5689  0.0613  0.2458
  103OSM   H10S10455   1.908   2.165  10.058 -0.7317  0.9459  0.1597
  103OSM   H10T10456   1.973   2.212   9.906  1.5645 -2.0810  1.1420
  103OSM   C11S10457   1.905   2.003   9.911 -0.3063 -0.4256 -0.7469
  103OSM   H11S10458   1.830   1.954   9.977 -1.0008 -1.1305 -2.0308
  103OSM   H11T10459   2.005   1.959   9.927 -0.4501  0.0068  1.4870
  103OSM   C12S10460   1.861   1.981   9.762 -0.9926  0.0691  0.1442
  103OSM   H12S10461   1.757   2.019   9.748 -0.6689 -0.2472 -3.5376
  103OSM   H12T10462   1.873   1.873   9.744 -1.1361  0.0973 -0.1182
  103OSM   C13S10463   1.951   2.063   9.663 -0.0320  0.3075  0.0899
  103OSM   H13S10464   2.055   2.029   9.675 -0.5895 -1.4529 -0.0280
  103OSM   H13T10465   1.958   2.172   9.687 -0.6866  0.1812  0.9055
  103OSM   C14S10466   1.911   2.050   9.514  0.2782  0.5081  0.5463
  103OSM   H14S10467   1.831   2.124   9.494 -0.9931 -0.9014  0.3568
  103OSM   H14T10468   1.874   1.952   9.477 -1.6366  1.7050 -0.7566
  103OSM   C15S10469   2.024   2.077   9.407 -0.1735 -0.5613  0.3479
  103OSM   H15S10470   2.107   2.004   9.420  0.6200 -0.2727 -2.8179
  103OSM   H15T10471   2.061   2.181   9.418 -1.2252 -0.1697  0.2820
  103OSM   C16S10472   1.976   2.071   9.262 -0.2579  0.3706 -0.5822
  103OSM   H16S10473   1.891   2.140   9.249 -0.8567  0.1506  1.9776
  103OSM   H16T10474   1.945   1.965   9.248 -2.0113  0.6629  0.9842
  103OSM   C17S10475   2.091   2.121   9.173  0.1484  0.0336 -0.8449
  103OSM   H17S10476   2.166   2.040   9.160  1.0898  0.8685 -0.6279
  103OSM   H17T10477   2.146   2.205   9.219 -1.5930  1.0424 -0.5544
  103OSM   C18S10478   2.050   2.145   9.027 -0.7866  0.1630  0.3149
  103OSM   H18S10479   2.132   2.194   8.970 -0.5496  0.9892  1.3460
  103OSM   H18T10480   1.962   2.213   9.036 -1.0274 -0.2324  0.9429
  103OSM   H18U10481   1.998   2.055   8.987 -2.1591  1.1790 -0.2447
  103OSM    C1F10482   1.080   2.012  10.618  0.4189 -0.8519  0.1327
  103OSM     OF10483   1.055   2.117  10.675  0.0886  0.1053 -0.4775
  103OSM    C2F10484   0.975   1.922  10.564  0.3386  0.4097 -0.4243
  103OSM    H2F10485   0.899   1.916  10.645 -0.2932 -1.0762 -1.1093
  103OSM    H2G10486   1.019   1.823  10.539  0.8920  1.2206 -2.7464
  103OSM    C3F10487   0.906   1.980  10.436 -0.1305 -0.3656 -0.2243
  103OSM    H3F10488   0.867   2.083  10.453  0.7937 -0.1586  0.6799
  103OSM    H3G10489   0.818   1.913  10.424 -1.0436  0.5430  1.1492
  103OSM    C4F10490   1.006   1.973  10.314  0.1379  0.6153 -0.0950
  103OSM    H4F10491   1.045   1.870  10.296  1.0181  0.9249  0.0280
  103OSM    H4G10492   1.084   2.050  10.331  1.1645 -0.2812 -0.7023
  103OSM    C5F10493   0.952   2.012  10.176  0.6941 -0.3047  0.3692
  103OSM    H5F10494   0.894   2.106  10.183  1.0740  0.2268 -2.9483
  103OSM    H5G10495   0.885   1.935  10.133 -2.2641  0.7973  2.8521
  103OSM    C6F10496   1.070   2.046  10.076  0.1081 -0.0620 -0.6694
  103OSM    H6F10497   1.117   2.135  10.122 -1.9359  1.2744 -1.1025
  103OSM    H6G10498   1.029   2.073   9.976 -0.5469 -2.6218 -1.1365
  103OSM    C7F10499   1.171   1.932  10.063  0.4914 -0.0376  0.6014
  103OSM    H7F10500   1.117   1.834  10.055  0.1948  0.2752 -1.4897
  103OSM    H7G10501   1.235   1.926  10.153  0.5857 -0.4357  0.5082
  103OSM    C8F10502   1.253   1.938   9.926 -0.6915 -0.6251  0.1871
  103OSM    H8F10503   1.298   2.039   9.916 -0.2468 -0.9042 -0.6107
  103OSM    H8G10504   1.182   1.930   9.841  0.1422 -2.5378 -0.3500
  103OSM    C9F10505   1.361   1.834   9.912 -0.0285 -0.6253  0.1628
  103OSM    H9F10506   1.413   1.824  10.009 -0.2186 -1.9953  0.1276
  103OSM   C10F10507   1.410   1.760   9.810 -0.7387  0.2067  0.4235
  103OSM   H10F10508   1.500   1.699   9.825  0.8109  2.5271  0.8969
  103OSM   C11F10509   1.374   1.758   9.669 -0.1522 -0.8095 -0.7925
  103OSM   H11F10510   1.294   1.835   9.667  1.2643  0.7283  0.4757
  103OSM   H11G10511   1.333   1.660   9.633  0.0359 -1.2419  0.1571
  103OSM   C12F10512   1.483   1.799   9.570 -0.1326 -1.1438  0.1210
  103OSM   H12F10513   1.514   1.903   9.590  0.3574 -0.9787 -1.3997
  103OSM   H12G10514   1.443   1.790   9.466 -2.1074  0.7142  0.6816
  103OSM   C13F10515   1.616   1.715   9.578 -0.8025 -0.6182 -0.3895
  103OSM   H13F10516   1.670   1.752   9.667  1.5367  0.0294 -2.0381
  103OSM   H13G10517   1.580   1.614   9.608 -1.8900 -0.4561 -1.0993
  103OSM   C14F10518   1.691   1.695   9.446 -0.3154 -0.4355 -0.2641
  103OSM   H14F10519   1.790   1.648   9.465 -0.5204 -1.4080 -1.5757
  103OSM   H14G10520   1.709   1.794   9.399  3.1118 -1.1268 -0.5909
  103OSM   C15F10521   1.619   1.604   9.349 -0.0529  0.5803  0.1859
  103OSM   H15F10522   1.521   1.651   9.328 -1.4048 -2.8333 -1.6414
  103OSM   H15G10523   1.601   1.502   9.390 -0.9486  0.5354 -0.3232
  103OSM   C16F10524   1.691   1.587   9.212  0.1294 -0.1396 -0.0351
  103OSM   H16F10525   1.794   1.548   9.227  0.4168 -0.1294 -1.8631
  103OSM   H16G10526   1.694   1.673   9.143 -1.3978 -0.6192 -0.7149
  103OSM   C17F10527   1.618   1.479   9.127 -0.3924  0.1653  0.0794
  103OSM   H17F10528   1.626   1.386   9.187 -2.0970  1.2273  2.0198
  103OSM   H17G10529   1.675   1.471   9.031  1.1376 -1.3937  1.0857
  103OSM   C18F10530   1.474   1.509   9.088  0.3251 -0.0831  0.1562
  103OSM   H18F10531   1.463   1.608   9.039  0.6338 -0.8566 -1.4824
  103OSM   H18G10532   1.411   1.507   9.180  0.0448 -3.2838 -0.0303
  103OSM   H18H10533   1.425   1.438   9.018 -1.2423 -0.2030  1.3388
  104OSM      N10534   5.095   2.233  10.977  0.0297 -0.8244 -0.1294
  104OSM    C1510535   5.230   2.225  11.032 -0.4911 -0.9139  0.3637
  104OSM   H15A10536   5.230   2.147  11.106 -0.9083 -1.2215  0.0391
  104OSM   H15B10537   5.252   2.319  11.082  1.5862  0.0143 -2.1863
  104OSM   H15C10538   5.310   2.217  10.961  1.5525 -1.7506  2.6922
  104OSM    C1410539   5.076   2.109  10.898 -0.0864 -0.0324  0.5997
  104OSM   H14A10540   4.985   2.122  10.840 -0.6473  3.6968  2.1893
  104OSM   H14B10541   5.060   2.024  10.963 -2.4636 -1.6294 -1.9376
  104OSM   H14C10542   5.166   2.100  10.839 -0.5679  0.3744 -0.2132
  104OSM    C1310543   5.002   2.232  11.094 -0.2349  0.1804 -0.2811
  104OSM   H13A10544   5.017   2.143  11.154  1.0208  1.3408  1.1727
  104OSM   H13B10545   4.898   2.221  11.068 -0.4971  1.1741  0.3265
  104OSM   H13C10546   5.033   2.312  11.160  1.9081  0.0675 -1.0988
  104OSM    C1210547   5.083   2.353  10.886  0.0946 -0.4608  0.2463
  104OSM   H12A10548   5.165   2.349  10.816  1.3194 -0.2770  1.6498
  104OSM   H12B10549   5.115   2.441  10.941  0.0144  0.4807 -1.1973
  104OSM    C1110550   4.940   2.368  10.824 -0.4186  0.1891 -0.5441
  104OSM   H11A10551   4.938   2.473  10.789 -1.0966  0.9337  1.6672
  104OSM   H11B10552   4.865   2.359  10.905  0.0463  0.0381 -0.1331
  104OSM      P10553   4.772   2.227  10.682  0.3242 -0.0095  0.3792
  104OSM    O1310554   4.781   2.118  10.582  0.0727  0.9026  0.2798
  104OSM    O1410555   4.682   2.210  10.801 -0.5629  0.0687 -0.5036
  104OSM    O1110556   4.721   2.351  10.598 -0.3986 -0.2009  0.0771
  104OSM    O1210557   4.926   2.269  10.718  0.1722  0.1120  0.0670
  104OSM    C1S10558   4.798   2.437  10.514  0.4795  0.0285 -0.0260
  104OSM    H1S10559   4.890   2.474  10.564 -0.7161  0.9367  1.5564
  104OSM    H1T10560   4.740   2.529  10.490  0.0061 -0.3621 -0.3894
  104OSM     NF10561   4.914   2.451  10.303 -0.5918  0.1535  0.2476
  104OSM    HNF10562   4.886   2.509  10.227 -1.0082 -1.3146 -0.7476
  104OSM    C2S10563   4.821   2.371  10.376 -0.0851 -0.2390 -0.4397
  104OSM    H2S10564   4.868   2.271  10.393  0.9076  0.2224 -0.4365
  104OSM    C3S10565   4.688   2.349  10.299  0.0716 -0.4451  0.4856
  104OSM    H3S10566   4.624   2.439  10.308  1.0789  0.2689  0.5680
  104OSM     O310567   4.606   2.257  10.370  0.0875 -0.2349  0.4854
  104OSM    HO310568   4.657   2.249  10.450  1.2200  0.0639 -0.1926
  104OSM    C4S10569   4.700   2.319  10.153  0.5510  0.0888 -0.2724
  104OSM    H4S10570   4.723   2.404  10.087  1.5904 -0.0620 -0.1151
  104OSM    C5S10571   4.668   2.200  10.093  0.0420 -0.0269 -0.4029
  104OSM    H5S10572   4.641   2.108  10.146  2.6558 -1.3868 -1.3354
  104OSM    C6S10573   4.686   2.180   9.946  0.5388 -0.0748  0.8452
  104OSM    H6S10574   4.603   2.226   9.889  1.4237 -0.3021 -0.6431
  104OSM    H6T10575   4.668   2.075   9.916 -0.6203 -1.1612  4.9771
  104OSM    C7S10576   4.814   2.229   9.890 -0.4680  0.9080  0.5031
  104OSM    H7S10577   4.902   2.184   9.941  1.6645  0.0722 -3.6334
  104OSM    H7T10578   4.830   2.338   9.906 -0.0220  0.5987  2.2181
  104OSM    C8S10579   4.843   2.202   9.736 -0.2346  0.2158 -0.1788
  104OSM    H8S10580   4.816   2.098   9.710  2.6569 -0.6102 -0.0613
  104OSM    H8T10581   4.953   2.218   9.730 -0.1251  0.9095  3.0679
  104OSM    C9S10582   4.767   2.288   9.637 -0.6601 -1.0150  0.6537
  104OSM    H9S10583   4.780   2.397   9.650  0.6507 -0.8205 -1.8780
  104OSM    H9T10584   4.661   2.259   9.651 -0.2946 -2.0963  1.2738
  104OSM   C10S10585   4.797   2.261   9.489 -0.3761  0.0218  0.1136
  104OSM   H10S10586   4.792   2.150   9.493  0.2880  0.0419  1.5965
  104OSM   H10T10587   4.901   2.289   9.460 -0.1369 -1.3604 -0.4443
  104OSM   C11S10588   4.698   2.321   9.380  0.2279  0.1943 -0.5832
  104OSM   H11S10589   4.688   2.430   9.402 -4.1550 -0.8043  3.1450
  104OSM   H11T10590   4.600   2.275   9.406  0.5463  0.0060  0.2987
  104OSM   C12S10591   4.743   2.277   9.242 -0.0628  0.3396  0.9524
  104OSM   H12S10592   4.759   2.167   9.233  1.7337  0.6449  0.2435
  104OSM   H12T10593   4.839   2.330   9.227  0.0874 -0.2714 -0.3513
  104OSM   C13S10594   4.657   2.324   9.127  0.3742 -0.1375 -0.5514
  104OSM   H13S10595   4.667   2.434   9.111  3.1734 -0.1493  0.8688
  104OSM   H13T10596   4.552   2.295   9.150  1.7406 -2.1743  3.4549
  104OSM   C14S10597   4.695   2.255   8.998 -0.1372 -0.2527 -0.3944
  104OSM   H14S10598   4.693   2.145   9.007 -1.0337 -0.3449 -1.5022
  104OSM   H14T10599   4.799   2.288   8.975 -0.0353 -0.5759 -0.4027
  104OSM   C15S10600   4.618   2.316   8.881 -0.4281 -0.6998  0.3701
  104OSM   H15S10601   4.633   2.426   8.879  0.5748 -0.8461 -0.4722
  104OSM   H15T10602   4.510   2.302   8.906 -0.4561  1.1437  1.3951
  104OSM   C16S10603   4.646   2.251   8.747  0.5918 -0.0040  0.0852
  104OSM   H16S10604   4.753   2.272   8.722  1.0895 -1.8448  0.5600
  104OSM   H16T10605   4.579   2.291   8.668  1.7814 -1.9709 -1.9726
  104OSM   C17S10606   4.632   2.096   8.741  0.3809  0.2931  0.7994
  104OSM   H17S10607   4.536   2.056   8.779  0.9495  0.1268  2.0925
  104OSM   H17T10608   4.713   2.046   8.799 -0.6681 -2.7360 -0.2361
  104OSM   C18S10609   4.670   2.055   8.597 -0.8978  0.3238  0.4746
  104OSM   H18S10610   4.762   2.108   8.564  1.2310 -2.6129  1.4999
  104OSM   H18T10611   4.591   2.076   8.522  0.7800 -0.1562 -1.4854
  104OSM   H18U10612   4.700   1.948   8.585  0.3621  1.0170 -3.3948
  104OSM    C1F10613   5.046   2.455  10.328 -0.1094  0.4752  0.0416
  104OSM     OF10614   5.101   2.360  10.386  0.4734 -0.5101 -0.7382
  104OSM    C2F10615   5.133   2.574  10.280 -0.4496  0.1329 -0.0351
  104OSM    H2F10616   5.176   2.614  10.375  0.0024  0.0828 -0.2197
  104OSM    H2G10617   5.060   2.648  10.241  0.2570  0.6259 -0.4242
  104OSM    C3F10618   5.238   2.536  10.175  0.3166  0.6758 -0.3467
  104OSM    H3F10619   5.309   2.460  10.215 -0.8196 -0.3839 -0.3138
  104OSM    H3G10620   5.292   2.630  10.152 -1.6570  2.0393  0.4207
  104OSM    C4F10621   5.165   2.482  10.051 -1.0139  0.9640  0.5735
  104OSM    H4F10622   5.064   2.527  10.038 -0.3724  1.7205 -2.1047
  104OSM    H4G10623   5.167   2.371  10.063  0.1047  0.6378 -2.3284
  104OSM    C5F10624   5.251   2.511   9.925  0.7033 -0.3624 -0.0775
  104OSM    H5F10625   5.354   2.477   9.946  0.7116 -1.2907 -1.5282
  104OSM    H5G10626   5.258   2.621   9.911  4.8414 -0.3116  1.7204
  104OSM    C6F10627   5.185   2.454   9.798 -0.4906  0.7481  0.3003
  104OSM    H6F10628   5.080   2.489   9.795 -0.3406  1.1692 -0.0226
  104OSM    H6G10629   5.192   2.343   9.799 -1.3865  0.6820 -0.3412
  104OSM    C7F10630   5.243   2.493   9.654  0.1093  0.0757 -0.3147
  104OSM    H7F10631   5.352   2.479   9.639 -0.1080 -0.9298 -1.0236
  104OSM    H7G10632   5.228   2.603   9.646 -1.9775 -0.0660  1.3071
  104OSM    C8F10633   5.170   2.429   9.530  0.2436 -0.8090 -0.9985
  104OSM    H8F10634   5.063   2.455   9.541 -0.1527 -3.4684  2.3007
  104OSM    H8G10635   5.174   2.318   9.540 -1.6839 -0.7551  0.8897
  104OSM    C9F10636   5.244   2.475   9.401  0.4627  0.1130  0.5574
  104OSM    H9F10637   5.351   2.453   9.390  0.9964  2.6971  0.4198
  104OSM   C10F10638   5.192   2.556   9.304  1.4865  0.0830  0.1064
  104OSM   H10F10639   5.254   2.583   9.217  1.6344  1.2275  0.5638
  104OSM   C11F10640   5.052   2.604   9.312  0.2236 -0.3201 -0.4446
  104OSM   H11F10641   5.033   2.666   9.402 -2.3155 -2.9180  0.9233
  104OSM   H11G10642   4.982   2.517   9.313  1.4923 -1.3550  0.8143
  104OSM   C12F10643   5.017   2.690   9.192 -0.4881 -0.0024 -0.1583
  104OSM   H12F10644   5.097   2.766   9.182 -0.0477 -0.2416  1.5045
  104OSM   H12G10645   4.920   2.743   9.206 -0.3950 -0.0486  0.6595
  104OSM   C13F10646   5.000   2.598   9.065  0.1811 -0.6202 -0.0555
  104OSM   H13F10647   4.914   2.527   9.067  0.1273 -0.6601 -2.2931
  104OSM   H13G10648   5.090   2.533   9.069  1.8705  1.5887 -1.1932
  104OSM   C14F10649   5.003   2.671   8.933 -0.1059 -0.4923 -0.0460
  104OSM   H14F10650   5.107   2.710   8.929 -0.3536  0.3080  0.9880
  104OSM   H14G10651   4.934   2.758   8.929  1.5270  0.8354  0.1852
  104OSM   C15F10652   4.978   2.593   8.809  0.5797  0.3434  0.5668
  104OSM   H15F10653   4.883   2.623   8.760  0.0303 -1.7428  0.2896
  104OSM   H15G10654   4.968   2.484   8.830 -2.3870  0.4560 -0.0573
  104OSM   C16F10655   5.090   2.610   8.706  0.5430  0.0363 -0.5477
  104OSM   H16F10656   5.183   2.575   8.755 -0.6516 -1.6478  0.5381
  104OSM   H16G10657   5.101   2.720   8.690  2.1442 -0.0517 -0.1193
  104OSM   C17F10658   5.063   2.540   8.575  0.0447  0.7514  0.3278
  104OSM   H17F10659   4.972   2.581   8.528 -0.4671 -0.6730  0.0356
  104OSM   H17G10660   5.035   2.434   8.593  1.5296 -0.0279 -1.6485
  104OSM   C18F10661   5.180   2.538   8.470 -0.1208 -0.5599 -0.1975
  104OSM   H18F10662   5.150   2.500   8.370 -2.8930 -0.3169  0.4942
  104OSM   H18G10663   5.262   2.469   8.500 -0.4747 -1.0993 -0.4528
  104OSM   H18H10664   5.229   2.636   8.454 -0.3725 -0.2075  1.1939
  105OSM      N10665   4.714   1.774  11.118 -0.4176  0.1245  0.4726
  105OSM    C1510666   4.679   1.801  10.974  0.2289 -0.4882  0.4079
  105OSM   H15A10667   4.572   1.808  10.958  0.5847 -0.6198 -2.2647
  105OSM   H15B10668   4.703   1.714  10.913 -1.5092 -0.0873 -0.9210
  105OSM   H15C10669   4.713   1.898  10.942 -3.0665  0.9522  1.0685
  105OSM    C1410670   4.675   1.891  11.194  0.4669  0.1707  0.0038
  105OSM   H14A10671   4.569   1.909  11.190  0.3700 -0.5616 -0.7568
  105OSM   H14B10672   4.722   1.983  11.161 -1.7150  1.1244 -0.5447
  105OSM   H14C10673   4.706   1.887  11.298 -0.5569  2.4888  0.4371
  105OSM    C1310674   4.620   1.664  11.174 -0.1491 -0.9381  0.1609
  105OSM   H13A10675   4.519   1.689  11.148  0.4079  1.6576  0.3795
  105OSM   H13B10676   4.627   1.646  11.280 -0.6582 -1.5418  0.0990
  105OSM   H13C10677   4.625   1.569  11.123  0.3189 -0.1481 -1.2981
  105OSM    C1210678   4.860   1.735  11.144  0.3624 -0.4083 -0.1407
  105OSM   H12A10679   4.879   1.649  11.081 -2.0371  1.3174 -3.3366
  105OSM   H12B10680   4.879   1.713  11.248 -0.4384  0.0157  0.0955
  105OSM    C1110681   4.975   1.833  11.102 -0.3517  0.0317 -0.8638
  105OSM   H11A10682   5.073   1.809  11.148 -0.4758 -2.3705 -1.7570
  105OSM   H11B10683   4.949   1.933  11.142  0.5700 -0.6908  1.6359
  105OSM      P10684   5.014   1.710  10.875 -0.3639  0.3851  0.2141
  105OSM    O1310685   5.140   1.733  10.800 -0.0466  0.2563  0.2300
  105OSM    O1410686   4.999   1.589  10.955 -0.7062 -0.2545  0.1034
  105OSM    O1110687   4.894   1.712  10.776  0.6525 -0.3812  0.2992
  105OSM    O1210688   4.984   1.836  10.965  0.1376  0.2501 -0.9878
  105OSM    C1S10689   4.894   1.819  10.681  0.6112  0.6380  0.4036
  105OSM    H1S10690   4.996   1.850  10.650  0.2738  1.4042  0.0612
  105OSM    H1T10691   4.834   1.904  10.722  0.6775  0.6980  0.3747
  105OSM     NF10692   4.838   1.883  10.450 -0.0716 -0.9043 -0.1894
  105OSM    HNF10693   4.817   1.973  10.489 -0.8706 -1.7720  1.4383
  105OSM    C2S10694   4.824   1.776  10.553  0.0311 -0.6853  0.2804
  105OSM    H2S10695   4.872   1.681  10.521 -2.1048 -1.9712  0.7702
  105OSM    C3S10696   4.679   1.746  10.586 -0.1305  0.0957 -0.1281
  105OSM    H3S10697   4.623   1.835  10.623 -1.0337 -0.7933  0.6578
  105OSM     O310698   4.661   1.648  10.686 -0.3859  0.2824  0.3702
  105OSM    HO310699   4.749   1.647  10.724  0.6189 -1.0679 -1.9265
  105OSM    C4S10700   4.607   1.694  10.466 -0.0674  0.1121  0.4012
  105OSM    H4S10701   4.659   1.613  10.412  1.8158  0.2538  1.9531
  105OSM    C5S10702   4.501   1.761  10.413  1.0208 -0.4225  0.3003
  105OSM    H5S10703   4.475   1.862  10.448  1.1705 -0.0544 -0.6470
  105OSM    C6S10704   4.435   1.731  10.278 -0.4726 -0.9132 -0.6723
  105OSM    H6S10705   4.326   1.752  10.290 -0.7749 -2.2911 -0.9453
  105OSM    H6T10706   4.436   1.621  10.260  0.4178 -0.8597 -0.9406
  105OSM    C7S10707   4.502   1.807  10.162 -0.3453 -0.0382 -0.1041
  105OSM    H7S10708   4.612   1.792  10.170 -0.2246  1.3688  1.1027
  105OSM    H7T10709   4.478   1.914  10.179 -1.2487 -0.1381 -0.7588
  105OSM    C8S10710   4.453   1.759  10.029  0.4302 -0.4490 -0.6186
  105OSM    H8S10711   4.343   1.769  10.015  0.3390 -0.9640 -0.2909
  105OSM    H8T10712   4.480   1.651  10.018 -0.0554 -0.5175 -1.1731
  105OSM    C9S10713   4.517   1.839   9.914 -0.2775  0.9179 -0.0203
  105OSM    H9S10714   4.627   1.827   9.915 -0.4476 -0.7159  2.0145
  105OSM    H9T10715   4.483   1.944   9.926 -0.3559  0.8824  0.0666
  105OSM   C10S10716   4.466   1.804   9.779 -0.0632 -0.1448  0.4753
  105OSM   H10S10717   4.355   1.793   9.785 -0.2787  0.6104 -1.5997
  105OSM   H10T10718   4.490   1.701   9.744 -1.1203 -0.7566  1.5020
  105OSM   C11S10719   4.517   1.900   9.670  0.1842  0.4471 -0.3583
  105OSM   H11S10720   4.625   1.877   9.658  0.6767  2.0143  0.8628
  105OSM   H11T10721   4.508   2.005   9.706 -0.6075 -0.3872  1.9955
  105OSM   C12S10722   4.427   1.888   9.542 -0.1311 -0.2506  0.5091
  105OSM   H12S10723   4.330   1.933   9.572 -0.2496  0.6510 -1.1952
  105OSM   H12T10724   4.416   1.779   9.528 -2.8265 -0.1804  1.7942
  105OSM   C13S10725   4.482   1.965   9.427  0.3439  0.1460  0.6774
  105OSM   H13S10726   4.593   1.968   9.421  0.1846  2.2315 -1.9187
  105OSM   H13T10727   4.441   2.068   9.431  0.5752  0.4026 -2.4472
  105OSM   C14S10728   4.431   1.899   9.298  0.1902 -0.3299  1.1293
  105OSM   H14S10729   4.320   1.896   9.295  0.2214 -3.3612  1.3635
  105OSM   H14T10730   4.470   1.795   9.297 -0.3760 -0.5425  1.0247
  105OSM   C15S10731   4.498   1.970   9.172 -0.0250  0.1524 -0.2604
  105OSM   H15S10732   4.607   1.973   9.191  0.1070 -0.6092 -0.9060
  105OSM   H15T10733   4.464   2.075   9.184 -0.9416 -0.1947  0.2302
  105OSM   C16S10734   4.473   1.922   9.030  0.1655 -0.3235 -0.6796
  105OSM   H16S10735   4.460   1.811   9.027 -1.3721 -0.1294 -1.2578
  105OSM   H16T10736   4.555   1.950   8.960  2.4888 -0.9096  1.7253
  105OSM   C17S10737   4.345   1.974   8.973  0.8916  0.1485  0.3275
  105OSM   H17S10738   4.343   1.932   8.871 -2.1599 -0.2839  0.5205
  105OSM   H17T10739   4.347   2.085   8.961  0.7217 -0.0743 -1.8282
  105OSM   C18S10740   4.214   1.948   9.041 -0.2047  0.2335  0.5737
  105OSM   H18S10741   4.222   1.848   9.089 -1.0448 -1.2868 -2.3078
  105OSM   H18T10742   4.130   1.944   8.968  0.7687 -1.0412 -0.5165
  105OSM   H18U10743   4.193   2.030   9.113 -0.8603 -0.7529  1.5188
  105OSM    C1F10744   4.947   1.875  10.376  0.3087 -0.2250  0.5566
  105OSM     OF10745   5.024   1.783  10.383 -0.7186  0.0512  0.4377
  105OSM    C2F10746   4.978   1.995  10.293 -0.2916 -0.4914  0.3989
  105OSM    H2F10747   5.064   2.049  10.339  1.2541 -1.9297 -0.7465
  105OSM    H2G10748   4.889   2.061  10.290  0.5857  0.7223  0.6132
  105OSM    C3F10749   5.012   1.945  10.150  0.0017 -0.1590  0.2725
  105OSM    H3F10750   5.099   1.877  10.163 -0.5457 -0.5468  2.1626
  105OSM    H3G10751   5.040   2.021  10.075 -2.0488 -0.2068 -0.5607
  105OSM    C4F10752   4.896   1.849  10.097  0.3424 -0.2527  0.0530
  105OSM    H4F10753   4.808   1.917  10.090  0.8325  0.2786 -1.2360
  105OSM    H4G10754   4.866   1.774  10.173  0.5262 -2.0060 -1.5593
  105OSM    C5F10755   4.907   1.784   9.965  0.6204  0.5236 -0.4036
  105OSM    H5F10756   4.820   1.717   9.948  1.7376 -1.3063  1.0496
  105OSM    H5G10757   5.000   1.724   9.965  1.6898  2.1274  1.2242
  105OSM    C6F10758   4.918   1.881   9.850 -0.2104 -0.3190 -0.7731
  105OSM    H6F10759   5.007   1.943   9.874  0.3624 -1.6797  0.6674
  105OSM    H6G10760   4.832   1.950   9.842 -0.5413 -0.6679 -0.1991
  105OSM    C7F10761   4.933   1.806   9.715  0.1419  0.2302 -0.6399
  105OSM    H7F10762   4.838   1.749   9.703  0.5309 -1.0313  2.0951
  105OSM    H7G10763   5.007   1.726   9.736  0.2851  0.5878  0.1928
  105OSM    C8F10764   4.953   1.891   9.585  0.4803 -0.9135 -0.1130
  105OSM    H8F10765   4.850   1.930   9.565  0.9548  0.1303 -0.5744
  105OSM    H8G10766   4.970   1.820   9.502 -0.0131 -1.1997  0.0277
  105OSM    C9F10767   5.061   1.997   9.597 -0.0840 -0.3659 -0.6221
  105OSM    H9F10768   5.062   2.058   9.688 -1.8471  1.4359 -1.7793
  105OSM   C10F10769   5.160   2.016   9.505  0.5537  0.1198  0.1207
  105OSM   H10F10770   5.228   2.100   9.527 -2.4682  2.2521  1.6730
  105OSM   C11F10771   5.170   1.938   9.381  0.0975 -0.1096 -0.4153
  105OSM   H11F10772   5.076   1.892   9.342 -0.9155  1.9150 -0.4389
  105OSM   H11G10773   5.238   1.850   9.388 -1.7752 -1.7638 -1.9960
  105OSM   C12F10774   5.228   2.029   9.272  0.7250 -0.1617 -0.2002
  105OSM   H12F10775   5.259   1.953   9.197  3.1148 -0.3397  0.9261
  105OSM   H12G10776   5.319   2.083   9.302  0.3249  0.5997 -0.3530
  105OSM   C13F10777   5.124   2.113   9.204  0.2179 -0.1889 -0.3700
  105OSM   H13F10778   5.063   2.163   9.282  1.3117  0.7182 -0.0832
  105OSM   H13G10779   5.057   2.050   9.142  0.1235 -1.5259  1.0752
  105OSM   C14F10780   5.175   2.224   9.108  0.0637  0.1456  0.2869
  105OSM   H14F10781   5.257   2.269   9.168 -0.0604  3.1709 -1.6867
  105OSM   H14G10782   5.101   2.306   9.094 -0.6119 -0.6169 -0.6679
  105OSM   C15F10783   5.225   2.174   8.973  0.4055  0.0121  0.6049
  105OSM   H15F10784   5.287   2.083   8.989 -0.9994 -0.8369  1.3124
  105OSM   H15G10785   5.283   2.253   8.921  0.5881 -1.0923 -0.9082
  105OSM   C16F10786   5.103   2.145   8.887  0.1437  0.5364  0.5450
  105OSM   H16F10787   5.048   2.240   8.868  1.5312  1.7512  2.3630
  105OSM   H16G10788   5.025   2.075   8.924 -0.0167  0.2391 -0.3511
  105OSM   C17F10789   5.150   2.077   8.754 -0.5666 -0.1112  0.9615
  105OSM   H17F10790   5.223   1.998   8.781 -0.6970 -0.0434  1.5358
  105OSM   H17G10791   5.217   2.148   8.700 -1.6755 -0.5826 -1.0603
  105OSM   C18F10792   5.037   2.041   8.662 -0.0594  0.0451 -0.0958
  105OSM   H18F10793   5.087   1.978   8.586  0.0749 -1.0034  0.8568
  105OSM   H18G10794   4.986   2.130   8.619  0.7555  0.1122 -0.9349
  105OSM   H18H10795   4.967   1.972   8.714 -1.5281  1.2604 -0.4234
  106OSM      N10796   6.624   0.274  10.778  0.0957 -0.7498 -0.1672
  106OSM    C1510797   6.542   0.365  10.854 -0.4000 -0.0182 -0.3799
  106OSM   H15A10798   6.437   0.346  10.833 -0.4250  1.2731 -1.5551
  106OSM   H15B10799   6.556   0.469  10.825 -1.0811  0.4119  0.8064
  106OSM   H15C10800   6.562   0.339  10.956  0.9243 -0.8561 -0.8473
  106OSM    C1410801   6.766   0.329  10.755 -0.7264 -0.0809 -0.2997
  106OSM   H14A10802   6.798   0.357  10.854 -3.1336  0.2885  0.3965
  106OSM   H14B10803   6.780   0.408  10.683  2.2827  1.7492  2.1927
  106OSM   H14C10804   6.827   0.242  10.733  0.2169  0.2909  0.8188
  106OSM    C1310805   6.629   0.155  10.863 -0.4035  0.1103  0.4033
  106OSM   H13A10806   6.685   0.073  10.820 -2.5444 -1.8646  1.2891
  106OSM   H13B10807   6.534   0.114  10.894  1.0603 -1.5330  2.9313
  106OSM   H13C10808   6.687   0.166  10.953 -0.1249 -2.6291  0.6168
  106OSM    C1210809   6.562   0.232  10.639 -1.1684 -0.0206 -0.0688
  106OSM   H12A10810   6.639   0.172  10.592 -1.3926 -0.3311 -0.0490
  106OSM   H12B10811   6.563   0.326  10.585 -1.5264  1.1903  2.0060
  106OSM    C1110812   6.440   0.154  10.629 -0.4138 -0.1899  1.0150
  106OSM   H11A10813   6.450   0.061  10.689  0.5608 -0.9488 -0.2843
  106OSM   H11B10814   6.433   0.119  10.523  0.0756  0.8901  0.6215
  106OSM      P10815   6.186   0.191  10.702  0.3458  0.0751 -0.1108
  106OSM    O1310816   6.204   0.161  10.841 -1.1287  0.7573 -0.7103
  106OSM    O1410817   6.085   0.296  10.677  0.3979 -0.5090 -0.0069
  106OSM    O1110818   6.147   0.061  10.630 -0.3042  0.3707  0.0525
  106OSM    O1210819   6.323   0.226  10.647 -0.1629  0.0491  0.0683
  106OSM    C1S10820   6.107   0.074  10.495 -0.2500 -0.9428  0.5634
  106OSM    H1S10821   6.189   0.121  10.437 -1.1208  0.7009  0.6490
  106OSM    H1T10822   6.025   0.147  10.484 -0.1485 -0.9615 -0.3682
  106OSM     NF10823   5.982  -0.027  10.307 -0.8879  0.2640 -0.0540
  106OSM    HNF10824   5.886  -0.000  10.302 -1.2084 -1.0554 -1.4522
  106OSM    C2S10825   6.045  -0.068  10.436 -0.5659 -0.3038 -0.6764
  106OSM    H2S10826   6.124  -0.145  10.421  0.3032  0.4432 -0.0089
  106OSM    C3S10827   5.942  -0.133  10.530  0.0176 -0.1923 -0.6637
  106OSM    H3S10828   5.854  -0.065  10.541 -0.5557 -0.7660 -1.6392
  106OSM     O310829   5.990  -0.147  10.671 -0.0393 -0.7427  0.8762
  106OSM    HO310830   6.054  -0.076  10.677 -2.9326  1.9996  0.7496
  106OSM    C4S10831   5.887  -0.260  10.472 -0.3885  0.4992  0.2820
  106OSM    H4S10832   5.805  -0.246  10.400 -1.0428 -0.6821  0.7714
  106OSM    C5S10833   5.925  -0.392  10.486 -0.6128 -0.3947 -0.3435
  106OSM    H5S10834   5.994  -0.425  10.566 -0.6492  0.9059  0.2442
  106OSM    C6S10835   5.869  -0.508  10.409  0.2825 -0.4512 -0.0432
  106OSM    H6S10836   5.775  -0.480  10.357  0.6262  0.4711 -0.1665
  106OSM    H6T10837   5.841  -0.592  10.477 -0.2330 -0.9385 -0.8450
  106OSM    C7S10838   5.975  -0.543  10.303  0.0558  0.3795 -0.4144
  106OSM    H7S10839   6.055  -0.603  10.351 -0.3683 -0.2546 -0.4956
  106OSM    H7T10840   6.030  -0.452  10.272 -0.9628  1.1739  0.0281
  106OSM    C8S10841   5.925  -0.618  10.179  0.2388  0.3130  0.2539
  106OSM    H8S10842   6.005  -0.610  10.102  0.9644  2.0755  1.1594
  106OSM    H8T10843   5.826  -0.583  10.142  0.0408 -0.4753  0.0411
  106OSM    C9S10844   5.920  -0.772  10.192  0.8259  0.0223  0.3076
  106OSM    H9S10845   5.873  -0.799  10.289  0.3700  0.6452  0.2617
  106OSM    H9T10846   6.025  -0.809  10.198  0.1969 -2.2519 -1.6414
  106OSM   C10S10847   5.844  -0.848  10.082  0.3303 -0.3557  0.6348
  106OSM   H10S10848   5.748  -0.793  10.068  0.0462 -1.7252 -3.4685
  106OSM   H10T10849   5.826  -0.942  10.138  1.4411 -0.7616  0.3289
  106OSM   C11S10850   5.915  -0.870   9.947 -0.4361 -0.3441 -0.5871
  106OSM   H11S10851   6.010  -0.921   9.972 -1.0011 -0.2597  1.9849
  106OSM   H11T10852   5.951  -0.772   9.908 -0.8151  0.5723  1.2633
  106OSM   C12S10853   5.856  -0.957   9.841  0.4912 -0.0001 -0.2300
  106OSM   H12S10854   5.745  -0.961   9.832  0.4364 -1.8745  0.8849
  106OSM   H12T10855   5.892  -1.060   9.860 -0.9945 -0.7819 -1.4840
  106OSM   C13S10856   5.895  -0.911   9.702  0.3516  0.4833 -0.1202
  106OSM   H13S10857   6.006  -0.915   9.701  0.2998 -1.4151 -0.9721
  106OSM   H13T10858   5.877  -0.802   9.692 -1.0732  0.4513  1.7797
  106OSM   C14S10859   5.838  -0.986   9.576 -0.4973  0.8793 -0.1014
  106OSM   H14S10860   5.731  -0.958   9.570  0.1595  4.4323  3.2230
  106OSM   H14T10861   5.842  -1.094   9.602  0.4135  0.7815 -0.6150
  106OSM   C15S10862   5.909  -0.946   9.449  0.2904 -0.5844 -0.2804
  106OSM   H15S10863   6.017  -0.969   9.462  0.0708 -1.0844  0.7210
  106OSM   H15T10864   5.906  -0.835   9.438  1.8350 -0.5006 -0.0185
  106OSM   C16S10865   5.865  -1.028   9.318 -0.7000 -0.2303  1.1414
  106OSM   H16S10866   5.761  -0.999   9.292  0.1549  1.6249 -0.3154
  106OSM   H16T10867   5.870  -1.138   9.332  1.5205 -0.0180  2.1328
  106OSM   C17S10868   5.950  -0.985   9.194  0.0244  0.5515 -0.4511
  106OSM   H17S10869   6.055  -1.017   9.212  0.9075  0.8410 -4.6076
  106OSM   H17T10870   5.932  -0.878   9.169 -1.0090  0.2164 -1.1522
  106OSM   C18S10871   5.916  -1.045   9.064 -0.4254  0.1259 -0.3865
  106OSM   H18S10872   5.938  -1.154   9.064 -1.8004 -0.1671  1.3489
  106OSM   H18T10873   5.956  -0.999   8.971 -0.6786  1.9277  0.3825
  106OSM   H18U10874   5.806  -1.042   9.057 -0.5445  1.5443  1.8038
  106OSM    C1F10875   6.067   0.003  10.207 -0.6247 -0.1276  0.7987
  106OSM     OF10876   6.191  -0.003  10.218 -0.0734  0.5085 -0.8122
  106OSM    C2F10877   5.999   0.041  10.077 -0.3298 -0.0129  0.1916
  106OSM    H2F10878   5.958   0.144  10.086  0.0087  0.1708 -0.3524
  106OSM    H2G10879   5.919  -0.035  10.064 -1.0354  0.6121  0.8286
  106OSM    C3F10880   6.084   0.036   9.952  0.0508  0.1822 -0.0882
  106OSM    H3F10881   6.117  -0.067   9.930  0.7945  0.3315  0.2880
  106OSM    H3G10882   6.173   0.102   9.942  0.0232  0.2030 -0.1984
  106OSM    C4F10883   5.990   0.058   9.834  0.1148  0.5585 -0.5354
  106OSM    H4F10884   5.958   0.164   9.829 -1.0466  0.2654  0.3328
  106OSM    H4G10885   5.891   0.010   9.849 -0.0053  1.7749  2.7069
  106OSM    C5F10886   6.041   0.013   9.704 -0.1111 -0.0515  0.1709
  106OSM    H5F10887   6.071  -0.094   9.708 -0.0923 -0.0150  0.9340
  106OSM    H5G10888   6.134   0.069   9.676 -2.4067  2.5291 -2.6861
  106OSM    C6F10889   5.940   0.043   9.585  0.0213 -0.0153 -0.5735
  106OSM    H6F10890   5.844  -0.008   9.613 -0.6038  0.3053 -2.0983
  106OSM    H6G10891   5.978  -0.008   9.494 -0.3855 -0.7534 -0.3452
  106OSM    C7F10892   5.906   0.194   9.556 -0.0803  0.0685  0.2642
  106OSM    H7F10893   6.003   0.244   9.537  0.1092 -0.1827  0.5836
  106OSM    H7G10894   5.863   0.228   9.652  0.2793 -0.5515  0.6495
  106OSM    C8F10895   5.827   0.211   9.430  0.0063  0.5380  0.1523
  106OSM    H8F10896   5.744   0.137   9.431 -0.2987  0.7725 -3.0496
  106OSM    H8G10897   5.899   0.173   9.354  0.1398  2.3586 -0.6502
  106OSM    C9F10898   5.788   0.358   9.404 -0.1538  0.7599 -0.1585
  106OSM    H9F10899   5.710   0.396   9.473  1.1667  1.8973  0.7289
  106OSM   C10F10900   5.840   0.445   9.317  0.6434 -0.0567  0.6929
  106OSM   H10F10901   5.793   0.544   9.309  1.2160  0.1020 -1.0708
  106OSM   C11F10902   5.955   0.419   9.218 -0.1737 -0.1026 -0.0163
  106OSM   H11F10903   5.918   0.391   9.117  1.1848  1.2273 -0.9132
  106OSM   H11G10904   6.011   0.328   9.249 -0.4385 -0.5680 -0.8892
  106OSM   C12F10905   6.056   0.537   9.208 -0.1148 -0.2027  0.5455
  106OSM   H12F10906   6.130   0.514   9.128  0.8925  0.5690  1.2349
  106OSM   H12G10907   6.107   0.545   9.307  0.4577 -0.2040  0.2559
  106OSM   C13F10908   5.994   0.677   9.160 -0.7705  0.4791  0.3170
  106OSM   H13F10909   5.902   0.700   9.217 -0.9450  0.7944 -0.0929
  106OSM   H13G10910   5.960   0.672   9.054  1.2646 -1.7615 -0.2830
  106OSM   C14F10911   6.090   0.796   9.180  0.1860 -0.4092  0.0543
  106OSM   H14F10912   6.105   0.814   9.289 -0.5918 -1.6217  0.3688
  106OSM   H14G10913   6.039   0.892   9.155 -0.1938 -0.2509  1.4079
  106OSM   C15F10914   6.222   0.776   9.105 -0.3993 -0.9535 -0.3630
  106OSM   H15F10915   6.283   0.690   9.140 -0.4920 -0.1879  1.7735
  106OSM   H15G10916   6.290   0.863   9.114  1.1389 -1.9804 -1.8496
  106OSM   C16F10917   6.196   0.775   8.953  0.0212  0.4477  0.2618
  106OSM   H16F10918   6.088   0.782   8.927  0.3105 -0.0014 -1.1224
  106OSM   H16G10919   6.232   0.679   8.909 -0.6088  0.2370  0.1993
  106OSM   C17F10920   6.261   0.891   8.880 -0.3923  0.1892  0.2490
  106OSM   H17F10921   6.235   0.891   8.772 -0.0197 -0.6464  0.1573
  106OSM   H17G10922   6.368   0.869   8.899  0.1850  2.4149 -0.2889
  106OSM   C18F10923   6.209   1.027   8.935 -1.0074 -0.2591  0.1384
  106OSM   H18F10924   6.228   1.108   8.862 -1.2766  2.4324  2.9754
  106OSM   H18G10925   6.262   1.058   9.027  2.7485 -1.1283 -1.6249
  106OSM   H18H10926   6.100   1.029   8.958 -0.8077  2.7502  0.9917
  107OSM      N10927   6.453   3.832  10.948  0.1523 -0.0341  0.6439
  107OSM    C1510928   6.477   3.933  10.841  0.2300  0.6471 -0.6753
  107OSM   H15A10929   6.532   4.020  10.873 -0.5327  1.0564 -0.4588
  107OSM   H15B10930   6.382   3.976  10.812 -1.1519 -1.2895  0.8481
  107OSM   H15C10931   6.524   3.887  10.755 -0.6536  1.4740 -1.6135
  107OSM    C1410932   6.405   3.903  11.070  0.5523 -0.3238 -0.2387
  107OSM   H14A10933   6.478   3.975  11.106 -2.2167  2.2339  0.4790
  107OSM   H14B10934   6.378   3.831  11.145  3.3768 -2.0183 -0.7960
  107OSM   H14C10935   6.315   3.960  11.052 -0.3267 -2.2503 -2.1934
  107OSM    C1310936   6.348   3.738  10.908  0.7127 -0.5883 -0.4090
  107OSM   H13A10937   6.376   3.691  10.815  2.5581 -0.0144 -0.1638
  107OSM   H13B10938   6.251   3.783  10.925  0.7445 -0.7343  0.1662
  107OSM   H13C10939   6.353   3.661  10.984 -0.6070 -1.0382 -0.7456
  107OSM    C1210940   6.589   3.760  10.983 -0.4841  0.4802 -0.7631
  107OSM   H12A10941   6.618   3.707  10.893  2.2484 -1.4273  1.1591
  107OSM   H12B10942   6.573   3.682  11.055  1.2845 -0.6728 -1.5962
  107OSM    C1110943   6.704   3.846  11.036  0.7530 -0.2004  0.1723
  107OSM   H11A10944   6.683   3.912  11.122 -2.6617 -0.0349 -0.7287
  107OSM   H11B10945   6.720   3.919  10.954 -3.0917  0.3283 -0.1644
  107OSM      P10946   6.962   3.827  11.052  0.2980  0.5144  0.4894
  107OSM    O1310947   6.966   3.934  11.155 -0.1936 -0.4440  0.1878
  107OSM    O1410948   7.063   3.719  11.063  0.5271 -0.6825 -0.4840
  107OSM    O1110949   6.982   3.893  10.913  0.4160  0.4646  0.3953
  107OSM    O1210950   6.817   3.758  11.042  0.8818 -0.1224  0.2727
  107OSM    C1S10951   7.042   3.831  10.798  0.2720  0.0027 -0.6981
  107OSM    H1S10952   7.112   3.751  10.830  1.7032  0.6074 -2.2115
  107OSM    H1T10953   7.107   3.916  10.767  1.7138 -0.0100  2.1438
  107OSM     NF10954   6.995   3.692  10.603 -0.2504 -0.4455  0.5039
  107OSM    HNF10955   7.040   3.728  10.522 -0.8693 -0.0234  0.3435
  107OSM    C2S10956   6.937   3.786  10.702  0.1976 -0.2162  0.1220
  107OSM    H2S10957   6.862   3.726  10.758 -1.1464  2.8436  1.7292
  107OSM    C3S10958   6.863   3.913  10.639 -0.2173 -0.5946 -0.4932
  107OSM    H3S10959   6.945   3.976  10.598  1.0620 -1.8165  0.1484
  107OSM     O310960   6.805   4.006  10.738  0.1698 -0.2804 -0.3631
  107OSM    HO310961   6.853   3.978  10.817 -1.5445 -2.1740  0.0476
  107OSM    C4S10962   6.748   3.895  10.546  0.5227  0.9270 -0.4575
  107OSM    H4S10963   6.668   3.831  10.585  2.1758 -0.4132  0.8487
  107OSM    C5S10964   6.738   3.934  10.415  0.0315 -0.3115  0.6171
  107OSM    H5S10965   6.828   3.981  10.371  0.5732 -2.8701 -1.1346
  107OSM    C6S10966   6.625   3.913  10.316  0.3750  0.2861 -0.4440
  107OSM    H6S10967   6.573   4.010  10.299  2.9269  1.7698 -0.0973
  107OSM    H6T10968   6.550   3.853  10.373 -0.1431 -0.8111 -2.2442
  107OSM    C7S10969   6.653   3.847  10.185  0.1557 -0.3251 -0.1442
  107OSM    H7S10970   6.557   3.818  10.136 -0.5129  0.0820  0.9135
  107OSM    H7T10971   6.700   3.748  10.201 -0.3605 -0.5812 -0.2063
  107OSM    C8S10972   6.740   3.923  10.084 -0.3371  0.2195 -0.3588
  107OSM    H8S10973   6.845   3.889  10.096 -0.8303 -1.9443 -1.7605
  107OSM    H8T10974   6.718   4.032  10.080 -1.1074  0.0380 -1.2307
  107OSM    C9S10975   6.712   3.896   9.938  1.2107  0.5699  0.3957
  107OSM    H9S10976   6.607   3.918   9.909  1.0124  1.0307  1.4350
  107OSM    H9T10977   6.730   3.786   9.930  0.4093  0.2481  2.5304
  107OSM   C10S10978   6.787   3.985   9.841 -0.7810 -0.3914  0.7419
  107OSM   H10S10979   6.897   3.971   9.848 -0.6124  0.0894 -0.7870
  107OSM   H10T10980   6.764   4.091   9.865 -0.9664  0.0838 -1.4916
  107OSM   C11S10981   6.733   3.978   9.693 -0.3847 -0.5876  0.4447
  107OSM   H11S10982   6.623   3.995   9.688 -0.5771 -1.5090  1.3088
  107OSM   H11T10983   6.762   3.881   9.648  0.7326 -1.0034  2.0122
  107OSM   C12S10984   6.796   4.073   9.594 -0.7400  0.4374  0.2046
  107OSM   H12S10985   6.896   4.028   9.584 -0.0966  1.6641  0.9643
  107OSM   H12T10986   6.813   4.178   9.627  0.7421 -0.2059  1.5008
  107OSM   C13S10987   6.739   4.067   9.447 -0.0250  0.0355 -0.2135
  107OSM   H13S10988   6.781   3.977   9.397  1.8670  0.2378  0.9808
  107OSM   H13T10989   6.769   4.160   9.395 -0.1637  0.4866  0.4983
  107OSM   C14S10990   6.584   4.053   9.420  0.2726 -0.6613 -0.0271
  107OSM   H14S10991   6.515   4.128   9.464  0.4578 -0.5654  0.1075
  107OSM   H14T10992   6.551   3.959   9.469  0.6589 -0.6610  0.2428
  107OSM   C15S10993   6.556   4.062   9.269  0.0892 -0.7731  0.4631
  107OSM   H15S10994   6.633   4.023   9.200 -0.3360  0.9656 -1.0357
  107OSM   H15T10995   6.549   4.170   9.246  1.1380 -0.5565  1.1759
  107OSM   C16S10996   6.424   3.986   9.228  0.5444 -0.0866 -0.5474
  107OSM   H16S10997   6.350   4.061   9.262 -1.4705 -1.4612 -1.8390
  107OSM   H16T10998   6.410   3.889   9.280 -2.5073  0.0716 -1.0253
  107OSM   C17S10999   6.426   3.952   9.080 -0.6902 -0.3702 -0.3284
  107OSM   H17S11000   6.501   3.871   9.067 -0.1572  0.4721 -2.6816
  107OSM   H17T11001   6.475   4.030   9.019 -0.7891  0.0512  0.1219
  107OSM   C18S11002   6.294   3.908   9.011 -0.0466  0.6119 -0.0430
  107OSM   H18S11003   6.221   3.860   9.080 -1.3530  1.2361 -0.9895
  107OSM   H18T11004   6.315   3.827   8.938  4.3692  0.7263  0.9318
  107OSM   H18U11005   6.244   3.995   8.964 -2.1536 -0.5585 -0.0107
  107OSM    C1F11006   7.024   3.566  10.629  0.4391 -0.1987  0.0062
  107OSM     OF11007   6.993   3.511  10.736  0.3931  0.6350 -0.7747
  107OSM    C2F11008   7.105   3.491  10.529 -0.6431  0.1125  0.1752
  107OSM    H2F11009   7.177   3.424  10.579  1.4370  1.5581 -0.7976
  107OSM    H2G11010   7.161   3.570  10.474 -3.4760  2.1655  0.0955
  107OSM    C3F11011   7.018   3.408  10.428 -0.1607 -0.2255  0.2991
  107OSM    H3F11012   6.930   3.466  10.393  0.8808  0.6639 -0.8836
  107OSM    H3G11013   6.990   3.316  10.484  1.4028  0.0708  1.6218
  107OSM    C4F11014   7.107   3.388  10.310  0.5431 -0.5649  0.3015
  107OSM    H4F11015   7.205   3.341  10.337 -0.2512 -0.5938  3.3371
  107OSM    H4G11016   7.135   3.487  10.269 -0.2013 -0.7080 -0.5493
  107OSM    C5F11017   7.037   3.330  10.183  0.2720 -0.5086 -0.4474
  107OSM    H5F11018   6.947   3.391  10.163  0.5114  0.2323  0.6824
  107OSM    H5G11019   7.001   3.228  10.210 -2.0802  0.3824 -0.0772
  107OSM    C6F11020   7.122   3.335  10.061 -0.4101  0.5900 -0.6587
  107OSM    H6F11021   7.192   3.422  10.068 -1.9489  1.6076  3.9628
  107OSM    H6G11022   7.059   3.354   9.972  1.0307  1.0004 -1.6080
  107OSM    C7F11023   7.202   3.207  10.039 -0.5273  0.1836  0.3386
  107OSM    H7F11024   7.120   3.132  10.033  1.4753 -1.8920 -1.7477
  107OSM    H7G11025   7.266   3.181  10.126 -0.5370 -1.2648 -0.0908
  107OSM    C8F11026   7.287   3.206   9.906 -0.0792  0.3037 -0.4562
  107OSM    H8F11027   7.359   3.290   9.914  0.2349 -0.0233  0.1663
  107OSM    H8G11028   7.215   3.240   9.829  0.2527  3.0934  0.4265
  107OSM    C9F11029   7.364   3.079   9.887  0.4090  0.6933  0.1232
  107OSM    H9F11030   7.350   3.010   9.971  0.7940  1.2672  0.6638
  107OSM   C10F11031   7.451   3.040   9.795 -1.0757 -0.1897  0.4498
  107OSM   H10F11032   7.499   2.942   9.788  0.4927  0.6439 -1.0181
  107OSM   C11F11033   7.494   3.140   9.688  0.7785 -0.2234 -0.9539
  107OSM   H11F11034   7.602   3.164   9.700  0.6681  0.2164 -0.8611
  107OSM   H11G11035   7.430   3.228   9.670  0.3647 -0.4656 -0.6901
  107OSM   C12F11036   7.478   3.067   9.556  0.2982  0.1757  0.2604
  107OSM   H12F11037   7.371   3.043   9.539  0.1273 -0.2580  1.8590
  107OSM   H12G11038   7.539   2.974   9.561  0.2020 -0.0056 -1.6719
  107OSM   C13F11039   7.527   3.143   9.431  0.6337  0.9070  0.4152
  107OSM   H13F11040   7.634   3.170   9.442  1.1177 -0.5046 -0.7179
  107OSM   H13G11041   7.469   3.238   9.428 -0.0756  0.5012  1.0709
  107OSM   C14F11042   7.488   3.060   9.298 -0.1770 -0.5940  0.1527
  107OSM   H14F11043   7.388   3.012   9.301  0.3862 -2.0940 -3.0731
  107OSM   H14G11044   7.560   2.979   9.271 -0.2011 -0.1835 -1.1728
  107OSM   C15F11045   7.493   3.149   9.170 -0.0943  0.1160 -0.7232
  107OSM   H15F11046   7.561   3.237   9.179  2.8623 -2.0717 -0.8966
  107OSM   H15G11047   7.392   3.195   9.157  0.4525  1.1966 -1.2228
  107OSM   C16F11048   7.527   3.058   9.053 -0.4293 -0.4440  0.5152
  107OSM   H16F11049   7.470   2.965   9.074  1.2657 -1.4050  0.9979
  107OSM   H16G11050   7.637   3.049   9.057 -0.4982 -0.7516  1.7834
  107OSM   C17F11051   7.468   3.103   8.917 -0.7619  0.2372  0.6066
  107OSM   H17F11052   7.524   3.188   8.872 -1.2266 -1.5355 -3.5187
  107OSM   H17G11053   7.365   3.141   8.929 -1.2895 -0.5199 -1.2934
  107OSM   C18F11054   7.470   2.994   8.816 -0.4296  0.0522  0.0814
  107OSM   H18F11055   7.404   3.022   8.731 -0.6426 -0.6236  0.0167
  107OSM   H18G11056   7.436   2.896   8.855 -1.5199  0.2956 -0.2529
  107OSM   H18H11057   7.575   2.972   8.786 -0.7280 -2.7011  0.8888
  108OSM      N11058   3.835   2.119  10.836 -0.4056  0.1918 -0.6007
  108OSM    C1511059   3.707   2.171  10.782 -0.0872  0.3753  0.3003
  108OSM   H15A11060   3.683   2.252  10.849  0.5288 -0.9741  2.2027
  108OSM   H15B11061   3.626   2.099  10.783  1.2224 -1.1274 -0.0290
  108OSM   H15C11062   3.722   2.215  10.684  0.3556  0.5817  0.4611
  108OSM    C1411063   3.927   2.236  10.861 -0.5253  0.3530 -0.3215
  108OSM   H14A11064   3.949   2.277  10.764 -1.7602 -0.1182 -0.8171
  108OSM   H14B11065   4.020   2.203  10.906 -1.3333 -2.9925 -0.9176
  108OSM   H14C11066   3.883   2.317  10.916 -1.3610 -1.2655  1.4688
  108OSM    C1311067   3.821   2.048  10.967 -0.4066  0.4553 -0.3248
  108OSM   H13A11068   3.916   2.027  11.014 -0.7033  0.9396  0.5144
  108OSM   H13B11069   3.769   1.957  10.940  0.7506  0.1107 -1.4068
  108OSM   H13C11070   3.767   2.101  11.044 -1.4406 -2.3678  0.9728
  108OSM    C1211071   3.903   2.030  10.735  0.5974 -0.2888 -0.4494
  108OSM   H12A11072   3.988   1.984  10.782 -0.4249  0.0787  1.7874
  108OSM   H12B11073   3.936   2.092  10.653  0.5538  1.1944  0.6423
  108OSM    C1111074   3.817   1.923  10.672  0.2309  1.3288 -0.2313
  108OSM   H11A11075   3.883   1.871  10.600  2.1216 -0.9893  3.0427
  108OSM   H11B11076   3.733   1.969  10.615  1.2407  1.7798 -1.3910
  108OSM      P11077   3.839   1.691  10.813  0.0176  0.0040 -0.4809
  108OSM    O1311078   3.983   1.712  10.824  0.1981  0.2650 -0.0976
  108OSM    O1411079   3.770   1.631  10.930  0.3040  0.2748  0.3001
  108OSM    O1111080   3.801   1.594  10.691  0.3362 -0.4967  0.8425
  108OSM    O1211081   3.775   1.830  10.774 -0.7631 -0.2036  0.4920
  108OSM    C1S11082   3.683   1.604  10.612  0.1970 -0.7111  0.1567
  108OSM    H1S11083   3.646   1.709  10.611  1.4451 -0.2732 -1.2797
  108OSM    H1T11084   3.598   1.536  10.636 -0.7217 -0.3640 -1.9553
  108OSM     NF11085   3.580   1.616  10.394 -0.3566 -0.0840 -0.3506
  108OSM    HNF11086   3.506   1.553  10.372 -1.5183  1.1578 -0.1032
  108OSM    C2S11087   3.702   1.571  10.467  0.7216  0.4093  0.3154
  108OSM    H2S11088   3.787   1.631  10.428  0.4060  0.7347  0.1221
  108OSM    C3S11089   3.739   1.418  10.438  0.5480  0.6853  0.7181
  108OSM    H3S11090   3.652   1.354  10.465 -0.5235  0.6913 -2.5252
  108OSM     O311091   3.845   1.366  10.524  0.4630  0.4115 -0.0773
  108OSM    HO311092   3.874   1.436  10.583  2.9154 -1.8076  1.4581
  108OSM    C4S11093   3.766   1.394  10.293  0.4028 -0.7237 -0.3493
  108OSM    H4S11094   3.679   1.345  10.247 -0.1088 -1.2289  1.1383
  108OSM    C5S11095   3.874   1.409  10.214  0.1738 -0.5284 -0.4602
  108OSM    H5S11096   3.969   1.450  10.252 -0.5389  1.2442 -0.5624
  108OSM    C6S11097   3.876   1.377  10.064 -1.0707  0.1245 -0.0938
  108OSM    H6S11098   3.930   1.281  10.055 -1.1298  0.2140 -1.5549
  108OSM    H6T11099   3.910   1.457   9.995 -1.1775  0.9027  0.7445
  108OSM    C7S11100   3.737   1.342  10.003 -0.3867 -0.4473  0.0739
  108OSM    H7S11101   3.679   1.430  10.039  0.5716  0.1918  0.0727
  108OSM    H7T11102   3.698   1.252  10.055  1.0876 -0.0388  1.9333
  108OSM    C8S11103   3.743   1.340   9.850  0.1348  0.0627  0.0468
  108OSM    H8S11104   3.791   1.247   9.813 -1.5899 -1.0806  0.6207
  108OSM    H8T11105   3.806   1.423   9.813  0.2223 -0.3283 -0.6814
  108OSM    C9S11106   3.601   1.347   9.788 -0.8662  0.9959  0.2879
  108OSM    H9S11107   3.555   1.443   9.818 -3.7493  0.5136 -2.4563
  108OSM    H9T11108   3.531   1.271   9.827 -0.3206 -0.0109 -0.6657
  108OSM   C10S11109   3.590   1.343   9.633 -0.5080  0.1814 -0.0976
  108OSM   H10S11110   3.659   1.423   9.598 -0.0711 -0.1780 -0.0595
  108OSM   H10T11111   3.491   1.381   9.600  0.7900  2.5994 -1.3796
  108OSM   C11S11112   3.627   1.209   9.573 -0.1972 -0.3481  0.6361
  108OSM   H11S11113   3.545   1.136   9.592 -2.0260  1.5261  0.1835
  108OSM   H11T11114   3.723   1.177   9.618  0.4001  1.1013  0.3988
  108OSM   C12S11115   3.646   1.213   9.414  0.0269 -0.6787 -0.2575
  108OSM   H12S11116   3.684   1.118   9.370  0.5315  0.1045 -1.5255
  108OSM   H12T11117   3.721   1.292   9.392 -2.9403  1.6844 -2.3016
  108OSM   C13S11118   3.519   1.242   9.330 -0.1137 -0.4166  0.0076
  108OSM   H13S11119   3.487   1.339   9.374  0.9518 -0.0354 -0.0474
  108OSM   H13T11120   3.438   1.166   9.341  2.7116 -3.0794  3.8556
  108OSM   C14S11121   3.550   1.276   9.182  0.2366 -0.1824  0.0492
  108OSM   H14S11122   3.648   1.327   9.171 -0.5484  1.6937  1.5788
  108OSM   H14T11123   3.479   1.357   9.156  1.4301  0.9052  0.1281
  108OSM   C15S11124   3.535   1.160   9.081  0.7603 -0.2027 -0.3042
  108OSM   H15S11125   3.432   1.121   9.070  0.5565  0.0073  0.7958
  108OSM   H15T11126   3.593   1.073   9.120  2.6243  1.4494  0.7002
  108OSM   C16S11127   3.581   1.180   8.936  0.2621 -0.1738 -0.1113
  108OSM   H16S11128   3.690   1.198   8.941  0.0677  1.0381 -0.1425
  108OSM   H16T11129   3.547   1.271   8.883  0.6738 -1.0792 -1.9652
  108OSM   C17S11130   3.555   1.049   8.853 -0.0791  0.2851 -0.0449
  108OSM   H17S11131   3.566   1.071   8.745  0.1974  0.0214 -0.0697
  108OSM   H17T11132   3.451   1.016   8.874  1.2938 -1.8633  3.9977
  108OSM   C18S11133   3.643   0.933   8.879  0.7892 -0.3451 -0.2933
  108OSM   H18S11134   3.746   0.972   8.866  0.2701  1.0429 -0.2919
  108OSM   H18T11135   3.626   0.851   8.805 -1.0255 -2.4679  2.3704
  108OSM   H18U11136   3.623   0.892   8.980  0.9397  0.0746 -0.0920
  108OSM    C1F11137   3.544   1.743  10.374 -0.9471 -0.1956  0.3430
  108OSM     OF11138   3.625   1.835  10.357 -0.6637 -0.5235  0.6171
  108OSM    C2F11139   3.398   1.781  10.384 -0.0507  1.2317  0.0296
  108OSM    H2F11140   3.387   1.890  10.404  1.5534  1.0105  2.3835
  108OSM    H2G11141   3.357   1.728  10.474 -0.6257  4.1491  1.5411
  108OSM    C3F11142   3.317   1.724  10.267 -0.0879 -0.7572  0.7411
  108OSM    H3F11143   3.210   1.743  10.291  0.4730  0.2100  2.6343
  108OSM    H3G11144   3.329   1.615  10.254  0.5130 -0.4779 -1.3050
  108OSM    C4F11145   3.354   1.788  10.130 -0.1380  0.6246 -0.3624
  108OSM    H4F11146   3.463   1.798  10.113 -0.2235 -0.4603 -1.6758
  108OSM    H4G11147   3.320   1.893  10.132  1.5404  1.2076 -1.5396
  108OSM    C5F11148   3.284   1.718  10.018 -0.5603  0.2106 -0.4779
  108OSM    H5F11149   3.179   1.751  10.003  0.0453  2.8833  0.7589
  108OSM    H5G11150   3.287   1.608  10.026  3.2186  0.1445 -1.7321
  108OSM    C6F11151   3.353   1.749   9.884 -0.1078 -0.2142 -0.2653
  108OSM    H6F11152   3.448   1.693   9.871 -0.0489 -0.7137  2.1850
  108OSM    H6G11153   3.382   1.856   9.884  0.6490 -0.3634 -3.4003
  108OSM    C7F11154   3.280   1.719   9.759  0.3641  0.3402  0.3157
  108OSM    H7F11155   3.174   1.751   9.770 -0.4604 -1.6163 -1.6145
  108OSM    H7G11156   3.282   1.608   9.748 -2.0850  0.2215  0.7855
  108OSM    C8F11157   3.349   1.788   9.643  0.2280 -0.2292  0.0397
  108OSM    H8F11158   3.383   1.888   9.679  4.5596 -1.7989  0.5993
  108OSM    H8G11159   3.271   1.803   9.565  0.4102  1.4671  0.1647
  108OSM    C9F11160   3.474   1.716   9.605 -0.2488 -0.1704  0.8476
  108OSM    H9F11161   3.561   1.721   9.671 -0.9835  0.0426  1.8075
  108OSM   C10F11162   3.487   1.652   9.489 -0.5321  0.6522 -0.7693
  108OSM   H10F11163   3.591   1.637   9.455  0.1255 -4.0887  2.7577
  108OSM   C11F11164   3.391   1.643   9.374 -0.3435 -0.5395  0.6161
  108OSM   H11F11165   3.299   1.704   9.388  0.8759  1.3077  0.7091
  108OSM   H11G11166   3.359   1.538   9.358 -0.0062 -0.2674 -2.1331
  108OSM   C12F11167   3.445   1.682   9.236 -0.2253 -0.2466  0.8679
  108OSM   H12F11168   3.533   1.622   9.206 -0.7072  0.1502 -1.4522
  108OSM   H12G11169   3.475   1.789   9.232  0.6031 -0.5418 -1.4792
  108OSM   C13F11170   3.340   1.654   9.127  0.4024 -0.4724  0.0296
  108OSM   H13F11171   3.244   1.711   9.121  0.2030 -0.9459 -1.4044
  108OSM   H13G11172   3.297   1.554   9.149  0.1927 -0.5968 -0.9547
  108OSM   C14F11173   3.394   1.672   8.982 -0.4465 -0.4819  0.0866
  108OSM   H14F11174   3.318   1.680   8.901 -1.3689  0.7258  1.0533
  108OSM   H14G11175   3.444   1.576   8.956  0.2849 -0.0321 -0.1627
  108OSM   C15F11176   3.493   1.785   8.972 -0.8614 -0.1621 -0.0277
  108OSM   H15F11177   3.573   1.762   9.045 -0.3983 -1.2036 -0.8341
  108OSM   H15G11178   3.446   1.877   9.012 -3.4813 -0.9713 -1.1544
  108OSM   C16F11179   3.555   1.802   8.834 -0.1602 -0.8898 -0.7327
  108OSM   H16F11180   3.613   1.713   8.801 -1.6936 -2.9300  1.8783
  108OSM   H16G11181   3.627   1.887   8.829 -2.3491  1.0398 -0.1981
  108OSM   C17F11182   3.451   1.845   8.734 -0.5172 -0.1824 -0.0899
  108OSM   H17F11183   3.412   1.940   8.775 -1.8735  1.2396 -4.3494
  108OSM   H17G11184   3.375   1.765   8.728  0.2153 -1.2276  3.4558
  108OSM   C18F11185   3.508   1.858   8.593 -0.3485  0.3708 -0.1325
  108OSM   H18F11186   3.435   1.857   8.509  1.0750  0.7854 -1.4194
  108OSM   H18G11187   3.567   1.768   8.567  3.3568  2.3937  0.7571
  108OSM   H18H11188   3.570   1.949   8.574 -0.1927  0.6531  1.6756
  109OSM      N11189   4.584   2.949  10.945 -0.4481  0.1885  0.0421
  109OSM    C1511190   4.638   2.869  11.052  0.2753 -0.1540 -0.9324
  109OSM   H15A11191   4.574   2.791  11.089  0.4263  0.0254 -0.2868
  109OSM   H15B11192   4.668   2.937  11.130 -2.4808  1.5674 -1.3172
  109OSM   H15C11193   4.733   2.826  11.025  1.4964  1.2185  1.0017
  109OSM    C1411194   4.547   2.856  10.836  0.3227 -0.2309  0.1258
  109OSM   H14A11195   4.514   2.915  10.752 -0.5899  0.2776  0.8361
  109OSM   H14B11196   4.472   2.787  10.871  2.0528 -1.4995  1.4217
  109OSM   H14C11197   4.630   2.793  10.808  0.9991  0.0302  1.4844
  109OSM    C1311198   4.454   3.017  10.996  0.3160 -0.1294 -0.7462
  109OSM   H13A11199   4.385   2.946  11.039 -1.3745  1.6497 -0.4500
  109OSM   H13B11200   4.408   3.056  10.907  1.9514  0.3450 -1.3965
  109OSM   H13C11201   4.458   3.103  11.062  0.9539 -0.9979  0.3776
  109OSM    C1211202   4.685   3.058  10.895  0.2162 -0.3940 -0.1245
  109OSM   H12A11203   4.712   3.112  10.985  1.5341 -0.0434 -0.7124
  109OSM   H12B11204   4.625   3.126  10.837  0.1923  1.6383  2.2288
  109OSM    C1111205   4.814   3.019  10.823  0.1537  0.1398  0.0759
  109OSM   H11A11206   4.869   2.950  10.890 -0.4474  0.3609  0.7937
  109OSM   H11B11207   4.883   3.106  10.824  0.7346 -0.3257  1.9828
  109OSM      P11208   4.866   2.817  10.656  0.6602 -0.1456  0.0395
  109OSM    O1311209   5.008   2.842  10.632 -0.0708 -0.3061  0.2458
  109OSM    O1411210   4.836   2.717  10.760  0.0926 -0.3185  0.5203
  109OSM    O1111211   4.786   2.769  10.523 -0.1364 -0.7037  0.6549
  109OSM    O1211212   4.800   2.962  10.688 -0.1615  0.5440  0.5756
  109OSM    C1S11213   4.820   2.832  10.397 -0.2042  0.5074  0.1413
  109OSM    H1S11214   4.917   2.786  10.367  1.5543  2.5552  2.5037
  109OSM    H1T11215   4.825   2.941  10.418 -1.1034  0.6112 -0.2143
  109OSM     NF11216   4.743   2.862  10.160  0.5869 -0.4298 -0.4316
  109OSM    HNF11217   4.720   2.958  10.143  1.9353 -0.2646 -1.4064
  109OSM    C2S11218   4.705   2.811  10.289 -0.7734  0.1114 -0.1998
  109OSM    H2S11219   4.703   2.700  10.285  0.5664 -0.0031  1.7086
  109OSM    C3S11220   4.575   2.862  10.349  0.3233 -0.3684 -0.0762
  109OSM    H3S11221   4.593   2.971  10.361 -1.5465 -0.1693  1.1787
  109OSM     O311222   4.535   2.798  10.477  0.4957 -0.0985  0.3397
  109OSM    HO311223   4.619   2.764  10.507 -0.1327 -1.6032  0.4016
  109OSM    C4S11224   4.474   2.854  10.242 -0.1936  0.5273 -0.0836
  109OSM    H4S11225   4.440   2.954  10.211  0.2680  1.1399  1.3046
  109OSM    C5S11226   4.410   2.742  10.192  0.0330  0.2554  0.1183
  109OSM    H5S11227   4.445   2.644  10.226 -3.3377 -0.9471  0.3433
  109OSM    C6S11228   4.302   2.738  10.084 -0.2394  0.4152 -0.6237
  109OSM    H6S11229   4.203   2.701  10.116 -0.0267 -1.1707 -1.7414
  109OSM    H6T11230   4.337   2.660  10.013 -1.1311  1.1483 -1.8895
  109OSM    C7S11231   4.304   2.874  10.013  0.4437 -0.0100 -0.0156
  109OSM    H7S11232   4.403   2.914   9.982  0.5070 -0.8787 -0.9830
  109OSM    H7T11233   4.257   2.941  10.087  1.0555 -0.4693  0.7998
  109OSM    C8S11234   4.207   2.881   9.894 -0.1497 -0.1921 -0.1395
  109OSM    H8S11235   4.161   2.983   9.889  2.8149  1.2436  0.8707
  109OSM    H8T11236   4.119   2.814   9.903  0.0310 -0.8033 -2.4482
  109OSM    C9S11237   4.282   2.849   9.764 -0.8659 -0.0962  0.0370
  109OSM    H9S11238   4.288   2.739   9.746  1.5759  0.2676 -1.4795
  109OSM    H9T11239   4.384   2.891   9.764 -0.5093 -0.8977  1.9235
  109OSM   C10S11240   4.204   2.911   9.644 -0.0527  0.6953  0.2045
  109OSM   H10S11241   4.157   3.007   9.674  0.6368  0.8569  0.7799
  109OSM   H10T11242   4.111   2.850   9.638  2.3716 -3.2320  1.2802
  109OSM   C11S11243   4.276   2.912   9.506  0.5850  0.2708  0.0840
  109OSM   H11S11244   4.355   2.834   9.507 -0.8244 -1.1894 -0.3729
  109OSM   H11T11245   4.326   3.008   9.485 -2.8395  2.1136  0.0061
  109OSM   C12S11246   4.179   2.878   9.395  0.2920 -0.0408 -0.2114
  109OSM   H12S11247   4.113   2.793   9.423  1.2872 -0.3542  1.2284
  109OSM   H12T11248   4.233   2.849   9.302 -1.9711 -0.5407 -1.4000
  109OSM   C13S11249   4.090   3.000   9.371 -0.2615 -0.4834 -0.1193
  109OSM   H13S11250   4.153   3.091   9.367  1.0763 -1.4192 -0.4773
  109OSM   H13T11251   4.017   3.013   9.454  0.3541  0.1922  0.3256
  109OSM   C14S11252   4.004   2.996   9.240 -0.1010  0.2766 -0.0651
  109OSM   H14S11253   3.926   3.076   9.239 -0.3720  0.0080 -0.2629
  109OSM   H14T11254   3.955   2.896   9.239 -0.3081  0.3682  0.4744
  109OSM   C15S11255   4.089   3.012   9.120 -0.4410  0.7281  0.4578
  109OSM   H15S11256   4.176   2.943   9.121 -2.0496 -1.3662 -0.2564
  109OSM   H15T11257   4.119   3.119   9.122  1.7730  0.1226  1.1983
  109OSM   C16S11258   4.017   2.983   8.992  0.1893 -0.5760  0.3348
  109OSM   H16S11259   3.916   3.028   9.001  0.6074  0.1588  1.3843
  109OSM   H16T11260   3.976   2.883   8.968  0.4692 -0.8307  0.9103
  109OSM   C17S11261   4.073   3.059   8.865 -0.0573  0.0777  0.1695
  109OSM   H17S11262   4.074   3.167   8.890 -2.8752  0.0813  0.4072
  109OSM   H17T11263   4.013   3.035   8.774 -0.6534 -1.1273  0.8666
  109OSM   C18S11264   4.218   3.021   8.841  0.0430  0.3922 -0.8983
  109OSM   H18S11265   4.264   3.077   8.758 -0.2917  0.4235 -1.0633
  109OSM   H18T11266   4.222   2.911   8.822 -0.1415  0.1918  0.1417
  109OSM   H18U11267   4.274   3.042   8.935  0.4496 -1.0485 -0.7981
  109OSM    C1F11268   4.824   2.804  10.073 -0.1584 -0.0506  1.0364
  109OSM     OF11269   4.878   2.698  10.104  0.2901 -0.6501  0.1125
  109OSM    C2F11270   4.854   2.874   9.939 -0.0341  0.8946  0.3516
  109OSM    H2F11271   4.934   2.951   9.947 -0.6045  1.4181  1.0177
  109OSM    H2G11272   4.759   2.925   9.913 -1.5034 -1.2658  1.4277
  109OSM    C3F11273   4.884   2.762   9.837 -0.5945  0.9502  0.0819
  109OSM    H3F11274   4.970   2.696   9.858 -1.4923 -0.6883 -1.2459
  109OSM    H3G11275   4.913   2.813   9.742  2.1323 -2.5613 -1.0667
  109OSM    C4F11276   4.766   2.675   9.806  0.0610 -0.4344 -0.5112
  109OSM    H4F11277   4.735   2.627   9.902 -2.4680  2.2818  0.1105
  109OSM    H4G11278   4.804   2.593   9.742  0.5188 -1.1523  0.6575
  109OSM    C5F11279   4.643   2.752   9.760  0.9288  0.2819  0.3545
  109OSM    H5F11280   4.595   2.822   9.831 -1.2610 -0.9620  0.1639
  109OSM    H5G11281   4.564   2.676   9.740  2.7582 -1.9170  1.2322
  109OSM    C6F11282   4.648   2.811   9.614  0.1163  0.2766  0.7367
  109OSM    H6F11283   4.724   2.891   9.601 -1.0932  1.3509  0.1411
  109OSM    H6G11284   4.554   2.867   9.594  0.7477  1.4556  0.9585
  109OSM    C7F11285   4.672   2.716   9.508  0.0177 -0.0230 -0.6387
  109OSM    H7F11286   4.602   2.631   9.528  1.0394 -0.1702  2.5931
  109OSM    H7G11287   4.775   2.675   9.509  0.0518  0.0242  2.1877
  109OSM    C8F11288   4.645   2.764   9.364  0.4079 -1.1125 -0.1712
  109OSM    H8F11289   4.539   2.797   9.351  0.4526 -1.2336 -0.8609
  109OSM    H8G11290   4.640   2.675   9.298 -2.2064  0.3188 -2.0498
  109OSM    C9F11291   4.714   2.879   9.303  0.0938  0.3813  0.5795
  109OSM    H9F11292   4.806   2.909   9.355  0.6803 -0.2118 -0.1148
  109OSM   C10F11293   4.673   2.958   9.203  0.3814  0.7692  0.3178
  109OSM   H10F11294   4.726   3.051   9.178  1.4545 -0.0442 -0.4691
  109OSM   C11F11295   4.550   2.931   9.119 -0.3955 -0.0671  0.5910
  109OSM   H11F11296   4.497   3.025   9.093  1.1637  1.1793  1.8455
  109OSM   H11G11297   4.479   2.858   9.164 -0.3537 -1.3421 -1.3646
  109OSM   C12F11298   4.582   2.878   8.975 -0.3492 -0.1605 -0.0590
  109OSM   H12F11299   4.488   2.859   8.920  0.2017  0.3152 -1.2049
  109OSM   H12G11300   4.632   2.780   8.992  1.4412  0.5571 -1.0460
  109OSM   C13F11301   4.669   2.975   8.897  0.4913  0.3209 -0.2190
  109OSM   H13F11302   4.760   3.012   8.948  0.7427  0.9808 -1.1229
  109OSM   H13G11303   4.607   3.061   8.864  1.7230  0.7533 -1.5038
  109OSM   C14F11304   4.728   2.925   8.771  0.5148  0.7895  0.1290
  109OSM   H14F11305   4.788   2.834   8.795  0.0407  1.2753  3.2454
  109OSM   H14G11306   4.794   3.003   8.726 -0.4163  1.1413 -0.6513
  109OSM   C15F11307   4.628   2.901   8.659  0.1063 -0.4884  0.1846
  109OSM   H15F11308   4.587   3.000   8.628  3.6619  0.7802 -0.6080
  109OSM   H15G11309   4.543   2.844   8.702  0.6700 -0.4964  1.3105
  109OSM   C16F11310   4.695   2.837   8.541  0.3352  0.4077 -0.3009
  109OSM   H16F11311   4.731   2.733   8.561 -0.6524  0.5764  2.5771
  109OSM   H16G11312   4.790   2.892   8.531  1.0753 -0.9087 -0.7243
  109OSM   C17F11313   4.609   2.842   8.413  0.1997 -0.5466  0.8448
  109OSM   H17F11314   4.652   2.778   8.332 -1.2042  1.0778 -1.2480
  109OSM   H17G11315   4.622   2.942   8.366 -1.2678  0.2233  2.0558
  109OSM   C18F11316   4.461   2.811   8.435 -0.0492 -0.8049  0.4434
  109OSM   H18F11317   4.459   2.715   8.490  1.7799  0.0897  2.1205
  109OSM   H18G11318   4.398   2.817   8.343  1.5320  1.3295 -0.5486
  109OSM   H18H11319   4.410   2.885   8.501  2.6242 -0.9285  2.7358
  110OSM      N11320   5.396   1.568  11.006 -0.1397  0.5887  0.3739
  110OSM    C1511321   5.418   1.571  10.862 -0.4344 -0.0544  0.5803
  110OSM   H15A11322   5.443   1.474  10.820 -1.5962  0.0562 -0.3809
  110OSM   H15B11323   5.504   1.630  10.837  1.3605 -2.4676  0.8533
  110OSM   H15C11324   5.334   1.608  10.805 -0.2790  0.0652  0.4300
  110OSM    C1411325   5.352   1.708  11.041  0.7620  0.3163  0.1898
  110OSM   H14A11326   5.419   1.784  11.003 -1.1644  2.1682  0.3777
  110OSM   H14B11327   5.338   1.730  11.146  0.0869  2.5472 -0.3340
  110OSM   H14C11328   5.255   1.721  10.995  0.0204 -1.5364  1.1740
  110OSM    C1311329   5.281   1.480  11.049  0.8135 -0.2975  0.3704
  110OSM   H13A11330   5.189   1.516  11.006  0.3753 -0.0027  1.5157
  110OSM   H13B11331   5.270   1.472  11.156 -0.6077 -0.3126  0.2307
  110OSM   H13C11332   5.312   1.384  11.012  0.3168 -0.4123  0.2595
  110OSM    C1211333   5.530   1.536  11.077  0.2367  0.4244  0.2035
  110OSM   H12A11334   5.565   1.445  11.031 -0.6803 -0.3082  0.9246
  110OSM   H12B11335   5.514   1.515  11.181  1.4759  1.0438  0.5306
  110OSM    C1111336   5.642   1.643  11.052  0.6135  0.4259  0.0321
  110OSM   H11A11337   5.733   1.606  11.103  0.6103  2.4114  1.5584
  110OSM   H11B11338   5.620   1.740  11.102 -2.1014 -0.0718 -0.1174
  110OSM      P11339   5.806   1.704  10.857 -0.2098  0.2220  0.2305
  110OSM    O1311340   5.866   1.810  10.936  0.8789 -0.8115  0.4409
  110OSM    O1411341   5.878   1.572  10.853  0.0260 -0.0433 -0.6854
  110OSM    O1111342   5.782   1.750  10.713 -0.2171 -0.1727 -0.3369
  110OSM    O1211343   5.665   1.672  10.914  0.2073  0.1687 -0.2852
  110OSM    C1S11344   5.696   1.850  10.688 -0.0242 -0.6547  0.1935
  110OSM    H1S11345   5.737   1.950  10.714  1.9940 -1.6670  1.0257
  110OSM    H1T11346   5.602   1.847  10.748  0.0849  0.3027  0.4230
  110OSM     NF11347   5.583   1.950  10.490  0.8732  0.5404  0.0033
  110OSM    HNF11348   5.489   1.927  10.469  1.1804 -0.7151 -0.0636
  110OSM    C2S11349   5.648   1.830  10.540  0.6891 -0.1264  0.4447
  110OSM    H2S11350   5.748   1.826  10.490  1.4889 -0.4148  2.0166
  110OSM    C3S11351   5.562   1.698  10.531  0.6505 -0.9504 -0.4573
  110OSM    H3S11352   5.470   1.712  10.592  0.8797  1.5045 -0.6199
  110OSM     O311353   5.632   1.582  10.573  0.0984 -0.4524 -0.3341
  110OSM    HO311354   5.688   1.629  10.636 -1.4891  0.2976  0.5782
  110OSM    C4S11355   5.518   1.670  10.396  0.0178  0.2152  0.5388
  110OSM    H4S11356   5.602   1.640  10.330  0.1046  2.2351 -0.3384
  110OSM    C5S11357   5.389   1.679  10.349 -0.0793  0.8613  0.6821
  110OSM    H5S11358   5.301   1.693  10.414 -0.8254  2.9066 -0.7097
  110OSM    C6S11359   5.350   1.656  10.205 -0.4649 -0.2144  0.6240
  110OSM    H6S11360   5.324   1.752  10.155  1.2376 -0.8073 -1.5088
  110OSM    H6T11361   5.269   1.579  10.203 -0.2413 -0.4500  0.6848
  110OSM    C7S11362   5.471   1.617  10.118 -0.2927  0.1712  0.7326
  110OSM    H7S11363   5.522   1.535  10.173  0.5878 -0.4652 -1.0057
  110OSM    H7T11364   5.548   1.696  10.112 -1.8549  1.6842  0.2143
  110OSM    C8S11365   5.430   1.586   9.975  0.1554 -0.1243  0.4293
  110OSM    H8S11366   5.352   1.663   9.956  0.6934 -0.0008 -1.4301
  110OSM    H8T11367   5.390   1.483   9.961  0.5748 -0.2328  0.0160
  110OSM    C9S11368   5.551   1.603   9.874  0.2700 -0.0202  0.6544
  110OSM    H9S11369   5.632   1.529   9.892  0.6013 -0.0904 -1.0240
  110OSM    H9T11370   5.593   1.705   9.877 -0.7026  0.4712 -1.1145
  110OSM   C10S11371   5.505   1.581   9.734 -0.3545 -0.5466 -0.3020
  110OSM   H10S11372   5.437   1.663   9.699 -1.0795 -1.2151 -0.4866
  110OSM   H10T11373   5.451   1.485   9.747 -2.1320  0.5566  0.6829
  110OSM   C11S11374   5.618   1.563   9.633 -0.2701  0.6689  0.2941
  110OSM   H11S11375   5.685   1.481   9.669 -0.1121 -0.6492 -2.8543
  110OSM   H11T11376   5.674   1.659   9.637  2.6274 -0.8946 -0.6290
  110OSM   C12S11377   5.567   1.531   9.485 -0.3517 -0.1988  0.2232
  110OSM   H12S11378   5.478   1.470   9.512 -0.1588 -1.9554 -2.8815
  110OSM   H12T11379   5.637   1.463   9.431  0.0172 -0.0743  0.5364
  110OSM   C13S11380   5.523   1.648   9.400  0.1348  0.6931  0.2083
  110OSM   H13S11381   5.444   1.699   9.459 -0.8127  3.1375 -3.0016
  110OSM   H13T11382   5.468   1.621   9.307  0.2220  1.8726 -0.1878
  110OSM   C14S11383   5.639   1.753   9.360  0.2904 -0.1681  0.6271
  110OSM   H14S11384   5.707   1.780   9.443  0.6937  1.3058 -0.1705
  110OSM   H14T11385   5.590   1.847   9.325  0.1716  0.0905  1.4741
  110OSM   C15S11386   5.729   1.697   9.243 -0.4731  0.6933 -0.3467
  110OSM   H15S11387   5.781   1.607   9.281 -0.2206 -0.0977 -2.4642
  110OSM   H15T11388   5.810   1.770   9.223  0.6800 -0.0721  1.4281
  110OSM   C16S11389   5.662   1.677   9.107 -0.2139  0.2397  0.1003
  110OSM   H16S11390   5.610   1.770   9.076 -1.5508 -0.6991 -0.4939
  110OSM   H16T11391   5.590   1.594   9.124  0.2970  0.0393  1.3023
  110OSM   C17S11392   5.754   1.632   8.991  0.0096  0.1551  0.3214
  110OSM   H17S11393   5.810   1.537   9.009  0.9116  0.5467 -0.3437
  110OSM   H17T11394   5.826   1.715   8.974 -0.3944  0.5043  0.3182
  110OSM   C18S11395   5.674   1.592   8.864 -0.7021 -0.2429 -0.1735
  110OSM   H18S11396   5.585   1.533   8.894 -0.5960  0.3891  1.4644
  110OSM   H18T11397   5.732   1.540   8.785  1.6030  2.8106 -0.5801
  110OSM   H18U11398   5.630   1.687   8.826 -1.6313 -1.2460 -1.6433
  110OSM    C1F11399   5.629   2.074  10.478 -0.2033  0.1602  0.6112
  110OSM     OF11400   5.732   2.115  10.527  0.6933  0.2333 -0.1987
  110OSM    C2F11401   5.537   2.165  10.403 -0.0738  0.3850 -0.0536
  110OSM    H2F11402   5.590   2.262  10.387 -1.5916  0.9377 -1.8837
  110OSM    H2G11403   5.452   2.183  10.473  2.1273  0.5891  2.6585
  110OSM    C3F11404   5.479   2.109  10.278  0.4226  0.6567 -0.0652
  110OSM    H3F11405   5.409   2.183  10.234 -1.0703 -0.8649 -0.2815
  110OSM    H3G11406   5.416   2.020  10.298  0.8338 -0.4322 -3.4035
  110OSM    C4F11407   5.586   2.067  10.166  1.1975 -0.1554  0.3492
  110OSM    H4F11408   5.629   1.970  10.201 -2.9334 -1.6765  1.4977
  110OSM    H4G11409   5.667   2.142  10.160  0.7575  0.3383  0.5449
  110OSM    C5F11410   5.530   2.033  10.020 -0.3355 -0.6901 -0.8818
  110OSM    H5F11411   5.451   1.955  10.011 -0.6686 -0.7338  1.9167
  110OSM    H5G11412   5.615   1.990   9.963  0.4252  0.8153 -0.9116
  110OSM    C6F11413   5.468   2.158   9.940 -0.0250 -0.1437  0.5770
  110OSM    H6F11414   5.540   2.242   9.938  1.4582 -1.4136 -1.4450
  110OSM    H6G11415   5.379   2.186  10.001 -0.7061  1.4245 -1.0708
  110OSM    C7F11416   5.420   2.111   9.798 -0.0809 -0.3127  0.3464
  110OSM    H7F11417   5.352   2.182   9.748 -0.4075 -0.3349  0.7526
  110OSM    H7G11418   5.368   2.013   9.811  1.4510 -0.8637  2.7000
  110OSM    C8F11419   5.532   2.096   9.690  0.4434  0.1957 -0.3033
  110OSM    H8F11420   5.493   2.026   9.612  0.4464 -0.8703  0.6345
  110OSM    H8G11421   5.617   2.036   9.728  1.4017  0.0330 -2.6475
  110OSM    C9F11422   5.570   2.229   9.631 -0.0922 -0.3776  0.2145
  110OSM    H9F11423   5.565   2.318   9.697 -0.3224 -0.6986  0.6290
  110OSM   C10F11424   5.587   2.253   9.505 -0.5813  0.3008  0.3441
  110OSM   H10F11425   5.600   2.359   9.475 -1.1112  0.4639  0.6979
  110OSM   C11F11426   5.577   2.144   9.398 -0.8237 -1.1363 -0.3610
  110OSM   H11F11427   5.480   2.091   9.413  0.0802 -2.6796  0.2011
  110OSM   H11G11428   5.660   2.073   9.418  0.3682  0.0197 -1.0889
  110OSM   C12F11429   5.582   2.201   9.260  0.7482 -0.2806  0.7599
  110OSM   H12F11430   5.669   2.271   9.254 -0.8464  1.8204  1.6938
  110OSM   H12G11431   5.493   2.262   9.232  0.2578 -2.0068 -1.6378
  110OSM   C13F11432   5.608   2.094   9.155  0.0269  0.2295  0.1408
  110OSM   H13F11433   5.523   2.023   9.154  0.5785 -0.4505  1.0683
  110OSM   H13G11434   5.703   2.046   9.185  0.4320  1.0257  0.1281
  110OSM   C14F11435   5.624   2.146   9.017 -0.2659 -0.4918  0.4242
  110OSM   H14F11436   5.709   2.218   9.012  0.7270 -1.4456  3.0293
  110OSM   H14G11437   5.537   2.209   8.987  0.4698  1.1598  1.6617
  110OSM   C15F11438   5.633   2.047   8.906  0.3016  0.2715  0.3989
  110OSM   H15F11439   5.542   1.984   8.903 -1.1720  2.3713 -0.3553
  110OSM   H15G11440   5.714   1.975   8.928  0.2157  0.6219  1.8932
  110OSM   C16F11441   5.660   2.093   8.763  0.5125  0.1393 -0.4833
  110OSM   H16F11442   5.764   2.130   8.757  0.6258 -0.0066  0.6207
  110OSM   H16G11443   5.581   2.167   8.736  0.5391  0.1203 -0.6125
  110OSM   C17F11444   5.661   1.979   8.665 -0.1831 -0.3766  0.1880
  110OSM   H17F11445   5.680   1.879   8.710 -0.1398  0.3725  1.8827
  110OSM   H17G11446   5.734   1.987   8.582 -1.9506 -1.5687 -1.5247
  110OSM   C18F11447   5.518   1.969   8.600  0.8460  0.0199  0.2603
  110OSM   H18F11448   5.513   1.901   8.512 -1.3815  0.1311  0.2647
  110OSM   H18G11449   5.490   2.071   8.565  0.5961  0.4238  1.6317
  110OSM   H18H11450   5.446   1.944   8.680 -0.9939  2.2151 -0.6583
  111OSM      N11451   6.678   4.813  10.948  0.6314 -0.4533  0.2548
  111OSM    C1511452   6.558   4.895  10.992  0.8610  0.2662  0.2174
  111OSM   H15A11453   6.590   4.993  11.024 -0.6006  0.6901  0.4068
  111OSM   H15B11454   6.496   4.852  11.069  0.4185 -1.6401 -1.1632
  111OSM   H15C11455   6.509   4.919  10.898 -1.1577 -0.3095  1.1085
  111OSM    C1411456   6.783   4.909  10.881  0.3921 -0.0166 -0.5532
  111OSM   H14A11457   6.866   4.857  10.836  0.5907 -0.3284  0.1684
  111OSM   H14B11458   6.823   4.977  10.955  1.8193  1.2725 -2.4430
  111OSM   H14C11459   6.741   4.963  10.797 -0.3827  0.8347  0.3773
  111OSM    C1311460   6.746   4.760  11.068 -0.1936 -0.4040 -0.3578
  111OSM   H13A11461   6.785   4.836  11.134 -1.7837  1.7260 -1.8074
  111OSM   H13B11462   6.829   4.696  11.042 -0.5073 -0.7900 -0.4043
  111OSM   H13C11463   6.681   4.705  11.134  0.5760  0.2232  0.9457
  111OSM    C1211464   6.644   4.707  10.846  0.0978 -0.0438  0.3043
  111OSM   H12A11465   6.734   4.664  10.805  0.3637 -0.5657  1.3929
  111OSM   H12B11466   6.608   4.759  10.759  0.0657 -0.2028  0.2211
  111OSM    C1111467   6.538   4.586  10.881 -0.9334 -0.2666  0.6359
  111OSM   H11A11468   6.597   4.523  10.952 -0.3928 -0.7763 -0.2630
  111OSM   H11B11469   6.530   4.512  10.799 -3.4718 -1.7210  2.1372
  111OSM      P11470   6.317   4.696  10.817  0.1076 -0.2027 -0.2912
  111OSM    O1311471   6.193   4.612  10.791 -0.1853  0.1778  0.8009
  111OSM    O1411472   6.286   4.830  10.861 -0.0919 -0.1749 -0.0338
  111OSM    O1111473   6.397   4.711  10.683 -0.3757  0.0354  0.2915
  111OSM    O1211474   6.414   4.629  10.929 -0.4440  0.3210  0.2098
  111OSM    C1S11475   6.351   4.681  10.550 -0.6389  0.2019  0.4124
  111OSM    H1S11476   6.240   4.684  10.541 -0.6521 -2.5508 -1.0497
  111OSM    H1T11477   6.386   4.580  10.518  0.0504  0.8501 -0.9234
  111OSM     NF11478   6.341   4.734  10.314  0.1126  0.3816  0.1255
  111OSM    HNF11479   6.409   4.695  10.253  1.4347  1.3300  0.9725
  111OSM    C2S11480   6.398   4.783  10.437  0.2699  0.0249 -0.0225
  111OSM    H2S11481   6.344   4.879  10.454 -1.7425 -1.0477 -0.0946
  111OSM    C3S11482   6.552   4.787  10.431  0.4263 -0.2812 -0.0066
  111OSM    H3S11483   6.589   4.686  10.403  3.3136  0.2815  1.6020
  111OSM     O311484   6.624   4.818  10.551 -0.5450  0.6053  0.3512
  111OSM    HO311485   6.553   4.823  10.616 -3.6124  0.6788 -2.8547
  111OSM    C4S11486   6.595   4.886  10.329  0.7246  0.4049  0.0569
  111OSM    H4S11487   6.663   4.848  10.251 -0.0757  0.2949 -0.5807
  111OSM    C5S11488   6.579   5.018  10.337  0.2980 -0.0576  0.1317
  111OSM    H5S11489   6.527   5.060  10.423  1.4028 -2.2559  1.9449
  111OSM    C6S11490   6.624   5.107  10.225 -0.1120  0.3677 -0.3252
  111OSM    H6S11491   6.722   5.146  10.260  0.4389 -1.4003  0.1695
  111OSM    H6T11492   6.560   5.196  10.213  0.1878  0.7490  0.8179
  111OSM    C7S11493   6.630   5.045  10.075  0.2542  0.0994 -0.0485
  111OSM    H7S11494   6.554   4.968  10.053 -0.8202  0.6297  1.6764
  111OSM    H7T11495   6.731   4.999  10.061  1.3186  2.2850  0.1917
  111OSM    C8S11496   6.624   5.162   9.982 -0.0853  0.1667 -0.1386
  111OSM    H8S11497   6.708   5.226  10.016 -0.1033 -0.8664  1.9797
  111OSM    H8T11498   6.534   5.224  10.004  1.2067  2.5186 -1.2786
  111OSM    C9S11499   6.634   5.117   9.834  0.3311  0.4109 -0.4686
  111OSM    H9S11500   6.555   5.043   9.807  0.7065 -1.0826  2.3266
  111OSM    H9T11501   6.720   5.047   9.828 -0.0728 -0.3273  1.8200
  111OSM   C10S11502   6.644   5.242   9.742  0.1233  0.5900 -0.4305
  111OSM   H10S11503   6.728   5.311   9.762 -0.7566  1.3045  0.9684
  111OSM   H10T11504   6.550   5.298   9.762  0.9421  1.0312  2.3853
  111OSM   C11S11505   6.635   5.202   9.593 -0.5968 -0.4118 -0.5456
  111OSM   H11S11506   6.531   5.175   9.564 -0.5449 -1.9797  0.6574
  111OSM   H11T11507   6.704   5.117   9.580  0.5503  0.3956  0.1868
  111OSM   C12S11508   6.676   5.324   9.498  0.6892  0.4343  0.4935
  111OSM   H12S11509   6.782   5.355   9.510  0.8260  1.1653 -2.2435
  111OSM   H12T11510   6.625   5.416   9.534 -0.5504 -0.0524  0.0044
  111OSM   C13S11511   6.636   5.297   9.354 -0.0304 -0.1101  0.0348
  111OSM   H13S11512   6.669   5.388   9.301 -0.8243  0.4687  0.5281
  111OSM   H13T11513   6.526   5.281   9.346  0.1671 -0.9627 -1.0576
  111OSM   C14S11514   6.695   5.170   9.292 -0.2986 -0.1703  0.1551
  111OSM   H14S11515   6.670   5.076   9.345  0.0599 -1.7673 -2.3890
  111OSM   H14T11516   6.806   5.179   9.298 -0.5021  3.6746 -0.3937
  111OSM   C15S11517   6.657   5.148   9.143  0.5130  0.1650  0.2241
  111OSM   H15S11518   6.720   5.071   9.095  1.6693  0.0798  1.8407
  111OSM   H15T11519   6.670   5.241   9.083  0.7263 -0.9338 -1.4730
  111OSM   C16S11520   6.511   5.107   9.127 -0.0764 -0.3465 -0.7533
  111OSM   H16S11521   6.450   5.199   9.142 -0.4216 -0.4266 -1.6310
  111OSM   H16T11522   6.479   5.026   9.197 -0.6889 -0.0068 -0.6369
  111OSM   C17S11523   6.470   5.054   8.992  0.4940 -0.8134 -0.5472
  111OSM   H17S11524   6.374   5.000   8.998 -0.9093  1.4098 -2.0692
  111OSM   H17T11525   6.544   4.973   8.974  1.0729  0.5079 -4.9912
  111OSM   C18S11526   6.473   5.157   8.877  0.1397 -0.4967 -0.1062
  111OSM   H18S11527   6.516   5.105   8.789 -0.0977  0.9635 -1.1120
  111OSM   H18T11528   6.557   5.228   8.894  0.2415 -0.5933 -0.2052
  111OSM   H18U11529   6.371   5.199   8.860  0.3741  0.6561  1.2605
  111OSM    C1F11530   6.219   4.725  10.280  0.3214 -0.3092 -0.4212
  111OSM     OF11531   6.128   4.791  10.329  0.0645 -0.1221 -0.6724
  111OSM    C2F11532   6.185   4.622  10.174 -0.2053 -0.6443 -0.6619
  111OSM    H2F11533   6.104   4.554  10.208 -0.9812 -0.2608 -1.6782
  111OSM    H2G11534   6.277   4.562  10.154  1.0259  0.8468  0.4506
  111OSM    C3F11535   6.135   4.692  10.039  0.0664 -0.3064 -0.4183
  111OSM    H3F11536   6.212   4.764  10.005 -1.4592  0.4452 -2.3302
  111OSM    H3G11537   6.050   4.759  10.063  1.6580  1.9873 -1.1051
  111OSM    C4F11538   6.100   4.586   9.935  0.4976  0.6902  0.3584
  111OSM    H4F11539   5.999   4.541   9.947 -0.6153  3.2726  1.3059
  111OSM    H4G11540   6.165   4.498   9.951  0.4141  0.9602  2.3546
  111OSM    C5F11541   6.108   4.646   9.797  0.2255  0.2204 -0.5369
  111OSM    H5F11542   6.203   4.703   9.789 -0.0378  0.3804 -2.9810
  111OSM    H5G11543   6.021   4.714   9.784  0.0528 -0.1506 -1.3372
  111OSM    C6F11544   6.089   4.538   9.686  0.4558 -0.1541  0.4092
  111OSM    H6F11545   5.989   4.491   9.697  0.5489 -1.4708 -3.7331
  111OSM    H6G11546   6.172   4.473   9.720  1.0390  0.7008  0.6510
  111OSM    C7F11547   6.102   4.610   9.548 -0.2787 -0.5144 -0.7972
  111OSM    H7F11548   6.191   4.677   9.545  0.6771 -1.7315 -0.0071
  111OSM    H7G11549   6.009   4.668   9.532  0.0821  0.9841  2.2519
  111OSM    C8F11550   6.113   4.515   9.423 -0.0590  0.1243 -0.6835
  111OSM    H8F11551   6.091   4.567   9.328  0.0608  2.8771  0.7566
  111OSM    H8G11552   6.027   4.447   9.441 -0.6835  0.9108 -0.6661
  111OSM    C9F11553   6.240   4.443   9.407  0.3401 -0.1653 -0.3736
  111OSM    H9F11554   6.321   4.481   9.471 -0.5505 -1.0671  1.3241
  111OSM   C10F11555   6.272   4.347   9.315  0.4828 -0.5959  0.5191
  111OSM   H10F11556   6.373   4.305   9.315  0.9014  0.3954 -0.1646
  111OSM   C11F11557   6.182   4.304   9.202 -0.4147  0.1945 -0.0550
  111OSM   H11F11558   6.080   4.345   9.215 -0.5879 -0.1314 -0.3651
  111OSM   H11G11559   6.173   4.193   9.194 -2.2223  0.2311  1.0901
  111OSM   C12F11560   6.228   4.353   9.057  0.7724 -0.1834 -0.0685
  111OSM   H12F11561   6.140   4.315   9.000  0.0917  0.6417  0.4199
  111OSM   H12G11562   6.322   4.301   9.030 -0.0436 -1.5158 -0.4267
  111OSM   C13F11563   6.247   4.497   9.020  0.1671  0.9977 -0.0323
  111OSM   H13F11564   6.287   4.548   9.110 -1.0549 -0.2245  1.2217
  111OSM   H13G11565   6.142   4.528   9.000 -0.3198 -1.5101 -1.4768
  111OSM   C14F11566   6.320   4.518   8.893 -0.9443 -0.1778  0.1247
  111OSM   H14F11567   6.265   4.449   8.825 -1.2080  1.0574 -0.9520
  111OSM   H14G11568   6.422   4.480   8.916  0.0555  1.3363 -1.5756
  111OSM   C15F11569   6.321   4.662   8.839  0.8109 -0.4794 -0.2813
  111OSM   H15F11570   6.326   4.729   8.929 -1.0224  0.8593 -1.1433
  111OSM   H15G11571   6.219   4.668   8.796  1.7689 -0.2212 -2.5344
  111OSM   C16F11572   6.434   4.692   8.740 -0.7348  0.0943  0.4221
  111OSM   H16F11573   6.535   4.661   8.772 -0.6935 -0.0529  0.1377
  111OSM   H16G11574   6.433   4.803   8.746 -1.9316  0.2391 -2.0054
  111OSM   C17F11575   6.408   4.659   8.588 -0.4757  0.2241 -0.4322
  111OSM   H17F11576   6.385   4.551   8.587 -0.8787  0.2969  0.3275
  111OSM   H17G11577   6.511   4.662   8.546 -0.6039  0.9007 -0.7159
  111OSM   C18F11578   6.301   4.736   8.516 -0.2946  0.6444  0.1926
  111OSM   H18F11579   6.292   4.707   8.410  4.0591  0.3873 -0.2005
  111OSM   H18G11580   6.323   4.845   8.511 -0.7718  0.6956 -0.7736
  111OSM   H18H11581   6.196   4.730   8.553 -0.1687  1.5366  0.7234
  112OSM      N11582   0.627   1.763  11.051 -0.2792 -0.1133 -0.0518
  112OSM    C1511583   0.629   1.608  11.078 -0.1585 -0.5609 -0.2241
  112OSM   H15A11584   0.693   1.580  11.160  3.1032  0.0663 -2.4651
  112OSM   H15B11585   0.661   1.561  10.986 -0.1527 -1.2347  0.1201
  112OSM   H15C11586   0.527   1.579  11.101 -0.4504 -0.0311 -0.8287
  112OSM    C1411587   0.758   1.816  11.006  0.4935 -0.4328 -0.0917
  112OSM   H14A11588   0.843   1.810  11.073 -0.1809  0.8079  0.8948
  112OSM   H14B11589   0.749   1.917  10.968  1.1425 -0.3516 -0.0337
  112OSM   H14C11590   0.799   1.748  10.933  0.2818 -0.3569 -0.2835
  112OSM    C1311591   0.527   1.793  10.944  0.1657  0.2101 -0.0934
  112OSM   H13A11592   0.438   1.738  10.968  0.4324 -1.4431 -2.6324
  112OSM   H13B11593   0.565   1.757  10.849 -0.5420  2.1839 -1.1595
  112OSM   H13C11594   0.507   1.899  10.937 -2.0129 -0.2320 -0.8194
  112OSM    C1211595   0.595   1.837  11.185  0.2283 -0.0708 -0.1235
  112OSM   H12A11596   0.666   1.806  11.260  0.0116 -1.0120 -0.3035
  112OSM   H12B11597   0.494   1.814  11.217  0.2134  1.0852  0.6565
  112OSM    C1111598   0.590   1.993  11.169 -0.1805 -0.3776  0.3811
  112OSM   H11A11599   0.673   2.034  11.108 -1.1919 -0.7587 -1.3095
  112OSM   H11B11600   0.586   2.052  11.263 -1.6450  2.7556 -1.5499
  112OSM      P11601   0.341   2.078  11.162  0.4254 -0.1515  0.1190
  112OSM    O1311602   0.288   1.952  11.218  0.0293 -0.3885  0.2031
  112OSM    O1411603   0.369   2.189  11.260 -0.3160  0.4568  0.7855
  112OSM    O1111604   0.247   2.131  11.050  0.3628  0.1657  0.2986
  112OSM    O1211605   0.472   2.035  11.095  0.0700  0.5459  0.4524
  112OSM    C1S11606   0.294   2.170  10.918  0.9056 -0.0491  0.3103
  112OSM    H1S11607   0.404   2.181  10.916  1.1563 -2.1414  0.5245
  112OSM    H1T11608   0.251   2.255  10.862  2.9502 -0.2981 -1.6999
  112OSM     NF11609   0.303   2.095  10.679  0.2348  0.2114  0.3581
  112OSM    HNF11610   0.237   2.113  10.607 -0.9518 -0.4443  1.2712
  112OSM    C2S11611   0.256   2.058  10.813  0.4464 -0.4155  0.3841
  112OSM    H2S11612   0.296   1.957  10.834  0.5054 -0.0740  2.0696
  112OSM    C3S11613   0.104   2.022  10.816 -0.6401  0.2510 -0.0853
  112OSM    H3S11614   0.048   2.117  10.804 -0.9412 -0.0566 -1.2589
  112OSM     O311615   0.060   1.967  10.940  0.0014 -0.0660  0.4238
  112OSM    HO311616   0.130   2.004  10.995 -0.5550  0.2665  0.9197
  112OSM    C4S11617   0.072   1.933  10.705 -0.3107  0.4340  0.0838
  112OSM    H4S11618   0.109   1.830  10.700 -1.4721 -0.0220  0.6580
  112OSM    C5S11619  -0.017   1.959  10.608 -0.2567  0.1775  0.4903
  112OSM    H5S11620  -0.061   2.059  10.617 -0.7250  0.0639 -0.4439
  112OSM    C6S11621  -0.055   1.873  10.490  0.8128  0.3722 -0.5532
  112OSM    H6S11622  -0.165   1.880  10.476  0.7262 -0.1704 -0.1778
  112OSM    H6T11623  -0.019   1.768  10.506  1.2222  0.3782 -1.3893
  112OSM    C7S11624   0.028   1.920  10.370 -0.1330 -0.4228 -0.1147
  112OSM    H7S11625   0.138   1.918  10.389  0.3397  0.1117 -2.6394
  112OSM    H7T11626   0.011   2.026  10.341  0.8324  0.1619  1.4046
  112OSM    C8S11627   0.003   1.825  10.249 -0.2128  0.4237  0.2947
  112OSM    H8S11628  -0.104   1.840  10.222  0.9613  1.1017 -4.4116
  112OSM    H8T11629   0.025   1.719  10.272  0.8606  0.5341 -0.2041
  112OSM    C9S11630   0.084   1.856  10.129  0.0155  0.0398  0.3143
  112OSM    H9S11631   0.173   1.918  10.152 -0.7786  1.4480 -0.3409
  112OSM    H9T11632   0.028   1.930  10.067 -0.2154  0.3042  0.8395
  112OSM   C10S11633   0.128   1.726  10.056 -0.4276  0.4811  0.8273
  112OSM   H10S11634   0.071   1.632  10.073  3.1190 -2.1300 -1.0827
  112OSM   H10T11635   0.231   1.695  10.081 -0.6733  0.0201  1.2761
  112OSM   C11S11636   0.128   1.736   9.896 -0.0517  0.3085 -0.3487
  112OSM   H11S11637   0.034   1.785   9.861 -1.0148 -0.4806  1.0871
  112OSM   H11T11638   0.116   1.632   9.860  0.0628  0.4732 -0.8644
  112OSM   C12S11639   0.252   1.809   9.848  0.0698  0.6277  0.2035
  112OSM   H12S11640   0.348   1.762   9.878 -1.6278 -1.3482  2.8026
  112OSM   H12T11641   0.250   1.909   9.896 -1.4648  0.1592  1.1483
  112OSM   C13S11642   0.237   1.822   9.697  0.0718  0.7385  0.1042
  112OSM   H13S11643   0.145   1.882   9.680  0.5925  0.9524 -2.0552
  112OSM   H13T11644   0.231   1.719   9.654  1.7055  0.5115  0.3841
  112OSM   C14S11645   0.355   1.894   9.633  1.0598  0.2005 -0.0459
  112OSM   H14S11646   0.452   1.847   9.660  0.7102 -1.1079 -1.0363
  112OSM   H14T11647   0.346   1.998   9.671 -0.1899  0.5222 -1.2086
  112OSM   C15S11648   0.347   1.866   9.482 -0.1933  0.9835 -0.3978
  112OSM   H15S11649   0.342   1.755   9.476 -2.1380  1.0406 -0.0872
  112OSM   H15T11650   0.442   1.900   9.435 -0.2703  1.7766  0.0112
  112OSM   C16S11651   0.232   1.940   9.417  0.0345  0.2249  0.4379
  112OSM   H16S11652   0.237   2.047   9.445 -0.1534  0.1363  0.8171
  112OSM   H16T11653   0.141   1.899   9.465  0.0865 -0.3566  0.0445
  112OSM   C17S11654   0.229   1.937   9.259 -0.3777  0.4702  0.3337
  112OSM   H17S11655   0.325   1.987   9.232  0.2253 -0.7942  0.0650
  112OSM   H17T11656   0.154   2.001   9.208 -0.3055 -0.3883 -0.8926
  112OSM   C18S11657   0.229   1.802   9.210  0.5681 -0.5045  0.6266
  112OSM   H18S11658   0.279   1.792   9.111  2.7108 -1.9311  1.8007
  112OSM   H18T11659   0.124   1.769   9.195 -0.1541  2.5445 -1.4723
  112OSM   H18U11660   0.291   1.735   9.274 -0.3385 -0.8861  1.1008
  112OSM    C1F11661   0.433   2.107  10.650  1.0347  0.2630  0.7172
  112OSM     OF11662   0.520   2.070  10.725 -1.5406  0.1261 -0.1154
  112OSM    C2F11663   0.464   2.183  10.530  0.6711 -0.4192  0.1574
  112OSM    H2F11664   0.401   2.274  10.514 -0.6158 -1.4354 -0.6950
  112OSM    H2G11665   0.448   2.113  10.445 -1.1522  1.3516 -1.0060
  112OSM    C3F11666   0.605   2.232  10.526 -0.3138 -1.0325  0.3619
  112OSM    H3F11667   0.673   2.145  10.517  0.9604 -0.0412  0.1767
  112OSM    H3G11668   0.641   2.277  10.622 -1.0598  1.1355 -0.3313
  112OSM    C4F11669   0.647   2.327  10.411 -0.2212 -0.7682  0.2504
  112OSM    H4F11670   0.756   2.352  10.413 -0.2655 -0.5310 -0.3625
  112OSM    H4G11671   0.587   2.420  10.421  3.1708  1.5588 -0.0485
  112OSM    C5F11672   0.616   2.264  10.273  0.5518  0.2944  0.6347
  112OSM    H5F11673   0.517   2.214  10.273  0.5816  0.2373  0.3883
  112OSM    H5G11674   0.686   2.179  10.261 -1.5823 -1.7304  2.1486
  112OSM    C6F11675   0.630   2.352  10.151 -0.0371 -0.3842  0.0120
  112OSM    H6F11676   0.610   2.298  10.056  1.8689 -2.2186  0.6206
  112OSM    H6G11677   0.738   2.375  10.137 -0.0849  1.3192  2.1296
  112OSM    C7F11678   0.528   2.478  10.152  0.3664  0.6972 -0.4126
  112OSM    H7F11679   0.529   2.535  10.247 -0.9519  0.5228 -0.2909
  112OSM    H7G11680   0.422   2.447  10.146 -0.1636  1.5723  3.5112
  112OSM    C8F11681   0.557   2.567  10.035 -0.1086 -0.0710 -0.3509
  112OSM    H8F11682   0.528   2.511   9.944  0.8405 -2.0603  0.5385
  112OSM    H8G11683   0.667   2.583  10.027  0.0334 -0.5830  0.5070
  112OSM    C9F11684   0.509   2.706  10.029 -0.4437  0.3713 -0.3734
  112OSM    H9F11685   0.542   2.769  10.112 -2.1788 -0.5439  1.0486
  112OSM   C10F11686   0.423   2.752   9.935 -0.6720  0.4709 -0.0135
  112OSM   H10F11687   0.402   2.860   9.928 -2.3463  0.2190  0.7635
  112OSM   C11F11688   0.366   2.664   9.823 -0.3653 -0.0503  0.6474
  112OSM   H11F11689   0.258   2.681   9.801 -0.9418 -2.5731  1.4031
  112OSM   H11G11690   0.357   2.558   9.855 -1.7260 -0.0102  0.4604
  112OSM   C12F11691   0.464   2.661   9.702  0.8353 -0.1006 -0.0114
  112OSM   H12F11692   0.566   2.625   9.725  0.5709 -0.6499  0.3264
  112OSM   H12G11693   0.453   2.764   9.661  1.1140 -0.4250 -0.9080
  112OSM   C13F11694   0.403   2.570   9.588 -0.1649  0.1469  0.2895
  112OSM   H13F11695   0.293   2.590   9.591 -0.1510  0.3480 -0.5818
  112OSM   H13G11696   0.418   2.463   9.613 -0.3098  0.3435  1.2583
  112OSM   C14F11697   0.454   2.587   9.445  0.2001 -0.5939 -0.2131
  112OSM   H14F11698   0.414   2.508   9.377 -0.9910  0.7143 -1.0540
  112OSM   H14G11699   0.565   2.586   9.454  0.2772  1.5459 -0.7267
  112OSM   C15F11700   0.405   2.720   9.387  0.1518 -0.4425  0.3142
  112OSM   H15F11701   0.452   2.801   9.447 -0.7043 -1.1276  1.9694
  112OSM   H15G11702   0.295   2.734   9.382  0.2991  0.6973  0.0079
  112OSM   C16F11703   0.456   2.732   9.246 -0.1770  0.6795 -0.7278
  112OSM   H16F11704   0.515   2.640   9.225  2.2128  2.1949 -0.8573
  112OSM   H16G11705   0.535   2.810   9.253  2.6881 -2.0110 -2.0477
  112OSM   C17F11706   0.357   2.759   9.142 -0.4202 -0.2030 -0.2356
  112OSM   H17F11707   0.298   2.850   9.164  0.6746  0.7255 -1.1443
  112OSM   H17G11708   0.285   2.674   9.150 -1.0174  0.2692 -0.5786
  112OSM   C18F11709   0.409   2.776   8.998  0.1382 -0.5501 -0.0537
  112OSM   H18F11710   0.328   2.770   8.923 -1.2632 -0.3676  1.4249
  112OSM   H18G11711   0.497   2.709   8.984 -0.4488 -1.0168 -1.6096
  112OSM   H18H11712   0.443   2.881   8.981 -2.5789  0.2063 -1.1284
  113OSM      N11713   3.912   5.634  11.177  0.0711 -0.3603 -0.2962
  113OSM    C1511714   3.958   5.731  11.281 -0.4865  0.2485  0.0224
  113OSM   H15A11715   3.881   5.770  11.346  1.7871  2.1926  1.6532
  113OSM   H15B11716   4.018   5.813  11.242  0.3835 -1.3966 -2.2486
  113OSM   H15C11717   4.027   5.687  11.352 -0.3657 -1.8344 -1.3595
  113OSM    C1411718   4.019   5.579  11.088 -0.2166 -0.1323  0.3042
  113OSM   H14A11719   4.085   5.657  11.052 -2.3459  0.5919 -2.2555
  113OSM   H14B11720   3.985   5.521  11.003  0.4633  0.8278 -0.6459
  113OSM   H14C11721   4.068   5.505  11.148 -1.4254 -0.8118  0.4764
  113OSM    C1311722   3.854   5.513  11.241  0.4585 -0.2461  0.8520
  113OSM   H13A11723   3.927   5.481  11.315 -0.1537  1.4273  2.2048
  113OSM   H13B11724   3.844   5.436  11.167  0.1828 -1.1658  1.8356
  113OSM   H13C11725   3.767   5.523  11.304 -0.7482  1.8357 -1.0659
  113OSM    C1211726   3.809   5.696  11.092  0.0574  0.3308  0.6124
  113OSM   H12A11727   3.743   5.749  11.159  1.0765  0.8911  1.1813
  113OSM   H12B11728   3.746   5.613  11.061 -0.2966  1.1722 -1.0144
  113OSM    C1111729   3.843   5.796  10.985  0.7374  0.5311 -0.6538
  113OSM   H11A11730   3.761   5.850  10.933 -0.0832  0.6145  0.7158
  113OSM   H11B11731   3.900   5.744  10.905  3.2341 -0.1192  1.4643
  113OSM      P11732   3.855   6.033  11.095 -0.4379 -0.3754 -0.4339
  113OSM    O1311733   3.753   6.001  11.191  0.4708  0.5753 -0.3663
  113OSM    O1411734   3.958   6.133  11.139  0.1151 -0.0711 -0.2841
  113OSM    O1111735   3.787   6.089  10.968  0.0944 -0.1202 -0.2607
  113OSM    O1211736   3.922   5.898  11.044  0.4319  0.9287 -0.2774
  113OSM    C1S11737   3.860   6.141  10.858 -0.9941 -0.0633 -0.7146
  113OSM    H1S11738   3.878   6.057  10.789 -0.4313 -0.0266 -0.6149
  113OSM    H1T11739   3.955   6.194  10.881 -0.7335 -1.2088  0.9030
  113OSM     NF11740   3.834   6.282  10.661 -0.0037 -0.4248 -0.3700
  113OSM    HNF11741   3.902   6.355  10.664 -0.1896 -0.2917  0.5829
  113OSM    C2S11742   3.771   6.251  10.787 -0.5665  0.2434  0.2441
  113OSM    H2S11743   3.678   6.197  10.759  0.5545  0.5897 -4.5738
  113OSM    C3S11744   3.736   6.378  10.880  0.6257 -0.0849  0.4618
  113OSM    H3S11745   3.832   6.418  10.918  1.1613  0.9599 -1.8580
  113OSM     O311746   3.661   6.341  10.997 -0.2210 -0.2386  0.2766
  113OSM    HO311747   3.667   6.245  10.986  1.9141 -0.2313  1.0663
  113OSM    C4S11748   3.667   6.483  10.800  0.0187 -0.5117 -0.4435
  113OSM    H4S11749   3.569   6.453  10.760 -0.7788  2.5450 -0.9028
  113OSM    C5S11750   3.715   6.602  10.756  0.2530 -0.4195 -0.3768
  113OSM    H5S11751   3.819   6.632  10.778  0.9846 -4.1429  1.7801
  113OSM    C6S11752   3.640   6.701  10.676 -0.1637  0.2393 -0.4886
  113OSM    H6S11753   3.604   6.774  10.752 -0.9551 -0.1390 -0.4980
  113OSM    H6T11754   3.556   6.666  10.613 -1.9030  0.0271  1.8542
  113OSM    C7S11755   3.719   6.768  10.566  0.1914  0.3197  0.4797
  113OSM    H7S11756   3.809   6.815  10.610 -1.4184  1.8953  2.1435
  113OSM    H7T11757   3.654   6.839  10.510 -1.4705 -1.3486  0.2451
  113OSM    C8S11758   3.765   6.679  10.441 -0.1594  0.4150  0.3256
  113OSM    H8S11759   3.677   6.630  10.392 -0.4174  0.4579  0.7381
  113OSM    H8T11760   3.831   6.595  10.471  0.3957  0.4075 -0.8940
  113OSM    C9S11761   3.828   6.758  10.321 -0.4290  0.1009  0.0339
  113OSM    H9S11762   3.912   6.823  10.354  1.4175 -0.8554 -2.6105
  113OSM    H9T11763   3.756   6.826  10.271 -0.4471 -0.5130 -0.7874
  113OSM   C10S11764   3.896   6.670  10.220  0.3306  1.1351 -0.6536
  113OSM   H10S11765   3.825   6.597  10.174  1.4503  0.3427 -1.1242
  113OSM   H10T11766   3.974   6.617  10.277 -1.4866  0.7534  1.5518
  113OSM   C11S11767   3.960   6.751  10.100  0.5503  1.3427  0.3492
  113OSM   H11S11768   4.031   6.830  10.131  0.8004  0.9685  0.7322
  113OSM   H11T11769   3.870   6.790  10.048  0.6665  1.3378  0.1400
  113OSM   C12S11770   4.033   6.658   9.989  0.2126  0.5759 -0.5109
  113OSM   H12S11771   3.952   6.586   9.964  0.6984 -0.1921  0.0886
  113OSM   H12T11772   4.111   6.609  10.051 -0.0137  0.7599 -0.0780
  113OSM   C13S11773   4.082   6.717   9.850  0.6897  0.2846 -0.1128
  113OSM   H13S11774   4.151   6.801   9.870  1.6004 -0.7855  1.4442
  113OSM   H13T11775   3.993   6.757   9.798  1.5970 -1.0808 -2.7919
  113OSM   C14S11776   4.151   6.608   9.766  0.3680  0.5538  0.4223
  113OSM   H14S11777   4.071   6.557   9.708 -0.4719  0.2183  1.8457
  113OSM   H14T11778   4.195   6.532   9.834 -0.2381 -2.0773 -2.0047
  113OSM   C15S11779   4.266   6.663   9.676  0.4893 -0.1725  1.0468
  113OSM   H15S11780   4.308   6.568   9.635  1.9193  1.1562 -0.6994
  113OSM   H15T11781   4.347   6.707   9.738  0.4871  0.7951  0.3739
  113OSM   C16S11782   4.227   6.766   9.575 -0.3018 -0.0321 -0.0275
  113OSM   H16S11783   4.223   6.868   9.618  0.6292  1.1997 -2.7348
  113OSM   H16T11784   4.123   6.749   9.540 -0.8854 -1.7319  2.4532
  113OSM   C17S11785   4.335   6.763   9.460  0.1630  0.1428  0.1316
  113OSM   H17S11786   4.342   6.660   9.420 -0.8659  0.7389 -1.6150
  113OSM   H17T11787   4.432   6.777   9.514 -0.3009  1.2072  0.7096
  113OSM   C18S11788   4.304   6.864   9.348  0.2912 -0.0030 -0.5393
  113OSM   H18S11789   4.304   6.967   9.388  0.6881 -0.7717  1.5026
  113OSM   H18T11790   4.202   6.843   9.311 -0.7857  1.1860  1.6795
  113OSM   H18U11791   4.372   6.854   9.260 -1.3120  0.3671 -1.8470
  113OSM    C1F11792   3.836   6.203  10.556  0.7483  0.1190 -0.3425
  113OSM     OF11793   3.803   6.088  10.563  0.0044  0.2830 -0.1507
  113OSM    C2F11794   3.882   6.252  10.429  0.1233 -0.5395  0.2667
  113OSM    H2F11795   3.866   6.361  10.419 -0.6918 -0.6841 -0.0347
  113OSM    H2G11796   3.821   6.198  10.353  3.2680 -0.3034 -2.5543
  113OSM    C3F11797   4.037   6.219  10.396 -0.3464 -0.7004 -0.2166
  113OSM    H3F11798   4.052   6.110  10.408  2.2312 -0.5170 -1.3282
  113OSM    H3G11799   4.101   6.277  10.466  0.5291 -0.3164 -1.3229
  113OSM    C4F11800   4.075   6.276  10.250 -0.2206 -0.0252 -0.5970
  113OSM    H4F11801   4.185   6.288  10.250 -0.1868  0.2427  2.7792
  113OSM    H4G11802   4.039   6.380  10.233  1.9124  0.6458 -1.0476
  113OSM    C5F11803   4.034   6.180  10.136 -0.1275 -0.3908 -0.0864
  113OSM    H5F11804   3.930   6.217  10.129 -0.6579 -1.7841  0.3097
  113OSM    H5G11805   4.033   6.079  10.182  1.2102 -0.5413 -0.3571
  113OSM    C6F11806   4.117   6.180  10.011  0.6513 -0.0739  0.0830
  113OSM    H6F11807   4.139   6.073   9.988  0.9205 -0.0231  0.0980
  113OSM    H6G11808   4.215   6.226  10.036  0.2830 -0.1880  1.7446
  113OSM    C7F11809   4.039   6.230   9.884  0.5309 -0.9483  0.5025
  113OSM    H7F11810   4.021   6.337   9.909 -0.1801 -0.5684 -1.5360
  113OSM    H7G11811   3.940   6.184   9.867  1.0042 -1.3307 -1.3560
  113OSM    C8F11812   4.112   6.221   9.747 -0.0796  0.2106 -0.6685
  113OSM    H8F11813   4.202   6.286   9.757  0.6567 -0.8304 -0.3885
  113OSM    H8G11814   4.054   6.276   9.671 -2.4144  0.9216  1.5575
  113OSM    C9F11815   4.132   6.076   9.705 -0.6086  0.0107  0.3554
  113OSM    H9F11816   4.131   5.996   9.780 -0.4688 -0.6275 -0.3107
  113OSM   C10F11817   4.134   6.034   9.574  0.5147  0.1440  0.1500
  113OSM   H10F11818   4.157   5.931   9.543  1.0028 -0.9263  3.7785
  113OSM   C11F11819   4.138   6.138   9.463 -0.3727 -0.3326  0.3727
  113OSM   H11F11820   4.179   6.233   9.501  2.1474 -1.8975  1.6880
  113OSM   H11G11821   4.034   6.162   9.432  0.1224 -0.1570 -1.1793
  113OSM   C12F11822   4.225   6.106   9.346 -0.2868 -0.3340 -0.5070
  113OSM   H12F11823   4.191   6.009   9.303 -3.2543 -0.5615  2.2430
  113OSM   H12G11824   4.331   6.109   9.378 -0.1979 -2.0226 -0.6254
  113OSM   C13F11825   4.209   6.215   9.237 -0.0616 -0.4276  0.3541
  113OSM   H13F11826   4.211   6.313   9.291  2.3766 -1.4902  2.2664
  113OSM   H13G11827   4.104   6.207   9.200  0.4846 -0.2215 -1.2604
  113OSM   C14F11828   4.306   6.192   9.126 -0.4291  0.2546 -0.7517
  113OSM   H14F11829   4.407   6.206   9.170 -0.6996 -0.4049  0.0885
  113OSM   H14G11830   4.296   6.271   9.048 -2.1858 -0.2461 -1.0673
  113OSM   C15F11831   4.294   6.054   9.047  0.2290  0.6281  0.7278
  113OSM   H15F11832   4.187   6.057   9.015  0.7447 -0.8086 -1.2568
  113OSM   H15G11833   4.304   5.971   9.120 -0.1823  1.0190  1.2281
  113OSM   C16F11834   4.388   6.039   8.926  0.1980  0.5303  0.3825
  113OSM   H16F11835   4.387   6.135   8.871 -1.7220  0.2745 -0.0712
  113OSM   H16G11836   4.347   5.949   8.876 -3.0909  1.8336  0.5920
  113OSM   C17F11837   4.535   6.013   8.967 -0.5275 -0.8662 -0.4982
  113OSM   H17F11838   4.581   6.093   9.027 -0.9259 -1.4143  0.5519
  113OSM   H17G11839   4.589   6.010   8.870  0.4394 -0.1880  0.0239
  113OSM   C18F11840   4.564   5.883   9.052 -0.7292  0.2329 -0.3880
  113OSM   H18F11841   4.554   5.907   9.160 -2.1144 -0.2841 -0.3980
  113OSM   H18G11842   4.667   5.853   9.022 -1.0817  0.3679 -1.7662
  113OSM   H18H11843   4.495   5.799   9.029 -1.0649  0.7125 -1.1662
  114OSM      N11844   6.506   2.495  11.284  0.2317 -0.0378 -0.6419
  114OSM    C1511845   6.394   2.539  11.373 -0.3653 -0.1260  0.2836
  114OSM   H15A11846   6.371   2.479  11.460 -0.7893  2.5332  2.0753
  114OSM   H15B11847   6.306   2.548  11.312  2.0404 -0.7465 -3.4715
  114OSM   H15C11848   6.424   2.632  11.420  0.5415 -1.4762  2.4338
  114OSM    C1411849   6.534   2.595  11.175  0.3136  0.3706 -0.3916
  114OSM   H14A11850   6.461   2.573  11.098  0.8378  0.2537 -0.8553
  114OSM   H14B11851   6.633   2.587  11.133 -0.0406 -1.5615 -0.9219
  114OSM   H14C11852   6.525   2.696  11.212  1.7207  0.2352  0.3782
  114OSM    C1311853   6.637   2.491  11.358 -0.4257  0.3032 -0.5257
  114OSM   H13A11854   6.710   2.463  11.284 -0.6844  1.1344 -1.1038
  114OSM   H13B11855   6.629   2.414  11.434 -1.7859 -0.1908 -1.1425
  114OSM   H13C11856   6.674   2.584  11.398  2.0457 -1.6020  1.7971
  114OSM    C1211857   6.475   2.364  11.216  0.4001  0.2281 -0.5371
  114OSM   H12A11858   6.430   2.288  11.279  0.6656 -0.0617 -0.6962
  114OSM   H12B11859   6.574   2.328  11.195  0.7178  2.0661 -2.3326
  114OSM    C1111860   6.399   2.355  11.081 -0.1806  0.8897 -0.1720
  114OSM   H11A11861   6.360   2.252  11.063 -0.7450  1.2349 -0.9568
  114OSM   H11B11862   6.476   2.373  11.003 -0.6374 -0.2894 -0.9102
  114OSM      P11863   6.208   2.491  10.958 -0.4424  0.1176  0.1423
  114OSM    O1311864   6.076   2.440  10.997  0.3699 -0.4058  0.3970
  114OSM    O1411865   6.224   2.628  10.919  0.0996  0.4648 -0.2236
  114OSM    O1111866   6.261   2.396  10.848  0.2529  0.0615 -0.3950
  114OSM    O1211867   6.293   2.449  11.082  0.6002  0.2606  0.0746
  114OSM    C1S11868   6.177   2.323  10.757  0.8110  0.4367  0.5182
  114OSM    H1S11869   6.107   2.401  10.720  1.1404  0.1039 -0.8128
  114OSM    H1T11870   6.130   2.246  10.822  1.4486  2.5013  3.5520
  114OSM     NF11871   6.137   2.272  10.531 -0.7509  0.4176 -0.7243
  114OSM    HNF11872   6.097   2.181  10.530 -0.2117  0.1773 -0.5397
  114OSM    C2S11873   6.251   2.283  10.624 -0.0403 -0.0213 -0.5955
  114OSM    H2S11874   6.316   2.367  10.590 -2.0127  1.4200 -0.9057
  114OSM    C3S11875   6.337   2.158  10.644  0.0497 -0.6964  0.3155
  114OSM    H3S11876   6.289   2.073  10.696  0.1917  0.8293  3.0025
  114OSM     O311877   6.435   2.185  10.735 -0.4267  0.5370 -0.1914
  114OSM    HO311878   6.382   2.244  10.791  1.7009 -0.4521  3.0206
  114OSM    C4S11879   6.391   2.124  10.508 -0.1809 -0.6210 -0.0894
  114OSM    H4S11880   6.472   2.193  10.483 -1.4955  0.7631 -0.6164
  114OSM    C5S11881   6.377   2.011  10.438  0.0686 -0.3191 -0.3449
  114OSM    H5S11882   6.307   1.928  10.454  1.3027 -1.2791  0.1426
  114OSM    C6S11883   6.443   2.002  10.299 -0.4298  0.5965 -0.6145
  114OSM    H6S11884   6.476   1.897  10.287  0.1243  0.7410 -0.3735
  114OSM    H6T11885   6.530   2.069  10.286  0.5466 -0.6656 -0.6809
  114OSM    C7S11886   6.349   2.036  10.189  0.2094 -0.4177 -0.6299
  114OSM    H7S11887   6.296   2.130  10.217  0.5372  0.3464 -2.4759
  114OSM    H7T11888   6.278   1.950  10.182  0.6299 -0.8135 -0.0063
  114OSM    C8S11889   6.407   2.068  10.052  0.2963  0.5687 -0.0287
  114OSM    H8S11890   6.490   2.142  10.056  1.0575 -0.3441  1.6759
  114OSM    H8T11891   6.328   2.110   9.986  0.2327  2.0105  0.9516
  114OSM    C9S11892   6.459   1.947   9.982  0.1512 -0.3898 -0.0679
  114OSM    H9S11893   6.382   1.868   9.970  1.4500 -1.8715  0.9405
  114OSM    H9T11894   6.537   1.898  10.046 -1.4893  2.9851  4.7997
  114OSM   C10S11895   6.500   1.990   9.841  0.3924 -0.2430  0.2373
  114OSM   H10S11896   6.600   2.039   9.842 -0.4167  1.5224 -1.4812
  114OSM   H10T11897   6.419   2.058   9.805  0.9182 -0.2392 -0.9582
  114OSM   C11S11898   6.513   1.868   9.743  0.5850 -0.1764 -0.2452
  114OSM   H11S11899   6.426   1.799   9.738  2.3329 -2.4842  0.4647
  114OSM   H11T11900   6.593   1.796   9.770  1.1161  0.4199 -0.1978
  114OSM   C12S11901   6.540   1.909   9.597 -0.3803  0.3019  0.7088
  114OSM   H12S11902   6.635   1.967   9.596  0.3111 -0.7986  1.3351
  114OSM   H12T11903   6.459   1.976   9.562 -1.2447 -0.8776  0.4357
  114OSM   C13S11904   6.536   1.786   9.500  1.0863  0.1495 -0.1426
  114OSM   H13S11905   6.436   1.737   9.498  1.7205 -1.1688  0.1367
  114OSM   H13T11906   6.607   1.704   9.525  1.7157  1.1225  1.2958
  114OSM   C14S11907   6.571   1.832   9.360 -0.0767 -0.9006 -0.2569
  114OSM   H14S11908   6.640   1.919   9.372 -0.0930 -1.0548  1.0822
  114OSM   H14T11909   6.478   1.875   9.317 -0.4537  0.3621  1.7600
  114OSM   C15S11910   6.632   1.730   9.265  0.1350  0.2212 -0.0116
  114OSM   H15S11911   6.552   1.654   9.257  0.2045  0.0077  1.2585
  114OSM   H15T11912   6.729   1.691   9.302 -0.0465  0.7178  0.9906
  114OSM   C16S11913   6.646   1.794   9.122 -0.2405  0.1097 -0.2599
  114OSM   H16S11914   6.706   1.887   9.132  1.2132 -0.6873 -1.5763
  114OSM   H16T11915   6.543   1.819   9.089 -0.7807  0.0478  1.3439
  114OSM   C17S11916   6.687   1.698   9.014 -0.4774  0.0995  0.0272
  114OSM   H17S11917   6.616   1.613   9.016 -0.6930  0.2996  0.9851
  114OSM   H17T11918   6.793   1.668   9.030 -0.2602  0.6927 -0.2398
  114OSM   C18S11919   6.666   1.763   8.878 -0.8146  0.5267 -0.2492
  114OSM   H18S11920   6.755   1.827   8.857  0.9760 -1.7044  0.3278
  114OSM   H18T11921   6.577   1.828   8.889 -0.1916  1.5440 -1.1175
  114OSM   H18U11922   6.652   1.695   8.792 -0.2034  0.7668 -0.5408
  114OSM    C1F11923   6.084   2.374  10.469  0.2443 -0.3038  0.7150
  114OSM     OF11924   6.118   2.488  10.510 -0.4765  0.0994 -0.3133
  114OSM    C2F11925   5.992   2.354  10.356 -0.6336  0.8559  0.0367
  114OSM    H2F11926   5.920   2.275  10.387  2.0536 -2.2055 -1.2206
  114OSM    H2G11927   6.051   2.319  10.269 -0.3531 -2.0685  1.3416
  114OSM    C3F11928   5.928   2.487  10.313  0.0751  0.3149  0.1381
  114OSM    H3F11929   6.010   2.557  10.284 -0.6111  0.7620 -0.7587
  114OSM    H3G11930   5.864   2.531  10.392  0.4605  0.4966  0.3484
  114OSM    C4F11931   5.853   2.467  10.178 -0.0112  0.5363 -0.4514
  114OSM    H4F11932   5.797   2.371  10.182  2.1794 -0.7641 -0.3578
  114OSM    H4G11933   5.934   2.447  10.104 -1.0442  2.2119 -2.0801
  114OSM    C5F11934   5.753   2.571  10.126 -0.0402 -0.3018  0.0807
  114OSM    H5F11935   5.816   2.662  10.114 -0.9448  0.3470  0.1102
  114OSM    H5G11936   5.674   2.602  10.198  0.2032 -0.3631  0.3771
  114OSM    C6F11937   5.712   2.537   9.983  0.3971 -0.5314 -0.2751
  114OSM    H6F11938   5.658   2.440   9.988  1.5196 -1.1742 -0.6485
  114OSM    H6G11939   5.807   2.525   9.928 -0.3059  1.0968 -1.8932
  114OSM    C7F11940   5.630   2.654   9.922  0.5293  0.1891 -0.2728
  114OSM    H7F11941   5.703   2.737   9.913  0.7864 -0.2142 -1.9615
  114OSM    H7G11942   5.541   2.671   9.986 -0.8582 -2.2697 -1.4890
  114OSM    C8F11943   5.588   2.593   9.781  0.3096 -0.2334 -0.3981
  114OSM    H8F11944   5.497   2.647   9.746  0.3815 -0.0698 -0.3370
  114OSM    H8G11945   5.547   2.495   9.811  0.9398 -0.4745 -0.3359
  114OSM    C9F11946   5.692   2.591   9.669 -0.8166 -0.0354  0.2358
  114OSM    H9F11947   5.765   2.509   9.668 -0.7361  0.0464 -2.2941
  114OSM   C10F11948   5.681   2.655   9.548 -0.1661  0.5769  0.2760
  114OSM   H10F11949   5.770   2.656   9.483  0.9372  2.8960  1.7768
  114OSM   C11F11950   5.572   2.743   9.504 -0.1707  0.2407 -0.2712
  114OSM   H11F11951   5.562   2.837   9.563 -0.8051 -0.6557  1.0837
  114OSM   H11G11952   5.472   2.698   9.524 -1.1539  1.1073 -2.9766
  114OSM   C12F11953   5.602   2.778   9.358  0.9359  0.2442  0.3232
  114OSM   H12F11954   5.710   2.771   9.331  0.4766  0.3806 -1.6640
  114OSM   H12G11955   5.586   2.887   9.345 -0.3910 -0.0990 -1.0555
  114OSM   C13F11956   5.519   2.701   9.254 -0.0769 -0.2214 -0.0506
  114OSM   H13F11957   5.414   2.738   9.260 -0.3043 -0.4060 -2.3273
  114OSM   H13G11958   5.523   2.592   9.274  4.1621 -0.9306 -4.0026
  114OSM   C14F11959   5.565   2.724   9.111 -0.1826 -0.0084 -0.0838
  114OSM   H14F11960   5.673   2.701   9.116  0.0615  1.2845  0.8028
  114OSM   H14G11961   5.560   2.829   9.076 -1.8498 -0.6063 -1.7478
  114OSM   C15F11962   5.500   2.632   9.009  0.2223 -0.0087 -0.4315
  114OSM   H15F11963   5.391   2.650   9.001  0.0242 -1.0454 -0.1458
  114OSM   H15G11964   5.526   2.528   9.036  5.5451  0.9368 -1.2408
  114OSM   C16F11965   5.555   2.646   8.870 -0.5542 -0.5993 -0.5772
  114OSM   H16F11966   5.665   2.631   8.879  0.2315  3.1700 -2.5675
  114OSM   H16G11967   5.555   2.750   8.830  2.4442 -0.3468 -0.0812
  114OSM   C17F11968   5.498   2.550   8.769 -0.3405 -0.1173 -0.3926
  114OSM   H17F11969   5.408   2.599   8.726  0.2276  0.7334 -0.6128
  114OSM   H17G11970   5.459   2.457   8.818  2.4381 -1.9174 -1.4792
  114OSM   C18F11971   5.584   2.508   8.646 -0.2340  0.0781 -0.0507
  114OSM   H18F11972   5.526   2.434   8.586  0.5659 -0.1230 -0.5777
  114OSM   H18G11973   5.671   2.450   8.684 -0.1690  0.6604  0.6792
  114OSM   H18H11974   5.615   2.588   8.575  0.4797  0.2610  0.4741
  115OSM      N11975   3.186   1.265  11.147 -0.9397 -0.2506  0.0193
  115OSM    C1511976   3.067   1.336  11.207  0.4135 -0.1975 -0.2601
  115OSM   H15A11977   2.998   1.258  11.237  1.5597 -1.9004 -1.9222
  115OSM   H15B11978   3.016   1.397  11.133 -0.7684 -0.6326  0.1830
  115OSM   H15C11979   3.097   1.390  11.296 -0.3075  1.9559 -1.2975
  115OSM    C1411980   3.280   1.371  11.098 -0.2214 -0.9937  0.0626
  115OSM   H14A11981   3.239   1.430  11.018  0.6433  1.8813  1.6683
  115OSM   H14B11982   3.379   1.335  11.072  0.2480  0.3603 -0.0543
  115OSM   H14C11983   3.314   1.428  11.184 -0.7836 -1.6824  0.7568
  115OSM    C1311984   3.256   1.196  11.264  0.8349  0.1103 -0.1774
  115OSM   H13A11985   3.266   1.270  11.342 -2.2598 -0.8368  1.1981
  115OSM   H13B11986   3.351   1.152  11.239 -0.2122 -2.2001 -0.1679
  115OSM   H13C11987   3.197   1.117  11.307 -0.7733  0.1521 -2.2096
  115OSM    C1211988   3.160   1.168  11.040  0.0072 -0.3183  0.0604
  115OSM   H12A11989   3.126   1.075  11.085  1.9347 -0.7611  0.6696
  115OSM   H12B11990   3.250   1.133  10.994 -0.7459  0.0029 -1.6832
  115OSM    C1111991   3.073   1.210  10.923  0.0906  0.5403 -0.0341
  115OSM   H11A11992   3.081   1.142  10.836 -0.7027  0.2421  0.1157
  115OSM   H11B11993   3.114   1.306  10.887  1.5732 -0.3839 -0.8158
  115OSM      P11994   2.851   1.112  11.004 -0.5614  0.4155  0.0763
  115OSM    O1311995   2.933   1.020  11.087 -0.4033 -0.0566 -0.7096
  115OSM    O1411996   2.733   1.174  11.065  0.3118  0.1182 -0.1467
  115OSM    O1111997   2.815   1.059  10.865 -0.3318 -0.0991  0.5296
  115OSM    O1211998   2.936   1.227  10.956 -0.4684  0.1989 -0.4952
  115OSM    C1S11999   2.749   1.151  10.772  0.9740 -0.5220 -0.1504
  115OSM    H1S12000   2.762   1.258  10.800 -1.6775 -0.2989  0.3397
  115OSM    H1T12001   2.639   1.137  10.769  0.9420 -1.3976  3.1622
  115OSM     NF12002   2.777   1.227  10.538  0.7138 -0.8688  0.0439
  115OSM    HNF12003   2.704   1.200  10.476  0.9736 -2.3121  0.3289
  115OSM    C2S12004   2.813   1.123  10.625 -0.1072 -0.2685 -0.0830
  115OSM    H2S12005   2.924   1.126  10.621 -0.1502  0.2234 -1.6009
  115OSM    C3S12006   2.770   0.985  10.571  0.4479 -0.3055  0.2886
  115OSM    H3S12007   2.664   0.992  10.537  0.6880 -1.3441 -0.6872
  115OSM     O312008   2.774   0.875  10.656 -0.8515  0.2580  0.2265
  115OSM    HO312009   2.795   0.924  10.736 -1.2403  3.1269 -1.3882
  115OSM    C4S12010   2.846   0.957  10.443 -0.1986  0.2469 -0.2087
  115OSM    H4S12011   2.807   1.010  10.355 -1.0346 -1.1333 -0.6762
  115OSM    C5S12012   2.955   0.876  10.437  0.7566  0.3188 -0.1526
  115OSM    H5S12013   2.999   0.833  10.528  0.0647  2.1390  1.0565
  115OSM    C6S12014   3.021   0.842  10.310  0.6838 -0.1349  0.2984
  115OSM    H6S12015   3.073   0.744  10.310  1.6314  0.3689  0.1031
  115OSM    H6T12016   3.103   0.915  10.297  0.7690 -0.4151 -0.7288
  115OSM    C7S12017   2.945   0.840  10.173  0.6936  0.2044  0.4927
  115OSM    H7S12018   3.030   0.843  10.101 -0.1970  0.7322 -0.5536
  115OSM    H7T12019   2.897   0.940  10.168  0.1889 -0.1197 -1.4131
  115OSM    C8S12020   2.852   0.724  10.132 -0.4429  0.1654 -0.7024
  115OSM    H8S12021   2.757   0.746  10.183  1.0685  1.8087  1.4853
  115OSM    H8T12022   2.903   0.629  10.162 -0.7137  0.4490  0.6777
  115OSM    C9S12023   2.812   0.732   9.986 -1.0591 -0.4456 -0.2545
  115OSM    H9S12024   2.901   0.700   9.928 -1.5583 -1.3866 -0.5171
  115OSM    H9T12025   2.804   0.836   9.950 -2.0701 -1.1420 -2.0888
  115OSM   C10S12026   2.694   0.645   9.944 -0.2224 -0.3510 -0.7423
  115OSM   H10S12027   2.612   0.694  10.001 -0.1609 -0.4680 -0.5523
  115OSM   H10T12028   2.709   0.541   9.980  1.4381 -0.8151 -2.6819
  115OSM   C11S12029   2.674   0.659   9.801 -0.4300 -0.5781  0.2479
  115OSM   H11S12030   2.755   0.616   9.737 -0.6450 -2.2286  1.0497
  115OSM   H11T12031   2.681   0.765   9.768  0.1707 -0.9840 -0.9763
  115OSM   C12S12032   2.540   0.588   9.760  0.1414  0.8367 -0.3754
  115OSM   H12S12033   2.467   0.614   9.839 -1.5801 -1.7824 -1.0533
  115OSM   H12T12034   2.562   0.479   9.762  2.2791  1.2089 -1.6695
  115OSM   C13S12035   2.489   0.628   9.620 -0.3651  0.7776  0.3765
  115OSM   H13S12036   2.490   0.739   9.616 -1.7851  0.7419 -2.6949
  115OSM   H13T12037   2.387   0.584   9.621  0.8164 -2.1815 -1.5418
  115OSM   C14S12038   2.572   0.569   9.506  0.7127 -0.2615 -0.0223
  115OSM   H14S12039   2.547   0.460   9.503  0.2666 -0.2396  2.0377
  115OSM   H14T12040   2.681   0.577   9.529  0.6353 -1.8049  0.9750
  115OSM   C15S12041   2.538   0.638   9.374  0.5737  0.1834  0.4245
  115OSM   H15S12042   2.570   0.745   9.376  0.1016  0.4237 -2.0802
  115OSM   H15T12043   2.429   0.644   9.350  0.6960 -1.3314 -0.5864
  115OSM   C16S12044   2.582   0.556   9.257  0.3203 -0.0234  0.4635
  115OSM   H16S12045   2.543   0.451   9.260 -0.9345  0.3885 -1.1373
  115OSM   H16T12046   2.692   0.544   9.269  0.6526 -0.1042 -2.4839
  115OSM   C17S12047   2.547   0.631   9.126 -0.5170  0.6035 -0.5126
  115OSM   H17S12048   2.581   0.737   9.127  1.2987  0.0578 -2.6655
  115OSM   H17T12049   2.436   0.626   9.122 -0.8737  3.5542  3.0500
  115OSM   C18S12050   2.613   0.563   9.002 -0.3798  0.0619 -0.1016
  115OSM   H18S12051   2.723   0.570   9.017 -0.7383  2.0297  1.8340
  115OSM   H18T12052   2.586   0.616   8.908 -4.7927  0.7820  1.4658
  115OSM   H18U12053   2.589   0.454   9.000  1.0498 -0.3772  3.2123
  115OSM    C1F12054   2.827   1.349  10.537  0.2485 -0.0445 -0.1972
  115OSM     OF12055   2.914   1.390  10.614  0.1460 -0.1649 -0.5436
  115OSM    C2F12056   2.764   1.441  10.429 -0.2431  0.0575  0.0067
  115OSM    H2F12057   2.741   1.533  10.487  0.7060 -0.1032  0.6452
  115OSM    H2G12058   2.671   1.403  10.382  1.2168 -1.4593 -1.7326
  115OSM    C3F12059   2.867   1.490  10.329  0.1464  0.3609 -0.0000
  115OSM    H3F12060   2.919   1.404  10.280 -2.1576 -2.1133  1.7538
  115OSM    H3G12061   2.952   1.539  10.381 -0.2989 -0.9428  2.0580
  115OSM    C4F12062   2.808   1.583  10.227  0.4363 -0.1735  0.2142
  115OSM    H4F12063   2.775   1.676  10.278  1.3092  1.3027 -1.8871
  115OSM    H4G12064   2.722   1.527  10.185  0.6952 -0.1223 -0.3927
  115OSM    C5F12065   2.901   1.608  10.105 -0.0306 -0.0123  0.0667
  115OSM    H5F12066   2.994   1.548  10.113 -1.0458 -1.6944 -0.3885
  115OSM    H5G12067   2.948   1.709  10.110  1.0552 -0.5120  0.1820
  115OSM    C6F12068   2.843   1.592   9.961  0.4093 -0.3728 -0.3310
  115OSM    H6F12069   2.736   1.622   9.967  0.6452  0.1555  1.3412
  115OSM    H6G12070   2.851   1.484   9.934 -0.9543 -0.8875  1.1994
  115OSM    C7F12071   2.904   1.689   9.856 -0.1864 -0.2426 -0.4111
  115OSM    H7F12072   3.011   1.664   9.845 -0.0039  0.0904  0.6106
  115OSM    H7G12073   2.903   1.793   9.894  0.1655 -0.4579  0.1947
  115OSM    C8F12074   2.818   1.664   9.725  0.0041 -0.4530 -0.0179
  115OSM    H8F12075   2.843   1.754   9.665 -1.3858  0.4433  0.7003
  115OSM    H8G12076   2.708   1.669   9.743  0.0307 -2.3246  0.7276
  115OSM    C9F12077   2.872   1.543   9.653  0.2334 -0.4838 -0.1860
  115OSM    H9F12078   2.844   1.446   9.696  1.3968 -0.9912 -0.5559
  115OSM   C10F12079   2.960   1.551   9.549  0.4971  0.3578 -0.4597
  115OSM   H10F12080   2.984   1.452   9.509 -1.3620  0.0496 -0.8777
  115OSM   C11F12081   3.032   1.664   9.479  0.9680 -0.4121 -0.1684
  115OSM   H11F12082   3.119   1.635   9.416  1.5066  3.7383 -1.5276
  115OSM   H11G12083   3.056   1.749   9.545 -3.6765  1.6505 -0.9719
  115OSM   C12F12084   2.930   1.722   9.372  0.3907  0.1263  0.2333
  115OSM   H12F12085   2.966   1.810   9.315  0.4174 -0.0677 -0.0547
  115OSM   H12G12086   2.840   1.763   9.422  0.2760 -0.0352  0.1587
  115OSM   C13F12087   2.873   1.622   9.269 -0.1881  0.1074  0.4501
  115OSM   H13F12088   2.855   1.524   9.316 -1.8585 -0.5365 -1.4898
  115OSM   H13G12089   2.955   1.621   9.193  0.2486  1.0966  0.8951
  115OSM   C14F12090   2.740   1.665   9.201 -0.3927 -0.7163 -0.9535
  115OSM   H14F12091   2.691   1.748   9.257 -0.8539 -2.0335  0.6350
  115OSM   H14G12092   2.673   1.577   9.195 -4.0392  1.9968 -1.8308
  115OSM   C15F12093   2.772   1.723   9.056 -0.0389  0.5967  0.2939
  115OSM   H15F12094   2.850   1.802   9.063  2.4388 -1.7273 -0.3962
  115OSM   H15G12095   2.686   1.783   9.019 -0.8185 -1.2476 -0.9527
  115OSM   C16F12096   2.803   1.614   8.947 -0.3571 -0.2990 -0.5159
  115OSM   H16F12097   2.703   1.566   8.935 -0.4260  0.0949 -1.5553
  115OSM   H16G12098   2.874   1.536   8.982  1.0525  1.3067  0.2766
  115OSM   C17F12099   2.841   1.666   8.804  0.4875 -1.0786 -0.0799
  115OSM   H17F12100   2.846   1.589   8.724 -2.2683 -0.3207 -1.0169
  115OSM   H17G12101   2.946   1.702   8.813 -0.2685  1.0460  0.5589
  115OSM   C18F12102   2.747   1.774   8.744  0.2607 -0.8191  0.2422
  115OSM   H18F12103   2.763   1.779   8.634  2.3762  0.1136  0.5658
  115OSM   H18G12104   2.744   1.873   8.794 -3.1126  0.3550 -2.0564
  115OSM   H18H12105   2.645   1.733   8.760 -0.2554  0.1887 -0.3946
  116OSM      N12106   6.322   5.313  11.024  0.3035 -0.1640  0.1651
  116OSM    C1512107   6.307   5.412  10.912 -0.4724  0.4383  0.0587
  116OSM   H15A12108   6.244   5.369  10.836 -0.6541 -0.8497  0.9190
  116OSM   H15B12109   6.405   5.429  10.869  0.0436 -2.3119  0.0387
  116OSM   H15C12110   6.273   5.506  10.951  0.3084  0.5840  0.4068
  116OSM    C1412111   6.346   5.172  10.966 -0.3331  0.5884  0.8909
  116OSM   H14A12112   6.373   5.101  11.042 -0.4753  0.0417  0.4286
  116OSM   H14B12113   6.429   5.182  10.898 -2.1441  2.0703 -1.1920
  116OSM   H14C12114   6.261   5.138  10.910  0.7425 -0.2629 -0.2398
  116OSM    C1312115   6.441   5.351  11.110  0.0672 -0.2830 -0.7460
  116OSM   H13A12116   6.535   5.338  11.058  0.1541 -0.2821 -0.5874
  116OSM   H13B12117   6.433   5.285  11.195  2.8629  2.0278  1.3999
  116OSM   H13C12118   6.427   5.455  11.134  0.6316 -0.6218  1.1139
  116OSM    C1212119   6.187   5.311  11.109 -0.2418  0.3456 -0.3483
  116OSM   H12A12120   6.177   5.393  11.179  1.9162  1.3288 -1.1821
  116OSM   H12B12121   6.202   5.227  11.175  0.5403 -0.0164 -0.9830
  116OSM    C1112122   6.044   5.292  11.049 -0.0998  0.0273  0.2493
  116OSM   H11A12123   6.041   5.354  10.957 -0.6903 -0.5488 -0.1253
  116OSM   H11B12124   5.977   5.342  11.122  1.3733  3.9791 -0.9774
  116OSM      P12125   5.893   5.115  10.920  0.0139  0.0409  0.3774
  116OSM    O1312126   5.861   4.975  10.952 -0.1734 -0.1864 -0.3074
  116OSM    O1412127   5.781   5.208  10.935  0.0345  0.1043  0.2635
  116OSM    O1112128   5.955   5.138  10.774 -0.0727  0.2966 -0.6336
  116OSM    O1212129   6.016   5.157  11.017 -0.0301 -0.3451 -0.2292
  116OSM    C1S12130   5.947   5.031  10.674 -0.4007  0.1060 -0.1571
  116OSM    H1S12131   5.842   4.993  10.675  0.0156 -1.0382  0.9027
  116OSM    H1T12132   6.011   4.946  10.705 -2.2829 -2.9405 -4.0890
  116OSM     NF12133   5.947   4.973  10.439  0.5937 -0.7722  0.0669
  116OSM    HNF12134   6.017   4.915  10.399 -0.6213 -1.6242 -0.8337
  116OSM    C2S12135   5.984   5.077  10.533 -0.1625  0.7736  0.4838
  116OSM    H2S12136   5.936   5.175  10.510 -2.1810 -0.4364 -0.5349
  116OSM    C3S12137   6.135   5.113  10.524  0.3651  0.2270 -0.8260
  116OSM    H3S12138   6.198   5.023  10.538  2.4877  1.5927 -1.2925
  116OSM     O312139   6.167   5.211  10.629  0.0203 -0.1017  0.4495
  116OSM    HO312140   6.085   5.203  10.679 -1.0946  0.1505 -1.3070
  116OSM    C4S12141   6.163   5.173  10.395  0.0267  0.1573  0.7071
  116OSM    H4S12142   6.117   5.270  10.369  0.4743  0.3574  0.6581
  116OSM    C5S12143   6.238   5.118  10.291 -0.2602 -0.4305 -0.3633
  116OSM    H5S12144   6.268   5.012  10.289  0.2709 -0.2911  0.1850
  116OSM    C6S12145   6.239   5.180  10.154 -0.0548  0.0151 -0.9056
  116OSM    H6S12146   6.337   5.227  10.132  1.2046 -1.8388  0.5965
  116OSM    H6T12147   6.168   5.265  10.146 -0.1282 -0.2389 -3.4949
  116OSM    C7S12148   6.208   5.082  10.046  0.3425 -0.2876  0.3931
  116OSM    H7S12149   6.110   5.037  10.073  0.6089 -1.8351 -1.1001
  116OSM    H7T12150   6.286   5.003  10.053  1.0461  0.5990  3.0071
  116OSM    C8S12151   6.210   5.143   9.899  0.9318  0.9821  0.7870
  116OSM    H8S12152   6.303   5.201   9.884  1.2833  0.4727  0.9753
  116OSM    H8T12153   6.124   5.213   9.893 -1.8750 -2.2316  1.9733
  116OSM    C9S12154   6.213   5.034   9.793 -0.2092 -0.7642 -0.0488
  116OSM    H9S12155   6.121   4.973   9.809 -0.2160  0.0308  3.1027
  116OSM    H9T12156   6.302   4.969   9.802  0.9279  0.8454  0.4354
  116OSM   C10S12157   6.229   5.090   9.651 -0.0283  0.3491 -0.2010
  116OSM   H10S12158   6.336   5.117   9.638  0.4751 -1.3068  0.3490
  116OSM   H10T12159   6.174   5.187   9.652 -1.9413 -0.7089 -0.1400
  116OSM   C11S12160   6.183   4.991   9.539  0.1056  0.1915 -0.0140
  116OSM   H11S12161   6.082   4.957   9.568  0.3641  0.4548  1.2211
  116OSM   H11T12162   6.253   4.908   9.517 -0.3755  0.0190 -0.9409
  116OSM   C12S12163   6.162   5.070   9.410  0.9227  0.5592  0.3443
  116OSM   H12S12164   6.263   5.102   9.379  1.0761 -1.3880 -1.2524
  116OSM   H12T12165   6.096   5.159   9.426  0.8599  0.4368  0.7660
  116OSM   C13S12166   6.105   4.976   9.305 -0.0942  0.0503 -0.3203
  116OSM   H13S12167   6.003   4.955   9.345  0.3315 -0.9165  0.2900
  116OSM   H13T12168   6.164   4.882   9.299 -0.0076  0.1266 -0.6784
  116OSM   C14S12169   6.100   5.033   9.166 -0.2043 -0.5153  0.5050
  116OSM   H14S12170   6.204   5.049   9.130 -1.0868 -0.1485 -1.9925
  116OSM   H14T12171   6.051   5.132   9.169  1.9187  0.5350  1.1204
  116OSM   C15S12172   6.036   4.935   9.065 -0.0486 -0.2295 -0.4794
  116OSM   H15S12173   5.928   4.925   9.086  0.2187  1.5461  2.0611
  116OSM   H15T12174   6.067   4.828   9.068 -0.7062 -0.3935  1.9956
  116OSM   C16S12175   6.055   4.984   8.925  0.1283  0.3559  0.6208
  116OSM   H16S12176   6.156   4.963   8.884  0.3141 -0.1819  1.3311
  116OSM   H16T12177   6.036   5.093   8.931 -0.0271  0.3443  0.3556
  116OSM   C17S12178   5.954   4.926   8.824  0.3657 -0.0638 -0.6070
  116OSM   H17S12179   5.855   4.958   8.863  0.4361 -1.3499  0.6508
  116OSM   H17T12180   5.946   4.816   8.830 -0.4551  0.0684  0.6900
  116OSM   C18S12181   5.988   4.972   8.682  0.1283 -0.2247 -0.3915
  116OSM   H18S12182   6.015   4.885   8.619  1.1113  0.0273 -0.3350
  116OSM   H18T12183   6.065   5.052   8.672  0.6466 -0.8218 -1.3401
  116OSM   H18U12184   5.893   5.011   8.640  0.2569 -0.6227 -1.0568
  116OSM    C1F12185   5.824   4.918  10.424  0.6916 -0.4694 -0.1100
  116OSM     OF12186   5.725   4.975  10.459 -0.9102 -0.3377 -0.1875
  116OSM    C2F12187   5.813   4.783  10.353 -0.1014  0.6382 -0.3328
  116OSM    H2F12188   5.838   4.694  10.416 -1.7346 -0.0841 -0.6723
  116OSM    H2G12189   5.862   4.797  10.254 -0.1219  1.2827 -0.2495
  116OSM    C3F12190   5.675   4.736  10.295 -0.4929  0.1777  0.0012
  116OSM    H3F12191   5.643   4.821  10.231 -0.3801  0.3437  0.1624
  116OSM    H3G12192   5.611   4.702  10.378  1.6043  0.2663  1.7029
  116OSM    C4F12193   5.678   4.616  10.196  0.4077 -0.1307 -0.0083
  116OSM    H4F12194   5.571   4.596  10.178  0.8293 -1.3576 -1.2056
  116OSM    H4G12195   5.730   4.535  10.252  0.2282  0.1819  0.6161
  116OSM    C5F12196   5.739   4.642  10.058  0.0207  0.4375 -0.2156
  116OSM    H5F12197   5.846   4.667  10.066  0.7116 -2.4004 -0.1099
  116OSM    H5G12198   5.686   4.724  10.003  0.0860  2.0758  2.0734
  116OSM    C6F12199   5.731   4.509   9.974  0.8096 -0.3362  0.5500
  116OSM    H6F12200   5.640   4.453  10.006 -0.9588  0.7484 -2.3483
  116OSM    H6G12201   5.821   4.456  10.012 -0.1204 -2.0198  0.4884
  116OSM    C7F12202   5.733   4.523   9.825 -0.0512 -0.9494  0.0828
  116OSM    H7F12203   5.829   4.569   9.791  0.3496 -0.3642  1.9356
  116OSM    H7G12204   5.655   4.601   9.816  1.6984  0.5041 -3.4986
  116OSM    C8F12205   5.694   4.398   9.747 -0.0846 -0.1104 -0.5339
  116OSM    H8F12206   5.700   4.428   9.640  2.0505  2.7029  0.3035
  116OSM    H8G12207   5.588   4.370   9.761 -0.1400  0.1179 -0.4839
  116OSM    C9F12208   5.775   4.273   9.770 -0.1531  0.1603 -0.1278
  116OSM    H9F12209   5.798   4.246   9.875 -1.3198 -0.0433  0.0882
  116OSM   C10F12210   5.846   4.195   9.689 -0.0959 -0.0181  0.9243
  116OSM   H10F12211   5.892   4.104   9.730  0.0858 -0.0128  0.7360
  116OSM   C11F12212   5.841   4.211   9.537 -0.0982 -0.2338  0.1491
  116OSM   H11F12213   5.938   4.194   9.485  1.1740  0.9007  2.1133
  116OSM   H11G12214   5.809   4.311   9.499  2.2336  0.2320 -0.6613
  116OSM   C12F12215   5.751   4.109   9.473  0.1933 -0.5942 -0.5065
  116OSM   H12F12216   5.649   4.128   9.513  0.1575 -0.0291 -0.8562
  116OSM   H12G12217   5.781   4.005   9.498 -0.4803 -0.8120 -0.5929
  116OSM   C13F12218   5.744   4.123   9.318  0.1719  0.4583  0.3233
  116OSM   H13F12219   5.740   4.233   9.302  2.2535  0.2879 -1.6382
  116OSM   H13G12220   5.639   4.096   9.292  0.0670  2.6209 -1.7399
  116OSM   C14F12221   5.848   4.046   9.243  0.1678 -0.0373 -0.6202
  116OSM   H14F12222   5.843   3.937   9.265 -1.8533  0.0541 -0.4966
  116OSM   H14G12223   5.950   4.065   9.282  0.2653 -0.0055 -0.8903
  116OSM   C15F12224   5.857   4.083   9.096 -0.4192  0.2352 -0.2063
  116OSM   H15F12225   5.875   4.193   9.092  1.3458 -0.0922 -2.6859
  116OSM   H15G12226   5.754   4.081   9.055 -0.0262  0.7184 -1.2261
  116OSM   C16F12227   5.953   4.001   9.005 -0.1178  0.3508 -0.1739
  116OSM   H16F12228   5.910   3.901   8.980 -1.6045  1.1090 -0.7244
  116OSM   H16G12229   6.037   3.981   9.075 -0.3796  2.8364  0.8806
  116OSM   C17F12230   6.000   4.075   8.874 -0.4485 -0.3473  0.3847
  116OSM   H17F12231   6.095   4.037   8.832 -0.6560  1.0338 -1.3724
  116OSM   H17G12232   6.035   4.178   8.895  1.1553 -1.0169  1.0349
  116OSM   C18F12233   5.908   4.077   8.753 -0.3581 -1.1894  0.3254
  116OSM   H18F12234   5.880   3.976   8.718 -0.1796 -1.0080 -0.3466
  116OSM   H18G12235   5.947   4.134   8.666  0.3569 -0.0528  1.3801
  116OSM   H18H12236   5.813   4.132   8.771  0.8379  0.7212  1.0425
  117OSM      N12237   3.405   6.055  11.227  0.2366  0.4103 -0.0127
  117OSM    C1512238   3.463   5.935  11.294 -0.6630 -0.5505 -0.3600
  117OSM   H15A12239   3.566   5.922  11.263 -0.7293 -0.2800 -0.6903
  117OSM   H15B12240   3.409   5.844  11.274  0.8086 -1.6949  0.7176
  117OSM   H15C12241   3.452   5.944  11.401 -0.1168 -0.7383 -0.2832
  117OSM    C1412242   3.286   6.106  11.306 -0.4410 -0.4409  0.0768
  117OSM   H14A12243   3.254   6.204  11.274  0.5032 -0.8223 -2.1084
  117OSM   H14B12244   3.293   6.114  11.414  1.5663 -0.2058 -0.0392
  117OSM   H14C12245   3.198   6.045  11.296 -1.6893  1.2945  0.3652
  117OSM    C1312246   3.503   6.162  11.216 -0.9403  0.0367  0.0605
  117OSM   H13A12247   3.476   6.242  11.150  0.1935 -0.4772 -1.0373
  117OSM   H13B12248   3.591   6.117  11.173 -1.7420 -0.3183 -1.2346
  117OSM   H13C12249   3.528   6.199  11.314  0.1001 -1.4139  0.3683
  117OSM    C1212250   3.367   6.017  11.087 -0.3678  0.4650 -1.0911
  117OSM   H12A12251   3.325   6.104  11.038 -4.3706 -0.7958 -0.1340
  117OSM   H12B12252   3.283   5.950  11.100  0.2462 -0.1143 -0.0237
  117OSM    C1112253   3.467   5.964  10.995  0.1800 -0.3928  0.2022
  117OSM   H11A12254   3.566   6.011  11.013 -0.0110  0.6696 -1.4313
  117OSM   H11B12255   3.411   5.979  10.900 -0.8386 -1.9587  0.5270
  117OSM      P12256   3.391   5.712  10.946 -0.0969  0.3317  0.0404
  117OSM    O1312257   3.420   5.579  11.006  0.5671 -0.3409 -0.3904
  117OSM    O1412258   3.250   5.760  10.947 -0.8937 -0.3809 -0.1275
  117OSM    O1112259   3.432   5.704  10.790 -0.0811 -0.0223  0.4591
  117OSM    O1212260   3.485   5.821  11.009 -0.8923  0.6039 -0.2496
  117OSM    C1S12261   3.569   5.740  10.756  0.1214 -0.5913 -0.5994
  117OSM    H1S12262   3.640   5.658  10.782  1.0646 -0.6867 -3.3182
  117OSM    H1T12263   3.608   5.834  10.801  0.1425 -0.6795 -0.4321
  117OSM     NF12264   3.733   5.815  10.601  0.3308  0.1358 -0.1229
  117OSM    HNF12265   3.757   5.912  10.594  2.1305 -0.2868 -0.0333
  117OSM    C2S12266   3.596   5.776  10.608  0.1253  0.4297 -0.3159
  117OSM    H2S12267   3.566   5.680  10.562  2.4127  0.8371 -2.7593
  117OSM    C3S12268   3.503   5.887  10.563  0.1182  0.2253 -1.3097
  117OSM    H3S12269   3.506   5.975  10.630 -0.3823 -0.4576 -0.3688
  117OSM     O312270   3.370   5.843  10.565 -0.4379  0.1250 -0.7033
  117OSM    HO312271   3.375   5.773  10.630 -0.3331  1.0917  0.3490
  117OSM    C4S12272   3.540   5.928  10.422  0.1122 -0.0004  0.1219
  117OSM    H4S12273   3.606   6.015  10.415  1.6073 -1.1551 -0.6027
  117OSM    C5S12274   3.502   5.866  10.307 -0.0777  0.2636 -0.7088
  117OSM    H5S12275   3.443   5.773  10.313 -0.1768  0.2069 -2.3786
  117OSM    C6S12276   3.546   5.911  10.168 -0.0036 -0.3292 -0.0536
  117OSM    H6S12277   3.502   6.007  10.135  2.1286  1.2454  1.6076
  117OSM    H6T12278   3.498   5.839  10.097  1.4640 -0.3961 -0.9974
  117OSM    C7S12279   3.700   5.927  10.152  0.3280  0.1314  0.2940
  117OSM    H7S12280   3.758   5.839  10.187  1.4997  0.3251 -1.1424
  117OSM    H7T12281   3.730   6.019  10.207 -2.8653  0.7642  1.0853
  117OSM    C8S12282   3.732   5.957  10.003  0.5462 -0.6562  0.6381
  117OSM    H8S12283   3.838   5.988   9.989 -0.2814  1.5925 -0.8582
  117OSM    H8T12284   3.671   6.047   9.981  0.9197 -0.4091  0.6055
  117OSM    C9S12285   3.706   5.842   9.904 -0.2179  0.3936 -0.4122
  117OSM    H9S12286   3.597   5.816   9.905 -0.6174  2.0240 -1.1393
  117OSM    H9T12287   3.768   5.756   9.937  2.0681  2.2290  0.2057
  117OSM   C10S12288   3.751   5.878   9.763  0.8678 -0.2633 -0.0658
  117OSM   H10S12289   3.733   5.790   9.698  0.8119  0.9263 -1.6883
  117OSM   H10T12290   3.858   5.905   9.775  0.3165  1.8822  0.2762
  117OSM   C11S12291   3.667   6.007   9.705 -0.2969  0.8976 -0.6997
  117OSM   H11S12292   3.729   6.097   9.725  0.6843 -0.6521  3.8751
  117OSM   H11T12293   3.574   6.003   9.766  0.6017 -2.5033  0.5530
  117OSM   C12S12294   3.629   5.997   9.558  0.6268  0.1935  0.3347
  117OSM   H12S12295   3.552   6.072   9.534  1.0079  1.3241  2.5485
  117OSM   H12T12296   3.580   5.902   9.527  0.2221  1.7752 -4.2383
  117OSM   C13S12297   3.753   6.027   9.472 -0.8070  0.4045 -0.1811
  117OSM   H13S12298   3.834   5.957   9.502  0.4514  2.0384  0.3553
  117OSM   H13T12299   3.785   6.129   9.503  2.6326 -0.7347  0.2968
  117OSM   C14S12300   3.707   6.021   9.327  0.6201  0.5965  0.1839
  117OSM   H14S12301   3.629   6.093   9.295 -0.8665  0.4611  3.4105
  117OSM   H14T12302   3.667   5.917   9.321  2.4255  0.0295 -3.8593
  117OSM   C15S12303   3.818   6.024   9.219  0.4112  0.2219  0.0898
  117OSM   H15S12304   3.894   5.946   9.238 -1.9753 -2.1506  0.1172
  117OSM   H15T12305   3.868   6.122   9.200 -0.8589  0.6420 -1.2328
  117OSM   C16S12306   3.762   5.979   9.084 -0.7770  0.8342  0.2341
  117OSM   H16S12307   3.666   6.028   9.056 -0.5214  2.4900  2.1196
  117OSM   H16T12308   3.742   5.871   9.100  2.0365  0.1540 -0.6090
  117OSM   C17S12309   3.856   5.987   8.965 -0.0394  0.2542  0.6537
  117OSM   H17S12310   3.953   5.940   8.990  0.4104  1.3298  0.9949
  117OSM   H17T12311   3.871   6.097   8.953 -0.5714 -0.0218 -2.9792
  117OSM   C18S12312   3.802   5.942   8.825  0.3660  0.1969 -0.6138
  117OSM   H18S12313   3.697   5.974   8.812  0.7612  0.2625 -3.8842
  117OSM   H18T12314   3.802   5.832   8.813  2.9051  0.3137 -1.9097
  117OSM   H18U12315   3.865   5.989   8.746  0.8145 -0.7611 -0.8252
  117OSM    C1F12316   3.836   5.727  10.594  0.6591  0.9644 -0.0419
  117OSM     OF12317   3.807   5.610  10.572  0.0694 -0.2691 -0.3593
  117OSM    C2F12318   3.971   5.773  10.617 -0.1227  0.2523  0.4270
  117OSM    H2F12319   4.001   5.748  10.721 -1.3429 -0.3276  0.6564
  117OSM    H2G12320   3.966   5.884  10.608 -3.1466  0.0447 -1.0161
  117OSM    C3F12321   4.072   5.731  10.500 -0.3225 -0.3322 -0.2535
  117OSM    H3F12322   4.099   5.623  10.512  2.3953  0.2916 -0.3422
  117OSM    H3G12323   4.158   5.799  10.517  0.3633 -1.5030  1.0325
  117OSM    C4F12324   4.014   5.754  10.355  0.6042  0.3007  0.4433
  117OSM    H4F12325   3.974   5.858  10.352 -0.8671 -0.3063 -2.4820
  117OSM    H4G12326   3.931   5.683  10.339 -0.3549  1.2899  0.9818
  117OSM    C5F12327   4.116   5.736  10.242 -0.4257  0.7202 -0.1501
  117OSM    H5F12328   4.136   5.627  10.248 -2.1089  0.3445 -0.9471
  117OSM    H5G12329   4.209   5.793  10.264  1.5913 -1.8536 -1.7060
  117OSM    C6F12330   4.057   5.755  10.107 -0.0068  0.2881 -0.0638
  117OSM    H6F12331   4.045   5.864  10.089 -1.5894  0.1856  0.2528
  117OSM    H6G12332   3.958   5.707  10.093  0.2483 -0.7512  1.4815
  117OSM    C7F12333   4.148   5.703   9.997 -0.7169  0.5024  0.9426
  117OSM    H7F12334   4.177   5.596  10.001  2.2639  1.1122 -1.7869
  117OSM    H7G12335   4.248   5.751  10.005  0.4484 -0.9584 -3.2497
  117OSM    C8F12336   4.096   5.729   9.857  0.3201 -0.9476  0.6883
  117OSM    H8F12337   4.067   5.836   9.848  0.3124 -1.1613 -2.2514
  117OSM    H8G12338   4.004   5.668   9.842  0.6919 -1.0532 -1.3601
  117OSM    C9F12339   4.204   5.707   9.754  1.1629 -0.4788  0.1060
  117OSM    H9F12340   4.303   5.740   9.788  0.1440  2.4536  0.3274
  117OSM   C10F12341   4.189   5.646   9.638 -0.4354 -0.6154 -0.1005
  117OSM   H10F12342   4.282   5.615   9.589  1.2552  2.9861  0.6671
  117OSM   C11F12343   4.058   5.600   9.581  0.5725 -0.3717  0.2763
  117OSM   H11F12344   3.969   5.623   9.643 -1.2004 -3.2235 -1.0742
  117OSM   H11G12345   4.055   5.489   9.581  0.3008 -0.3710  2.1209
  117OSM   C12F12346   4.023   5.657   9.451 -0.0992 -0.3610 -0.4271
  117OSM   H12F12347   4.027   5.768   9.458  0.5090 -0.3204 -1.3229
  117OSM   H12G12348   3.918   5.625   9.432 -0.8628 -0.0012  2.8976
  117OSM   C13F12349   4.132   5.614   9.344 -0.1689 -0.6035  0.7595
  117OSM   H13F12350   4.129   5.505   9.324 -0.2912 -0.4482 -0.0811
  117OSM   H13G12351   4.234   5.643   9.380  0.9966 -1.5506 -1.6406
  117OSM   C14F12352   4.101   5.682   9.205 -0.0740 -0.0402 -0.7204
  117OSM   H14F12353   4.135   5.787   9.194  1.9283 -0.6194 -0.2458
  117OSM   H14G12354   3.991   5.693   9.197 -0.2060 -1.1629 -0.5436
  117OSM   C15F12355   4.156   5.611   9.079 -0.3003 -0.4262  0.1561
  117OSM   H15F12356   4.103   5.517   9.053  2.4697 -1.4877 -1.9489
  117OSM   H15G12357   4.252   5.565   9.110  0.3304 -0.1192 -1.2771
  117OSM   C16F12358   4.167   5.716   8.961  0.1337 -0.1168  0.4911
  117OSM   H16F12359   4.234   5.795   9.000 -0.3650  0.5906 -0.0666
  117OSM   H16G12360   4.066   5.760   8.946  0.7155  0.4433 -1.8269
  117OSM   C17F12361   4.216   5.651   8.833  0.0330  0.6686  0.1463
  117OSM   H17F12362   4.301   5.590   8.872  1.5387  0.3728 -3.4023
  117OSM   H17G12363   4.252   5.732   8.766  0.2954 -0.1437 -0.7038
  117OSM   C18F12364   4.106   5.573   8.769 -0.3893  0.4560  0.5038
  117OSM   H18F12365   4.117   5.473   8.815 -0.3145  0.4557  0.4844
  117OSM   H18G12366   4.119   5.559   8.660 -2.6937 -0.2356  0.2875
  117OSM   H18H12367   4.002   5.611   8.783 -1.2523 -1.0766 -1.5241
  118OSM      N12368   3.701   0.567  11.172  0.3356  0.4990 -0.7900
  118OSM    C1512369   3.813   0.606  11.254  0.2695 -0.5693 -0.1859
  118OSM   H15A12370   3.814   0.714  11.259  0.3819 -0.5861  0.1065
  118OSM   H15B12371   3.910   0.572  11.221 -0.0098 -0.4716 -1.1431
  118OSM   H15C12372   3.807   0.573  11.356 -0.6637  0.7858  0.2127
  118OSM    C1412373   3.714   0.415  11.158  0.3653 -0.2031  0.1032
  118OSM   H14A12374   3.772   0.376  11.076 -0.2799  1.6917 -1.2672
  118OSM   H14B12375   3.617   0.367  11.148  0.8393 -0.8241 -1.7126
  118OSM   H14C12376   3.761   0.371  11.245 -0.9265 -0.5819  0.6262
  118OSM    C1312377   3.569   0.595  11.237  0.3833  0.7789 -0.0923
  118OSM   H13A12378   3.559   0.700  11.259  1.9737  1.3937 -2.1381
  118OSM   H13B12379   3.554   0.545  11.331 -0.6789  0.7072 -0.2870
  118OSM   H13C12380   3.487   0.566  11.173  0.4836 -1.0262  0.5795
  118OSM    C1212381   3.698   0.630  11.034  0.1894 -0.5032  0.0148
  118OSM   H12A12382   3.614   0.592  10.977  0.0479  1.4365 -1.1251
  118OSM   H12B12383   3.787   0.594  10.984 -0.2442  1.7171 -2.4724
  118OSM    C1112384   3.710   0.784  11.025  0.5668 -0.5458  0.2995
  118OSM   H11A12385   3.624   0.830  11.080  1.6087 -0.2451  1.6930
  118OSM   H11B12386   3.696   0.832  10.925 -0.6142 -3.2434 -0.8734
  118OSM      P12387   3.963   0.810  11.009  0.2629  0.4843 -0.1828
  118OSM    O1312388   4.008   0.944  10.986 -0.7908 -0.2411  0.2807
  118OSM    O1412389   4.050   0.708  11.077 -0.1893  0.4851  0.0335
  118OSM    O1112390   3.915   0.743  10.876 -0.6965 -0.1282  1.1129
  118OSM    O1212391   3.826   0.825  11.089  0.2404 -0.2101  0.3798
  118OSM    C1S12392   3.967   0.790  10.749 -0.6400 -0.0567  0.0122
  118OSM    H1S12393   4.075   0.818  10.750 -0.5146 -0.2510 -2.9258
  118OSM    H1T12394   3.911   0.880  10.716  0.5154  0.8990  0.5940
  118OSM     NF12395   4.013   0.743  10.513 -0.9914  0.5515  0.7588
  118OSM    HNF12396   3.950   0.776  10.444 -0.6248 -1.0413 -0.3722
  118OSM    C2S12397   3.958   0.685  10.631 -0.2467 -0.4781  0.6820
  118OSM    H2S12398   4.016   0.593  10.651  1.3144  0.6751  1.5799
  118OSM    C3S12399   3.799   0.649  10.616 -0.0390 -0.4771  0.3074
  118OSM    H3S12400   3.739   0.739  10.590  1.4123  0.7680  1.2289
  118OSM     O312401   3.740   0.615  10.740  0.3128  0.2771  0.1332
  118OSM    HO312402   3.793   0.662  10.804 -0.3337 -1.0169  1.6537
  118OSM    C4S12403   3.784   0.553  10.496  0.6565 -0.0542 -0.8358
  118OSM    H4S12404   3.763   0.598  10.398 -0.8140 -1.7110 -1.3085
  118OSM    C5S12405   3.770   0.417  10.502  0.1720  0.2975  0.4042
  118OSM    H5S12406   3.781   0.369  10.600  0.2969 -0.6738 -0.0807
  118OSM    C6S12407   3.739   0.319  10.393 -0.3721  0.0945  0.4107
  118OSM    H6S12408   3.636   0.278  10.391 -0.2498 -0.1509 -1.4670
  118OSM    H6T12409   3.794   0.225  10.410 -0.8500 -0.2077  0.2951
  118OSM    C7S12410   3.778   0.387  10.258  0.1753 -0.1359  0.2361
  118OSM    H7S12411   3.875   0.441  10.259 -1.3560  2.7212 -0.2449
  118OSM    H7T12412   3.693   0.454  10.234 -1.9621 -2.6851  0.4273
  118OSM    C8S12413   3.783   0.290  10.140 -0.2651  0.7813  0.5841
  118OSM    H8S12414   3.692   0.226  10.148  0.9473 -0.8377  1.7916
  118OSM    H8T12415   3.880   0.238  10.153  0.6512  1.4834 -2.9441
  118OSM    C9S12416   3.784   0.366  10.007 -0.5821  0.0387 -0.9815
  118OSM    H9S12417   3.834   0.465  10.009 -0.8902  0.1743  1.3210
  118OSM    H9T12418   3.680   0.383   9.973 -1.6207 -0.3788  1.8654
  118OSM   C10S12419   3.840   0.264   9.903 -0.4433 -0.3044 -0.2839
  118OSM   H10S12420   3.788   0.166   9.913 -1.4894  0.3426  0.8208
  118OSM   H10T12421   3.948   0.242   9.915 -0.3506  0.6132  0.6338
  118OSM   C11S12422   3.822   0.313   9.763 -0.3937  0.5696  0.3187
  118OSM   H11S12423   3.866   0.413   9.744 -0.0297  0.2681 -0.4608
  118OSM   H11T12424   3.713   0.322   9.748 -0.4912 -0.0028  0.6956
  118OSM   C12S12425   3.891   0.224   9.652  0.0710  0.3489  0.3844
  118OSM   H12S12426   3.862   0.117   9.661  0.5128  0.2389  0.5158
  118OSM   H12T12427   4.002   0.220   9.657  0.0201 -2.2158  0.2258
  118OSM   C13S12428   3.862   0.277   9.509 -0.0983 -0.8796  1.0609
  118OSM   H13S12429   3.904   0.380   9.508 -3.1818  0.4543 -2.4269
  118OSM   H13T12430   3.752   0.281   9.495  0.1422  1.1307 -0.5021
  118OSM   C14S12431   3.921   0.182   9.404  0.4698 -0.5224  0.2827
  118OSM   H14S12432   3.901   0.075   9.425 -3.1802  0.1970  0.8668
  118OSM   H14T12433   4.031   0.198   9.403  0.5837 -1.2940 -3.2320
  118OSM   C15S12434   3.872   0.231   9.266 -0.1542  0.0314  0.6571
  118OSM   H15S12435   3.930   0.324   9.248  0.5255 -0.4718  0.2314
  118OSM   H15T12436   3.765   0.256   9.281  0.1923 -0.0368  3.5642
  118OSM   C16S12437   3.900   0.130   9.153 -0.2358 -0.0896  1.1781
  118OSM   H16S12438   3.850   0.034   9.179 -0.4949 -0.1471  0.4868
  118OSM   H16T12439   4.009   0.112   9.142 -0.3486 -0.0325 -0.0846
  118OSM   C17S12440   3.840   0.172   9.019 -0.2305  0.3029 -0.2545
  118OSM   H17S12441   3.740   0.209   9.048 -1.3874 -1.9553 -1.2074
  118OSM   H17T12442   3.834   0.083   8.952 -0.5955 -0.2909  0.5541
  118OSM   C18S12443   3.921   0.281   8.948 -0.3088 -0.6661 -0.0512
  118OSM   H18S12444   3.877   0.309   8.850 -0.9703  1.2689  0.7645
  118OSM   H18T12445   4.025   0.242   8.942 -0.9399 -2.0538 -2.6801
  118OSM   H18U12446   3.915   0.370   9.014 -0.4928  0.9125 -2.1478
  118OSM    C1F12447   4.138   0.765  10.494 -1.0539 -0.6933  1.2594
  118OSM     OF12448   4.218   0.716  10.572 -0.0413 -0.3679 -0.3022
  118OSM    C2F12449   4.176   0.862  10.387  0.2397  0.9375  0.0761
  118OSM    H2F12450   4.212   0.951  10.442 -1.0481  0.9063  0.9948
  118OSM    H2G12451   4.092   0.874  10.316 -0.2782 -1.1679  0.2739
  118OSM    C3F12452   4.297   0.815  10.308 -0.5739  0.6409 -0.3341
  118OSM    H3F12453   4.374   0.800  10.387  0.7197  1.9881 -1.2965
  118OSM    H3G12454   4.335   0.884  10.229 -1.4993  0.0962 -1.2686
  118OSM    C4F12455   4.276   0.681  10.242 -0.4081  0.2572 -0.1321
  118OSM    H4F12456   4.236   0.605  10.313  0.6133  1.0139  1.2706
  118OSM    H4G12457   4.373   0.645  10.202 -0.5280  0.7671 -0.9128
  118OSM    C5F12458   4.176   0.685  10.122 -0.3560  1.0780  0.2352
  118OSM    H5F12459   4.212   0.761  10.048  0.6190  0.5100  0.1173
  118OSM    H5G12460   4.073   0.706  10.159 -0.0010 -0.5330  2.2101
  118OSM    C6F12461   4.177   0.550  10.035 -0.3741  0.0043  0.2180
  118OSM    H6F12462   4.128   0.474  10.099 -1.9357 -0.1966 -1.1577
  118OSM    H6G12463   4.283   0.536  10.006  0.3997  2.0686  1.9640
  118OSM    C7F12464   4.092   0.583   9.909 -0.6070 -0.9569 -0.3712
  118OSM    H7F12465   4.096   0.692   9.891  0.7365 -0.9395 -0.0728
  118OSM    H7G12466   3.985   0.565   9.932 -1.0654  1.2199 -0.7010
  118OSM    C8F12467   4.127   0.491   9.784 -0.6867  0.5779 -0.4312
  118OSM    H8F12468   4.046   0.517   9.712 -0.8346 -0.8259 -0.7810
  118OSM    H8G12469   4.120   0.383   9.809  0.6762  0.6013  0.0653
  118OSM    C9F12470   4.257   0.540   9.723 -0.4200  0.3596 -0.3673
  118OSM    H9F12471   4.343   0.541   9.792 -0.9338 -0.4049  0.2975
  118OSM   C10F12472   4.280   0.579   9.600  0.0716  0.5281 -0.4128
  118OSM   H10F12473   4.384   0.598   9.571 -0.0264 -0.7620 -1.7181
  118OSM   C11F12474   4.190   0.587   9.479  0.1722 -0.4967 -0.1995
  118OSM   H11F12475   4.215   0.686   9.436  1.1328 -0.7963 -0.3447
  118OSM   H11G12476   4.081   0.573   9.499 -0.0677  1.5690  0.0538
  118OSM   C12F12477   4.225   0.470   9.381 -0.5572 -0.1309  0.7071
  118OSM   H12F12478   4.186   0.376   9.426  0.2413 -1.0746 -0.5639
  118OSM   H12G12479   4.334   0.451   9.372 -0.4407  0.4614  0.8315
  118OSM   C13F12480   4.173   0.487   9.237  0.1446 -0.4954  0.0348
  118OSM   H13F12481   4.209   0.584   9.197  1.9927 -2.2148 -2.6439
  118OSM   H13G12482   4.064   0.506   9.243  0.0290 -1.3669  0.9015
  118OSM   C14F12483   4.208   0.387   9.118 -0.4479 -0.4703  0.4423
  118OSM   H14F12484   4.202   0.436   9.018  2.0904  0.5987  0.7652
  118OSM   H14G12485   4.164   0.285   9.119  3.6977 -2.3732 -1.1528
  118OSM   C15F12486   4.354   0.349   9.129  0.1633  1.2679  0.6509
  118OSM   H15F12487   4.363   0.291   9.223 -2.2824  0.3304  0.3505
  118OSM   H15G12488   4.427   0.433   9.124  2.4401 -0.7080 -0.8529
  118OSM   C16F12489   4.393   0.271   9.001  0.4682  0.1486 -0.2795
  118OSM   H16F12490   4.407   0.341   8.916 -0.3871  0.4942 -0.1430
  118OSM   H16G12491   4.318   0.190   8.989 -0.0751  0.6925 -0.5629
  118OSM   C17F12492   4.530   0.197   9.001  0.2307 -0.1789 -0.2979
  118OSM   H17F12493   4.557   0.141   8.909  0.4751 -0.5058 -0.0268
  118OSM   H17G12494   4.518   0.125   9.084  1.3641 -0.3915 -0.3081
  118OSM   C18F12495   4.641   0.302   9.022 -0.2217  0.6147 -0.1633
  118OSM   H18F12496   4.663   0.307   9.131 -0.6306 -0.0417 -0.0485
  118OSM   H18G12497   4.627   0.406   8.984 -1.0473  0.3276 -0.6552
  118OSM   H18H12498   4.734   0.270   8.970  0.2146 -0.2672  1.1230
  119OSM      N12499   4.887   6.293  11.408  0.0944 -0.0936 -0.1494
  119OSM    C1512500   4.948   6.290  11.545 -0.2568  0.5689  0.4124
  119OSM   H15A12501   4.959   6.388  11.589 -1.1978 -0.4904  3.0592
  119OSM   H15B12502   5.047   6.247  11.543 -1.4250 -2.2135 -0.3814
  119OSM   H15C12503   4.885   6.241  11.618  1.2902  0.9351  2.0194
  119OSM    C1412504   4.745   6.344  11.426 -0.0296 -0.3702  0.0661
  119OSM   H14A12505   4.745   6.443  11.469 -2.1149  0.0942 -0.9412
  119OSM   H14B12506   4.696   6.276  11.494  2.2419  0.4382  2.5811
  119OSM   H14C12507   4.691   6.349  11.333  0.0937 -1.0235 -0.0427
  119OSM    C1312508   4.962   6.389  11.326 -0.5869 -0.0425 -0.3228
  119OSM   H13A12509   4.955   6.485  11.375 -3.1781  0.1663 -1.0163
  119OSM   H13B12510   4.910   6.401  11.232 -1.0830 -2.9508 -0.4665
  119OSM   H13C12511   5.064   6.356  11.318 -0.6814 -0.0239 -1.8916
  119OSM    C1212512   4.885   6.154  11.343 -0.3594 -0.3929 -0.2461
  119OSM   H12A12513   4.828   6.094  11.412  1.1365 -0.5356  0.9013
  119OSM   H12B12514   4.989   6.126  11.331 -0.4158  0.3766 -2.9886
  119OSM    C1112515   4.818   6.155  11.197 -0.3358 -0.4243  0.4605
  119OSM   H11A12516   4.819   6.048  11.166 -0.1268 -0.3613  0.2502
  119OSM   H11B12517   4.892   6.202  11.129  0.8933 -0.8560  1.4641
  119OSM      P12518   4.655   6.317  11.075 -0.8131 -0.0367 -0.1081
  119OSM    O1312519   4.511   6.311  11.045  0.2551 -0.8266 -0.4940
  119OSM    O1412520   4.705   6.440  11.141 -0.2468  0.3286 -0.2993
  119OSM    O1112521   4.742   6.299  10.943  0.6682  0.4582 -0.1686
  119OSM    O1212522   4.686   6.206  11.178 -0.3455  0.1834 -0.3956
  119OSM    C1S12523   4.709   6.196  10.845  0.5331 -0.8417  0.0810
  119OSM    H1S12524   4.606   6.159  10.863  1.1441 -2.2718  0.7180
  119OSM    H1T12525   4.776   6.109  10.863 -0.5228 -1.7688 -0.4331
  119OSM     NF12526   4.647   6.125  10.615  0.3591  0.7369 -0.2954
  119OSM    HNF12527   4.700   6.049  10.578  0.2622  0.9214 -0.8161
  119OSM    C2S12528   4.720   6.230  10.693 -0.1504  0.4000 -0.4850
  119OSM    H2S12529   4.681   6.329  10.661 -2.6372  0.5442  2.6917
  119OSM    C3S12530   4.867   6.234  10.654 -0.4615 -0.2525 -0.1052
  119OSM    H3S12531   4.904   6.131  10.669  0.5703 -0.0946 -1.5024
  119OSM     O312532   4.943   6.316  10.747 -0.1487  0.1804 -0.2051
  119OSM    HO312533   4.885   6.313  10.824  1.7583  1.5943  1.3062
  119OSM    C4S12534   4.892   6.292  10.516 -0.3810  0.2735 -0.8362
  119OSM    H4S12535   4.862   6.395  10.495 -0.1587  0.5443  0.1650
  119OSM    C5S12536   4.973   6.240  10.418  0.0066 -0.0197 -0.4232
  119OSM    H5S12537   5.024   6.144  10.437 -0.5788 -0.3075 -0.3104
  119OSM    C6S12538   4.998   6.307  10.289 -0.1817 -0.2260 -0.1327
  119OSM    H6S12539   5.105   6.335  10.278 -1.0200  2.0498 -3.1307
  119OSM    H6T12540   4.951   6.408  10.295 -0.5016 -0.3029 -1.3163
  119OSM    C7S12541   4.939   6.221  10.181  0.2705 -0.2454 -0.5688
  119OSM    H7S12542   4.935   6.275  10.084 -1.6153 -0.0136 -0.3735
  119OSM    H7T12543   4.837   6.186  10.205  0.5736  0.8053  2.4465
  119OSM    C8S12544   5.032   6.096  10.152  0.0290 -0.1334 -0.4163
  119OSM    H8S12545   5.030   6.027  10.239 -1.2361  0.6342  0.1734
  119OSM    H8T12546   5.137   6.126  10.131  0.5400 -1.4651  0.1864
  119OSM    C9S12547   4.992   6.010  10.032 -0.0511  0.9397 -0.0174
  119OSM    H9S12548   4.992   6.078   9.944 -0.6724  2.0547  0.8314
  119OSM    H9T12549   4.886   5.983  10.053  0.6586 -2.0711 -0.0349
  119OSM   C10S12550   5.076   5.887   9.988  1.1997  0.0948 -0.0188
  119OSM   H10S12551   5.066   5.813  10.070  0.3617  1.6644  1.3249
  119OSM   H10T12552   5.182   5.920   9.989  1.1768  0.2918  3.1967
  119OSM   C11S12553   5.026   5.814   9.865  0.4071  0.6211 -0.2774
  119OSM   H11S12554   4.918   5.793   9.878  0.7077 -0.7473  0.1333
  119OSM   H11T12555   5.069   5.713   9.846 -1.0319  0.0984 -0.7847
  119OSM   C12S12556   5.062   5.877   9.726 -0.2213 -0.0339 -0.0620
  119OSM   H12S12557   5.173   5.877   9.714 -0.2221  1.7005 -0.2627
  119OSM   H12T12558   5.028   5.982   9.739  0.1504 -0.0399  1.1085
  119OSM   C13S12559   5.005   5.802   9.610  0.5609  0.5362 -0.0351
  119OSM   H13S12560   4.896   5.782   9.621  0.6393  0.2102  0.1662
  119OSM   H13T12561   5.054   5.702   9.608  3.4534  1.9299 -0.8813
  119OSM   C14S12562   5.025   5.878   9.475  0.3462 -0.2557  0.1164
  119OSM   H14S12563   5.135   5.869   9.462  0.1920  1.0770 -2.2406
  119OSM   H14T12564   4.993   5.984   9.477 -2.7822 -1.1656  0.5760
  119OSM   C15S12565   4.960   5.806   9.362  0.5286  0.0528 -0.5039
  119OSM   H15S12566   4.858   5.838   9.332 -0.4792 -2.4890  0.0764
  119OSM   H15T12567   4.951   5.698   9.386  1.3345  0.4783  1.8145
  119OSM   C16S12568   5.043   5.802   9.231  0.7743  0.3077 -0.8073
  119OSM   H16S12569   5.137   5.753   9.263  0.7618 -0.2977 -1.7195
  119OSM   H16T12570   5.059   5.908   9.201 -1.3132  0.3455 -1.8780
  119OSM   C17S12571   4.965   5.737   9.120 -0.2224 -0.1369 -0.1347
  119OSM   H17S12572   4.878   5.803   9.099  0.5149  1.4421  1.6763
  119OSM   H17T12573   4.931   5.638   9.157 -0.9079  0.9213  2.2019
  119OSM   C18S12574   5.052   5.705   9.004 -0.6031  0.0330  0.5325
  119OSM   H18S12575   5.131   5.632   9.030 -0.0436 -0.3892 -2.1927
  119OSM   H18T12576   5.091   5.798   8.957  0.2727 -1.2993 -1.4408
  119OSM   H18U12577   4.995   5.658   8.920  2.7514 -1.9668 -0.6986
  119OSM    C1F12578   4.516   6.119  10.616  0.7512  0.3051  0.8683
  119OSM     OF12579   4.453   6.206  10.673 -0.4528 -0.5383  0.0417
  119OSM    C2F12580   4.449   5.995  10.560  0.4168  0.6577  0.3113
  119OSM    H2F12581   4.387   5.944  10.637  2.6642 -0.5935  1.3573
  119OSM    H2G12582   4.527   5.927  10.519 -0.8280  0.2533 -1.4277
  119OSM    C3F12583   4.346   6.043  10.454  0.1959  0.4776  0.8599
  119OSM    H3F12584   4.288   6.125  10.499  3.2127  2.2916  1.6024
  119OSM    H3G12585   4.273   5.966  10.423  0.7603  1.1634 -2.3573
  119OSM    C4F12586   4.409   6.108  10.323  0.3246 -0.2235 -0.6945
  119OSM    H4F12587   4.509   6.150  10.348 -0.3127  0.9863 -0.1450
  119OSM    H4G12588   4.347   6.196  10.297 -0.0565  0.0035  0.8839
  119OSM    C5F12589   4.422   6.012  10.205  0.6298 -0.4954 -0.4049
  119OSM    H5F12590   4.317   5.987  10.177  0.3352  0.6284 -0.3173
  119OSM    H5G12591   4.472   5.919  10.241  0.1998 -0.2743  0.7925
  119OSM    C6F12592   4.506   6.080  10.094 -0.7252  0.0714  0.6665
  119OSM    H6F12593   4.611   6.097  10.128 -0.8925  0.4355  1.0102
  119OSM    H6G12594   4.468   6.183  10.075 -0.4550  0.4009  1.8564
  119OSM    C7F12595   4.514   5.980   9.972  0.3509 -0.1541  0.3583
  119OSM    H7F12596   4.409   5.972   9.936  0.3263  2.8222 -0.3999
  119OSM    H7G12597   4.537   5.880  10.014  2.6491  0.1493 -0.1516
  119OSM    C8F12598   4.601   6.046   9.870 -0.1988  0.8181  0.3401
  119OSM    H8F12599   4.694   6.084   9.916  0.8741  0.1284 -1.1893
  119OSM    H8G12600   4.561   6.135   9.816  1.7485  1.5217  0.0221
  119OSM    C9F12601   4.652   5.939   9.774 -0.6872  0.2157  0.5516
  119OSM    H9F12602   4.718   5.863   9.820  0.8835  3.0722  3.1949
  119OSM   C10F12603   4.619   5.920   9.640  0.0634 -0.4946 -0.3319
  119OSM   H10F12604   4.664   5.832   9.591 -0.7489 -0.0378 -1.9283
  119OSM   C11F12605   4.522   6.005   9.558 -0.2330 -0.0570  0.5019
  119OSM   H11F12606   4.442   6.050   9.620  0.3881 -0.6758  1.7644
  119OSM   H11G12607   4.467   5.940   9.487 -1.2467  2.0596 -0.6826
  119OSM   C12F12608   4.589   6.124   9.493 -0.3308 -0.1381  0.4654
  119OSM   H12F12609   4.655   6.182   9.562  1.9085 -0.5922 -1.2453
  119OSM   H12G12610   4.517   6.204   9.467  1.2114  0.8229 -0.9210
  119OSM   C13F12611   4.678   6.089   9.371 -0.0143  0.0565  0.6233
  119OSM   H13F12612   4.615   6.033   9.298  0.5187  1.0831 -0.6370
  119OSM   H13G12613   4.733   6.004   9.417 -0.7576 -0.9864 -0.3832
  119OSM   C14F12614   4.754   6.202   9.305  0.0507 -0.1519 -0.0331
  119OSM   H14F12615   4.833   6.238   9.374  2.1470  0.7078 -2.8078
  119OSM   H14G12616   4.691   6.287   9.273 -1.4888 -1.7312 -1.3025
  119OSM   C15F12617   4.833   6.145   9.183  0.7835  0.3860  0.5129
  119OSM   H15F12618   4.765   6.076   9.129  1.9193 -1.3241  1.2285
  119OSM   H15G12619   4.925   6.098   9.224  0.4669 -0.7720 -0.0802
  119OSM   C16F12620   4.889   6.264   9.098  0.5138  0.3945 -0.2790
  119OSM   H16F12621   4.941   6.340   9.160  0.5941  1.7395 -1.9618
  119OSM   H16G12622   4.795   6.314   9.067  0.3654 -0.8101 -1.8028
  119OSM   C17F12623   4.971   6.241   8.971  0.0734  0.9400 -0.0684
  119OSM   H17F12624   4.895   6.182   8.917 -0.2955 -1.4284  2.9254
  119OSM   H17G12625   5.055   6.172   8.993 -0.8801 -0.1514  0.1505
  119OSM   C18F12626   5.006   6.366   8.893  0.7320  0.8613 -0.0783
  119OSM   H18F12627   5.095   6.411   8.943  0.9920  1.7360 -1.3013
  119OSM   H18G12628   4.929   6.445   8.902  0.8565  1.0049 -0.2821
  119OSM   H18H12629   5.043   6.351   8.789  2.5002  1.9568  0.3514
  120OSM      N12630   3.953   3.289  10.746 -0.2825 -0.3805  0.3610
  120OSM    C1512631   3.828   3.208  10.779 -0.1960  0.0366 -0.1683
  120OSM   H15A12632   3.816   3.200  10.886 -1.1918 -2.2697 -0.4204
  120OSM   H15B12633   3.849   3.107  10.747  0.3010 -0.0735  0.4942
  120OSM   H15C12634   3.739   3.247  10.732 -0.1388  1.8437  1.1782
  120OSM    C1412635   4.071   3.247  10.837 -0.1128 -0.0331 -0.1266
  120OSM   H14A12636   4.088   3.141  10.826 -1.5594 -0.0919 -2.2168
  120OSM   H14B12637   4.061   3.277  10.940 -1.3058  0.6377 -0.4279
  120OSM   H14C12638   4.167   3.286  10.809  0.0310 -0.3901 -0.1392
  120OSM    C1312639   3.987   3.265  10.602 -0.4447  0.5581 -0.0662
  120OSM   H13A12640   4.076   3.316  10.570  0.1485 -1.6593 -2.0320
  120OSM   H13B12641   3.907   3.302  10.539 -1.1066 -2.3773 -1.0280
  120OSM   H13C12642   3.989   3.163  10.568  0.1548  0.5837 -0.1089
  120OSM    C1212643   3.918   3.435  10.773 -0.4994  0.3169  0.0936
  120OSM   H12A12644   3.882   3.454  10.873  0.3079  0.4594  0.3577
  120OSM   H12B12645   3.834   3.475  10.718 -0.5368 -1.2795 -1.0569
  120OSM    C1112646   4.026   3.544  10.762 -0.7687  0.1681 -0.9922
  120OSM   H11A12647   4.113   3.514  10.824 -0.8910 -2.8518 -2.1666
  120OSM   H11B12648   3.989   3.633  10.816  0.2795 -0.0748  0.1625
  120OSM      P12649   4.211   3.543  10.586 -0.3168 -0.0843 -0.3475
  120OSM    O1312650   4.299   3.668  10.581 -0.3824  0.0575  0.4916
  120OSM    O1412651   4.266   3.426  10.659 -0.1140 -0.1152  0.0421
  120OSM    O1112652   4.186   3.496  10.440  0.3491 -0.5432  0.4572
  120OSM    O1212653   4.073   3.576  10.637  0.0304  0.0396  0.0198
  120OSM    C1S12654   4.108   3.576  10.355 -0.5444  0.0046 -1.3761
  120OSM    H1S12655   4.117   3.682  10.386 -3.2881 -0.6510  1.9454
  120OSM    H1T12656   4.000   3.551  10.361 -0.0982 -1.6164  0.4959
  120OSM     NF12657   4.076   3.652  10.121 -0.6200 -0.0365 -0.3528
  120OSM    HNF12658   3.996   3.613  10.076 -1.0761 -1.4780  1.6536
  120OSM    C2S12659   4.148   3.559  10.204  0.1193  0.3567 -0.1963
  120OSM    H2S12660   4.258   3.566  10.192  0.0423  1.0524 -0.5539
  120OSM    C3S12661   4.116   3.411  10.157  0.1865 -0.1538 -1.0509
  120OSM    H3S12662   4.005   3.408  10.157  0.1087  1.4412  0.6177
  120OSM     O312663   4.146   3.305  10.251 -0.2033 -0.4175  0.9654
  120OSM    HO312664   4.143   3.348  10.337  2.3968 -0.6445  1.2070
  120OSM    C4S12665   4.174   3.385  10.022  0.1681  0.0249  0.0921
  120OSM    H4S12666   4.277   3.419  10.003  0.9181 -0.8852  2.3736
  120OSM    C5S12667   4.112   3.353   9.911 -0.3863 -0.1111 -0.3710
  120OSM    H5S12668   4.003   3.346   9.924 -0.8217  1.5084 -2.8929
  120OSM    C6S12669   4.167   3.339   9.768 -0.0341 -0.6691 -0.3832
  120OSM    H6S12670   4.134   3.238   9.735 -1.8587 -0.2099  0.0060
  120OSM    H6T12671   4.274   3.356   9.745 -0.8231  0.2238 -3.7415
  120OSM    C7S12672   4.105   3.429   9.665 -0.6642 -0.1503 -0.9461
  120OSM    H7S12673   4.114   3.536   9.695  0.5261 -0.9405  1.5713
  120OSM    H7T12674   3.995   3.411   9.673 -0.7154 -0.2330 -1.8071
  120OSM    C8S12675   4.150   3.403   9.525  0.0458  0.2592 -0.1585
  120OSM    H8S12676   4.145   3.293   9.507 -0.6218  0.4087 -0.9396
  120OSM    H8T12677   4.256   3.435   9.521 -0.1455  0.8275 -0.9885
  120OSM    C9S12678   4.068   3.478   9.417  0.5095  0.1068 -0.2482
  120OSM    H9S12679   4.140   3.491   9.333  1.5923 -0.5477  0.5511
  120OSM    H9T12680   4.055   3.579   9.461  0.8817 -0.4171  1.1138
  120OSM   C10S12681   3.927   3.425   9.381 -0.1381  0.0258 -0.1652
  120OSM   H10S12682   3.865   3.416   9.473  0.0162  3.9578  0.3946
  120OSM   H10T12683   3.940   3.319   9.353 -1.9426  0.8018 -4.2824
  120OSM   C11S12684   3.854   3.507   9.277 -0.0655  0.1421  0.1333
  120OSM   H11S12685   3.852   3.611   9.314  0.3827  1.0982 -2.4229
  120OSM   H11T12686   3.746   3.483   9.269 -0.0427 -0.1117  0.5571
  120OSM   C12S12687   3.907   3.485   9.135 -0.5591 -0.7060  0.8044
  120OSM   H12S12688   3.914   3.377   9.109 -1.5452 -0.4437 -0.5591
  120OSM   H12T12689   4.008   3.528   9.116 -2.0178  1.6558 -1.7993
  120OSM   C13S12690   3.802   3.555   9.045 -0.5694  0.3151 -0.1425
  120OSM   H13S12691   3.795   3.664   9.068 -1.9323  0.5220 -1.4797
  120OSM   H13T12692   3.700   3.514   9.054  0.0129 -1.3420 -0.9418
  120OSM   C14S12693   3.831   3.551   8.896  0.2270  0.2950  0.6233
  120OSM   H14S12694   3.741   3.588   8.843 -0.0894  0.8585  1.5524
  120OSM   H14T12695   3.839   3.444   8.868  2.4697 -0.5645  4.2632
  120OSM   C15S12696   3.965   3.607   8.843  0.4683 -0.3147 -0.8867
  120OSM   H15S12697   4.043   3.564   8.909 -1.9355 -1.0590  1.5324
  120OSM   H15T12698   3.970   3.718   8.851  1.0347 -0.2824 -1.6049
  120OSM   C16S12699   3.995   3.563   8.698  0.5389  1.1210 -0.6094
  120OSM   H16S12700   3.971   3.455   8.682 -2.1008  1.5355  0.3063
  120OSM   H16T12701   4.102   3.586   8.681  0.6139  0.8365 -0.5146
  120OSM   C17S12702   3.927   3.652   8.587  0.2166 -0.1687  0.2944
  120OSM   H17S12703   3.927   3.759   8.615 -0.2210 -0.5189  1.6927
  120OSM   H17T12704   3.820   3.621   8.586  0.4195 -0.9147  1.3473
  120OSM   C18S12705   3.997   3.645   8.447 -0.2756  0.3258  0.1961
  120OSM   H18S12706   4.107   3.632   8.449 -0.0671  2.0468  0.9479
  120OSM   H18T12707   3.980   3.735   8.383 -1.0013 -0.1057 -0.2346
  120OSM   H18U12708   3.948   3.566   8.385 -1.4395 -0.3395  1.9285
  120OSM    C1F12709   4.100   3.779  10.103 -0.0781  0.4452 -0.6982
  120OSM     OF12710   4.168   3.838  10.187 -0.1528 -0.4653  0.3947
  120OSM    C2F12711   4.045   3.855   9.980  0.8823 -0.2112 -0.0388
  120OSM    H2F12712   3.944   3.897   9.998  1.6064  0.6611  2.1965
  120OSM    H2G12713   4.036   3.780   9.898 -0.7284 -0.7550  0.6270
  120OSM    C3F12714   4.148   3.967   9.946  0.8334  0.2589 -0.5652
  120OSM    H3F12715   4.250   3.926   9.956  1.1722  0.5391 -2.6754
  120OSM    H3G12716   4.129   4.051  10.016 -1.3022  0.3740 -1.2340
  120OSM    C4F12717   4.131   4.009   9.792 -0.7764 -0.2360  0.0647
  120OSM    H4F12718   4.039   4.070   9.795 -0.8147 -0.2589 -0.6595
  120OSM    H4G12719   4.111   3.927   9.719 -1.1139  0.9665 -1.2014
  120OSM    C5F12720   4.248   4.097   9.734 -0.1272 -0.3039 -0.3524
  120OSM    H5F12721   4.332   4.025   9.726 -0.6636 -0.8899 -0.8740
  120OSM    H5G12722   4.283   4.182   9.796 -0.5591 -0.2546 -0.1691
  120OSM    C6F12723   4.220   4.153   9.597  0.2200 -0.1470 -0.2454
  120OSM    H6F12724   4.201   4.262   9.604 -0.8117 -0.4013  1.1614
  120OSM    H6G12725   4.135   4.097   9.552 -0.4766  0.2136  0.6142
  120OSM    C7F12726   4.338   4.122   9.501  0.1833 -0.2340 -0.1460
  120OSM    H7F12727   4.336   4.019   9.461 -1.0060  0.3555 -1.6514
  120OSM    H7G12728   4.432   4.142   9.557 -0.4346 -1.1149  1.2257
  120OSM    C8F12729   4.328   4.216   9.373 -0.1152 -0.6992  0.8053
  120OSM    H8F12730   4.339   4.317   9.418 -4.6928 -0.8925  2.6906
  120OSM    H8G12731   4.229   4.212   9.324  0.1802  1.5480 -0.0432
  120OSM    C9F12732   4.437   4.196   9.277 -0.1552  0.2351  0.4656
  120OSM    H9F12733   4.536   4.204   9.326  1.2134 -1.8313 -1.8102
  120OSM   C10F12734   4.424   4.188   9.141 -0.4049  0.2273  0.0203
  120OSM   H10F12735   4.513   4.168   9.080 -0.7547 -1.4700  0.0416
  120OSM   C11F12736   4.303   4.183   9.056 -0.0734  0.0350  0.1506
  120OSM   H11F12737   4.303   4.263   8.978  1.7105  0.0310  0.1295
  120OSM   H11G12738   4.218   4.212   9.122  0.8982  0.7695  1.1051
  120OSM   C12F12739   4.256   4.057   8.985 -0.0515  0.3524 -0.2423
  120OSM   H12F12740   4.170   4.091   8.924 -0.4769 -0.5949 -0.1646
  120OSM   H12G12741   4.212   3.978   9.050  3.9173 -1.0389  0.9118
  120OSM   C13F12742   4.367   3.998   8.896  0.1627 -0.6730 -0.1371
  120OSM   H13F12743   4.326   3.917   8.832 -1.6495 -0.4534  0.6943
  120OSM   H13G12744   4.453   3.951   8.948  1.6268 -0.0454 -1.9315
  120OSM   C14F12745   4.434   4.104   8.813  0.3723 -0.4371 -0.2413
  120OSM   H14F12746   4.486   4.183   8.871 -0.3610  0.1093 -0.3242
  120OSM   H14G12747   4.352   4.154   8.758 -1.7922 -0.9868  2.3992
  120OSM   C15F12748   4.530   4.044   8.701 -0.6645  0.1458 -0.5691
  120OSM   H15F12749   4.576   4.131   8.650 -3.0425  2.2698  0.7653
  120OSM   H15G12750   4.468   3.982   8.634  0.4137 -1.0642 -0.4704
  120OSM   C16F12751   4.651   3.958   8.743 -0.7327  0.0403 -0.1050
  120OSM   H16F12752   4.615   3.865   8.792 -0.1940  0.8031  1.7705
  120OSM   H16G12753   4.715   4.006   8.820  0.7441  1.1750 -1.9653
  120OSM   C17F12754   4.736   3.928   8.612 -0.5861 -0.0296  0.3168
  120OSM   H17F12755   4.735   4.018   8.547  0.3818  1.9329  2.9513
  120OSM   H17G12756   4.675   3.842   8.575 -0.0013 -0.3738  0.1590
  120OSM   C18F12757   4.872   3.890   8.632 -0.5796 -0.0116 -0.2905
  120OSM   H18F12758   4.942   3.971   8.662  0.1202 -0.6728 -0.1187
  120OSM   H18G12759   4.900   3.862   8.528 -0.5502 -1.5624  0.1121
  120OSM   H18H12760   4.890   3.807   8.704  3.5709  1.3647  0.3883
  121OSM      N12761   2.600   6.303  10.936 -0.0234 -0.2804  0.3910
  121OSM    C1512762   2.573   6.199  11.039  0.6116  0.2878 -1.0466
  121OSM   H15A12763   2.500   6.233  11.111  0.8958 -0.1178 -0.5673
  121OSM   H15B12764   2.655   6.172  11.105  0.5912 -1.9305 -1.8669
  121OSM   H15C12765   2.540   6.109  10.990 -1.4046  1.0644 -1.1538
  121OSM    C1412766   2.473   6.345  10.874 -0.0583  0.1981  0.7921
  121OSM   H14A12767   2.492   6.411  10.792 -0.8084 -2.3280 -1.5045
  121OSM   H14B12768   2.405   6.389  10.945  0.7930  1.3547  0.8935
  121OSM   H14C12769   2.423   6.266  10.820 -0.3130  1.4128 -0.7509
  121OSM    C1312770   2.646   6.429  11.008  0.0031  0.6272  0.3667
  121OSM   H13A12771   2.666   6.517  10.948  1.2449 -0.0365 -0.2357
  121OSM   H13B12772   2.733   6.417  11.072 -0.3373  0.8931  0.8792
  121OSM   H13C12773   2.569   6.459  11.077  0.7661 -1.6723  2.2937
  121OSM    C1212774   2.693   6.247  10.831  0.3585  0.5826 -0.6511
  121OSM   H12A12775   2.684   6.300  10.738  0.9020 -2.0306 -2.2437
  121OSM   H12B12776   2.658   6.145  10.820  2.0512 -0.1380  0.3376
  121OSM    C1112777   2.840   6.243  10.870 -0.3215 -0.3966 -0.2404
  121OSM   H11A12778   2.880   6.346  10.885 -0.0557 -0.9625  3.5459
  121OSM   H11B12779   2.887   6.203  10.778  0.2479  0.2570 -0.2356
  121OSM      P12780   2.998   6.170  11.068  0.1630  0.1139  0.1631
  121OSM    O1312781   3.005   6.299  11.137 -0.0018 -0.4346 -0.3869
  121OSM    O1412782   3.010   6.056  11.161 -0.2366 -0.4448  0.4216
  121OSM    O1112783   3.113   6.163  10.959  0.3508  0.2891  0.7364
  121OSM    O1212784   2.864   6.161  10.988  0.5433  0.2475 -0.3682
  121OSM    C1S12785   3.108   6.069  10.843  0.7035  0.2713 -0.1880
  121OSM    H1S12786   3.014   6.012  10.829  2.3273 -2.8194  0.9808
  121OSM    H1T12787   3.182   5.986  10.852 -0.6632 -1.0813 -1.2892
  121OSM     NF12788   3.168   6.066  10.588 -0.1293  0.4815  0.5411
  121OSM    HNF12789   3.257   6.025  10.569  0.3117  0.8608  1.6889
  121OSM    C2S12790   3.164   6.144  10.712 -0.5253  0.2869  0.3102
  121OSM    H2S12791   3.088   6.223  10.697 -2.6429 -1.0534  3.4354
  121OSM    C3S12792   3.301   6.208  10.743  0.5623 -0.6876 -0.3451
  121OSM    H3S12793   3.373   6.125  10.758 -0.9996 -2.4610 -2.2442
  121OSM     O312794   3.316   6.271  10.872  0.3812  0.0286 -0.1167
  121OSM    HO312795   3.225   6.258  10.900  0.4346  1.7354  0.9659
  121OSM    C4S12796   3.347   6.300  10.631  0.1788  0.1267 -0.7913
  121OSM    H4S12797   3.278   6.381  10.600 -0.8416 -1.3053 -2.3722
  121OSM    C5S12798   3.459   6.286  10.562  0.7218 -0.4770  0.4496
  121OSM    H5S12799   3.530   6.204  10.584  2.4860  0.8038 -0.3217
  121OSM    C6S12800   3.489   6.384  10.453 -0.5820 -0.4888 -0.7178
  121OSM    H6S12801   3.584   6.439  10.471 -1.6264  1.2239 -0.2737
  121OSM    H6T12802   3.410   6.462  10.453 -0.1856 -0.0840 -0.6180
  121OSM    C7S12803   3.509   6.304  10.319 -0.2745 -0.4123  0.1672
  121OSM    H7S12804   3.415   6.250  10.296  0.1791 -0.4315 -1.6650
  121OSM    H7T12805   3.588   6.226  10.329  0.4358  0.3568  0.6414
  121OSM    C8S12806   3.567   6.397  10.206 -0.3873  0.0703  0.3979
  121OSM    H8S12807   3.677   6.397  10.222 -0.0506 -0.5813 -1.7820
  121OSM    H8T12808   3.528   6.501  10.212  0.2101  0.2492  1.3082
  121OSM    C9S12809   3.547   6.342  10.062 -0.0536 -0.4540  0.5167
  121OSM    H9S12810   3.451   6.370  10.014 -0.0723 -3.8268 -1.6227
  121OSM    H9T12811   3.552   6.231  10.074 -2.0952 -0.3965  2.1997
  121OSM   C10S12812   3.657   6.403   9.976 -0.3604  0.0932 -0.3313
  121OSM   H10S12813   3.753   6.369  10.020  0.0633  0.8660 -0.6384
  121OSM   H10T12814   3.639   6.513   9.981  0.4743  0.3117 -1.6690
  121OSM   C11S12815   3.663   6.367   9.831  0.4944 -0.2624 -0.8480
  121OSM   H11S12816   3.561   6.362   9.786  0.9425 -1.4013 -1.7488
  121OSM   H11T12817   3.708   6.265   9.829 -0.5074 -0.7415  0.4994
  121OSM   C12S12818   3.752   6.463   9.751 -0.4426  0.1632  0.2327
  121OSM   H12S12819   3.848   6.476   9.805  2.0915 -4.6260 -2.7817
  121OSM   H12T12820   3.709   6.564   9.734 -1.0819 -0.5693 -2.7985
  121OSM   C13S12821   3.777   6.398   9.615  0.0763  0.1521  0.1822
  121OSM   H13S12822   3.682   6.355   9.576  0.0444 -0.8664  1.3520
  121OSM   H13T12823   3.837   6.306   9.632 -0.1179  0.2880  1.7068
  121OSM   C14S12824   3.862   6.483   9.517 -0.0129 -0.5586 -0.0803
  121OSM   H14S12825   3.971   6.474   9.539 -0.3908 -1.8259  1.4270
  121OSM   H14T12826   3.836   6.590   9.527  1.2319 -0.1919 -0.7473
  121OSM   C15S12827   3.826   6.456   9.367 -0.3656 -0.0819  0.3431
  121OSM   H15S12828   3.719   6.483   9.348  0.1315  1.6294 -0.1416
  121OSM   H15T12829   3.832   6.346   9.372  0.9038 -0.0273  0.1931
  121OSM   C16S12830   3.919   6.515   9.263  0.2943  0.5957 -0.6430
  121OSM   H16S12831   4.012   6.454   9.260  0.2877  0.4715  0.9398
  121OSM   H16T12832   3.953   6.615   9.299 -0.8676  0.8123 -0.1390
  121OSM   C17S12833   3.856   6.508   9.122  0.8629  0.0940  0.1213
  121OSM   H17S12834   3.781   6.589   9.108 -2.3196 -2.9496 -1.0341
  121OSM   H17T12835   3.800   6.414   9.102 -0.3972  0.5879  1.2183
  121OSM   C18S12836   3.957   6.535   9.012 -0.0597  0.0666  0.6908
  121OSM   H18S12837   3.998   6.638   9.015  4.0887 -1.3424 -2.8166
  121OSM   H18T12838   3.903   6.509   8.918  0.4900 -0.6958  0.5785
  121OSM   H18U12839   4.049   6.476   9.030  0.2202  0.4461  0.4958
  121OSM    C1F12840   3.051   6.021  10.539 -0.0942 -0.2411  0.2514
  121OSM     OF12841   2.944   6.061  10.574 -0.4907 -1.0007 -0.4858
  121OSM    C2F12842   3.064   5.916  10.429  0.8321  0.1060  0.4058
  121OSM    H2F12843   2.971   5.857  10.418  0.2202  1.0457  0.4100
  121OSM    H2G12844   3.144   5.844  10.455 -0.8035 -1.5417  1.0064
  121OSM    C3F12845   3.111   5.994  10.297 -0.4054 -0.3448  0.7985
  121OSM    H3F12846   3.208   6.043  10.321 -0.8042 -0.2387  2.2040
  121OSM    H3G12847   3.032   6.069  10.274  0.5466  0.7586  1.0506
  121OSM    C4F12848   3.134   5.889  10.181  0.6666 -0.0823 -0.5845
  121OSM    H4F12849   3.042   5.828  10.170  1.0726 -0.8558  0.2333
  121OSM    H4G12850   3.215   5.820  10.213  1.5443  0.0093 -2.5607
  121OSM    C5F12851   3.164   5.960  10.052  0.1928 -0.5033  0.0449
  121OSM    H5F12852   3.261   6.013  10.063  0.2338  0.6084 -4.3420
  121OSM    H5G12853   3.087   6.036  10.024 -1.4361 -1.5196  1.6817
  121OSM    C6F12854   3.186   5.862   9.933 -0.0742 -0.3312  0.5249
  121OSM    H6F12855   3.092   5.807   9.909  0.6221 -2.3881  2.3341
  121OSM    H6G12856   3.267   5.800   9.976 -0.2118  0.6172  2.2230
  121OSM    C7F12857   3.226   5.937   9.801 -0.1444 -0.8086  0.7972
  121OSM    H7F12858   3.284   6.031   9.817 -0.8432 -0.2869  0.2589
  121OSM    H7G12859   3.134   5.986   9.763  0.4568  0.1683  0.5723
  121OSM    C8F12860   3.316   5.862   9.705  0.0927 -0.0648 -0.1799
  121OSM    H8F12861   3.391   5.808   9.766 -1.8270 -2.6386 -0.0246
  121OSM    H8G12862   3.382   5.925   9.640  0.6278 -0.3599  0.0783
  121OSM    C9F12863   3.232   5.766   9.621  0.2746 -0.7053  0.4179
  121OSM    H9F12864   3.169   5.690   9.670  0.1241  0.2183  1.6669
  121OSM   C10F12865   3.236   5.752   9.485 -0.3322 -0.3840 -0.3232
  121OSM   H10F12866   3.157   5.698   9.431  0.3206 -1.3130 -0.3691
  121OSM   C11F12867   3.328   5.824   9.392 -0.0819  0.0381 -0.4824
  121OSM   H11F12868   3.419   5.761   9.382  1.4922  2.2308 -0.4906
  121OSM   H11G12869   3.356   5.929   9.417 -1.0825  0.4581 -1.1413
  121OSM   C12F12870   3.258   5.826   9.256 -0.7362  0.7193 -0.1851
  121OSM   H12F12871   3.151   5.853   9.265 -1.2457 -1.7506  1.7713
  121OSM   H12G12872   3.257   5.724   9.211  1.3706  1.2261 -1.4628
  121OSM   C13F12873   3.324   5.921   9.158  0.0048  0.3908 -0.2996
  121OSM   H13F12874   3.431   5.890   9.156  0.4034  1.7832 -0.6999
  121OSM   H13G12875   3.327   6.022   9.203  0.9627  0.0064  0.5393
  121OSM   C14F12876   3.264   5.942   9.019  0.3073  0.1156 -0.0584
  121OSM   H14F12877   3.170   6.002   9.017 -0.4937 -1.1358 -0.5567
  121OSM   H14G12878   3.250   5.842   8.974 -0.2475 -0.0360  0.4417
  121OSM   C15F12879   3.357   6.006   8.914  0.5754 -0.0071  0.6646
  121OSM   H15F12880   3.432   5.928   8.888  0.7950  0.1347  0.8629
  121OSM   H15G12881   3.410   6.095   8.955  1.5473 -0.3587  0.1764
  121OSM   C16F12882   3.280   6.039   8.779  0.0436 -0.2575 -0.3608
  121OSM   H16F12883   3.202   6.116   8.795  0.0481 -0.5009  0.8662
  121OSM   H16G12884   3.225   5.946   8.752  0.7250 -0.1422 -2.2209
  121OSM   C17F12885   3.364   6.089   8.666 -0.5892 -0.4727 -0.0206
  121OSM   H17F12886   3.430   6.176   8.685 -0.1332 -0.2666 -2.4555
  121OSM   H17G12887   3.295   6.125   8.588 -0.5774 -0.9778 -0.2660
  121OSM   C18F12888   3.428   5.970   8.593 -0.2018  0.3783  0.0821
  121OSM   H18F12889   3.350   5.892   8.575  0.6315 -0.7212  1.1356
  121OSM   H18G12890   3.510   5.926   8.654  0.0366 -0.5330 -0.8695
  121OSM   H18H12891   3.475   6.013   8.502  0.1495  1.4876  0.7876
  122OSM      N12892   3.411   4.293  10.913 -0.0791  0.3933  0.6835
  122OSM    C1512893   3.321   4.205  10.818  1.4139 -0.5356  0.0558
  122OSM   H15A12894   3.258   4.271  10.760  0.2306 -0.3206  1.5341
  122OSM   H15B12895   3.251   4.137  10.865 -0.8263 -0.1464 -2.5958
  122OSM   H15C12896   3.381   4.158  10.741  0.8979  0.7012 -1.1253
  122OSM    C1412897   3.322   4.344  11.019  0.0335 -0.4340 -0.7615
  122OSM   H14A12898   3.239   4.398  10.977  1.0437  0.3365 -1.8231
  122OSM   H14B12899   3.369   4.409  11.092 -1.4197 -0.6304  0.3727
  122OSM   H14C12900   3.285   4.261  11.077  1.6976  0.0958  1.1171
  122OSM    C1312901   3.511   4.203  10.976 -0.4974 -0.0556 -0.1862
  122OSM   H13A12902   3.471   4.111  11.015  2.8734 -0.5668  2.1837
  122OSM   H13B12903   3.544   4.257  11.063  0.2281  0.7796 -0.9594
  122OSM   H13C12904   3.603   4.177  10.925 -1.4445 -0.7170 -1.6036
  122OSM    C1212905   3.480   4.407  10.836  0.1136  0.5301  0.7041
  122OSM   H12A12906   3.518   4.474  10.912 -1.8584  3.4709 -0.8291
  122OSM   H12B12907   3.403   4.455  10.778 -1.2308 -0.7478  1.3877
  122OSM    C1112908   3.597   4.373  10.738  1.1534 -0.1404  0.2739
  122OSM   H11A12909   3.613   4.458  10.669 -0.7732 -1.4114 -1.7879
  122OSM   H11B12910   3.557   4.288  10.678 -1.0360 -0.3334  1.9471
  122OSM      P12911   3.796   4.453  10.883  0.4253  0.5258 -0.1837
  122OSM    O1312912   3.701   4.518  10.970 -0.2755 -0.2375  0.8175
  122OSM    O1412913   3.905   4.373  10.941 -0.4337 -0.2019  0.1946
  122OSM    O1112914   3.844   4.544  10.762 -0.3863  0.2021  0.3597
  122OSM    O1212915   3.714   4.342  10.801 -0.4768  0.1574  0.5626
  122OSM    C1S12916   3.907   4.486  10.643  0.0110  0.4277  0.0238
  122OSM    H1S12917   3.891   4.379  10.621  2.1925  0.0146  0.3119
  122OSM    H1T12918   4.017   4.497  10.648 -0.0063  0.0434  1.8053
  122OSM     NF12919   3.896   4.480  10.390  0.1262 -0.5559 -0.0274
  122OSM    HNF12920   3.979   4.518  10.349 -0.0545  0.8894  0.9104
  122OSM    C2S12921   3.849   4.551  10.507  0.0348 -0.3345 -0.9872
  122OSM    H2S12922   3.741   4.525  10.508 -0.1584  0.4282  2.3054
  122OSM    C3S12923   3.879   4.705  10.511 -0.2725 -0.5864 -0.2575
  122OSM    H3S12924   3.988   4.718  10.496 -0.6785  1.3069 -1.8462
  122OSM     O312925   3.829   4.772  10.626 -0.3665 -0.2222 -0.5074
  122OSM    HO312926   3.807   4.705  10.691 -0.7286 -1.0544 -1.4672
  122OSM    C4S12927   3.833   4.758  10.383  0.4279 -0.3937 -0.3936
  122OSM    H4S12928   3.909   4.729  10.308 -0.4247 -0.3206 -1.3026
  122OSM    C5S12929   3.723   4.834  10.356 -0.5591 -0.0847 -0.0908
  122OSM    H5S12930   3.650   4.847  10.437  0.3092  2.6980  0.3090
  122OSM    C6S12931   3.680   4.881  10.221 -0.1341 -0.1560 -0.9814
  122OSM    H6S12932   3.693   4.991  10.210  2.4649 -0.4833 -1.6711
  122OSM    H6T12933   3.575   4.853  10.198  0.3265 -0.3472 -2.9553
  122OSM    C7S12934   3.760   4.816  10.104 -0.2312 -0.1660 -0.3955
  122OSM    H7S12935   3.749   4.706  10.113 -0.3696 -0.2630 -1.6531
  122OSM    H7T12936   3.863   4.858  10.110 -0.5383  0.6958 -0.9405
  122OSM    C8S12937   3.710   4.855   9.967  0.6568 -0.2930  0.3405
  122OSM    H8S12938   3.704   4.963   9.946 -0.8732 -0.4256 -0.0162
  122OSM    H8T12939   3.606   4.822   9.943  0.5770  1.4926 -1.8456
  122OSM    C9S12940   3.791   4.795   9.850 -0.4617 -0.0974 -0.2609
  122OSM    H9S12941   3.802   4.684   9.853  2.0557  0.0877 -1.6203
  122OSM    H9T12942   3.891   4.842   9.856 -1.1035  1.4429 -1.3020
  122OSM   C10S12943   3.720   4.813   9.714 -0.6382 -0.1912 -0.0595
  122OSM   H10S12944   3.645   4.892   9.734 -2.2121 -1.2995 -1.4328
  122OSM   H10T12945   3.670   4.713   9.709 -0.2725 -0.5328  2.3270
  122OSM   C11S12946   3.801   4.850   9.589  0.0512  0.2814  0.0721
  122OSM   H11S12947   3.881   4.774   9.576 -2.7126 -2.6162 -0.9297
  122OSM   H11T12948   3.844   4.950   9.609  1.5216 -0.2032 -0.6191
  122OSM   C12S12949   3.716   4.848   9.461  0.5506 -0.2883 -0.0040
  122OSM   H12S12950   3.631   4.916   9.485 -0.7087 -2.5697  2.2907
  122OSM   H12T12951   3.667   4.749   9.461  1.0687 -0.5594 -1.9663
  122OSM   C13S12952   3.781   4.891   9.334 -0.5543 -0.2831 -1.1277
  122OSM   H13S12953   3.880   4.841   9.342 -0.9525 -0.7523  0.9651
  122OSM   H13T12954   3.801   5.000   9.333  0.7169 -0.4790  0.5614
  122OSM   C14S12955   3.711   4.847   9.206 -0.7356  0.0382  0.0673
  122OSM   H14S12956   3.620   4.910   9.211 -0.9563 -0.2230 -0.5932
  122OSM   H14T12957   3.676   4.742   9.214 -0.8421  0.0464 -0.2749
  122OSM   C15S12958   3.779   4.874   9.071  0.7089  0.0091  0.2323
  122OSM   H15S12959   3.882   4.832   9.077  0.9752  0.4868 -0.8877
  122OSM   H15T12960   3.797   4.983   9.058  2.3752 -0.2782 -0.0245
  122OSM   C16S12961   3.710   4.803   8.952 -0.4191  0.9276  0.2811
  122OSM   H16S12962   3.611   4.779   8.998  0.9866 -2.3975  1.6882
  122OSM   H16T12963   3.755   4.710   8.912  0.8648  1.2291  1.0040
  122OSM   C17S12964   3.680   4.905   8.835 -0.3155 -0.4186 -0.0150
  122OSM   H17S12965   3.644   5.001   8.878 -1.4825 -1.2823  1.0105
  122OSM   H17T12966   3.606   4.856   8.768 -0.0469  0.5269 -1.0143
  122OSM   C18S12967   3.799   4.948   8.745  0.4268  0.4676  0.2362
  122OSM   H18S12968   3.857   4.861   8.707 -0.7176  1.2298 -3.4303
  122OSM   H18T12969   3.864   5.000   8.819  1.0500 -1.4806  1.1203
  122OSM   H18U12970   3.772   5.030   8.676  1.1394 -0.6594 -1.4268
  122OSM    C1F12971   3.874   4.356  10.361  0.3790 -0.6096  0.2595
  122OSM     OF12972   3.806   4.280  10.430 -0.3052 -0.0094  0.2538
  122OSM    C2F12973   3.939   4.307  10.242  0.0913 -0.1973 -0.5094
  122OSM    H2F12974   3.943   4.196  10.231  1.7365 -0.5174  2.6480
  122OSM    H2G12975   4.044   4.341  10.233  1.2074 -3.4482 -0.5055
  122OSM    C3F12976   3.874   4.366  10.119 -0.2052 -0.3599  0.1025
  122OSM    H3F12977   3.879   4.476  10.132  0.7732 -0.5091  1.0863
  122OSM    H3G12978   3.768   4.335  10.106 -0.9848  1.7960  1.0806
  122OSM    C4F12979   3.961   4.328   9.993  0.1446 -0.3177  0.7239
  122OSM    H4F12980   3.971   4.217   9.986 -0.9251 -0.3557 -0.2044
  122OSM    H4G12981   4.062   4.371  10.007  0.3018 -1.5368  3.8130
  122OSM    C5F12982   3.896   4.379   9.865 -0.7314  0.3164  0.8090
  122OSM    H5F12983   3.866   4.485   9.882  1.2202  0.9202  0.5534
  122OSM    H5G12984   3.799   4.325   9.859 -0.5261  0.1571 -1.6093
  122OSM    C6F12985   3.983   4.379   9.742 -0.5615 -0.4490 -0.1774
  122OSM    H6F12986   4.001   4.275   9.708 -1.6561 -0.2087 -1.5585
  122OSM    H6G12987   4.073   4.443   9.754 -1.1601  0.5224 -0.7929
  122OSM    C7F12988   3.915   4.452   9.616  1.2058  0.4335 -0.3162
  122OSM    H7F12989   3.918   4.561   9.636 -0.9504  0.4882 -0.1067
  122OSM    H7G12990   3.809   4.424   9.595  1.0188  0.8777  0.0089
  122OSM    C8F12991   3.992   4.419   9.485 -0.6147  0.0234  0.5878
  122OSM    H8F12992   3.974   4.313   9.456  1.0548  0.3789 -1.9004
  122OSM    H8G12993   4.102   4.434   9.492 -0.8226  2.4791 -0.9204
  122OSM    C9F12994   3.949   4.512   9.380 -0.2031 -0.8452  0.1063
  122OSM    H9F12995   3.953   4.620   9.403 -0.9025 -0.7158 -0.3435
  122OSM   C10F12996   3.906   4.485   9.256 -0.0899 -0.4491  0.1961
  122OSM   H10F12997   3.889   4.571   9.189  2.6747 -0.2034 -0.2699
  122OSM   C11F12998   3.901   4.351   9.192 -0.2238  0.9657  0.0867
  122OSM   H11F12999   3.809   4.295   9.217  0.8362 -0.3975  1.0169
  122OSM   H11G13000   3.973   4.280   9.238 -4.0156 -2.1658  1.4801
  122OSM   C12F13001   3.934   4.385   9.044  0.1190 -0.0199 -0.4194
  122OSM   H12F13002   4.041   4.413   9.051 -0.0154  0.3150  0.4063
  122OSM   H12G13003   3.880   4.472   9.001  1.7762  0.5955 -1.2796
  122OSM   C13F13004   3.917   4.262   8.945  0.2142  0.3453 -0.5948
  122OSM   H13F13005   3.811   4.229   8.946  0.1778  0.4796  0.2288
  122OSM   H13G13006   3.981   4.181   8.984 -0.2474  0.8278  1.1938
  122OSM   C14F13007   3.970   4.297   8.811  0.2626  0.0865  0.3290
  122OSM   H14F13008   4.079   4.317   8.819  0.0853  1.3767 -0.2396
  122OSM   H14G13009   3.937   4.397   8.775 -0.9642 -0.1206  0.8618
  122OSM   C15F13010   3.939   4.197   8.702 -0.2850 -0.0239 -0.0170
  122OSM   H15F13011   3.830   4.187   8.681 -0.5851  0.0566  1.4409
  122OSM   H15G13012   3.969   4.093   8.729 -1.3152 -0.4856 -0.6011
  122OSM   C16F13013   4.001   4.232   8.565 -0.6548  0.8401 -0.5810
  122OSM   H16F13014   4.104   4.270   8.582 -0.8286  0.1206  2.2303
  122OSM   H16G13015   3.941   4.311   8.515 -1.2417  0.8166  0.0799
  122OSM   C17F13016   4.024   4.109   8.467  0.2556 -0.3047 -0.7702
  122OSM   H17F13017   3.924   4.068   8.442  0.5433 -0.2941 -1.9569
  122OSM   H17G13018   4.081   4.040   8.533  0.8620  0.9406  0.0369
  122OSM   C18F13019   4.102   4.149   8.339 -0.3420 -0.1568 -0.6368
  122OSM   H18F13020   4.192   4.207   8.368  0.3111 -1.7288  0.5334
  122OSM   H18G13021   4.053   4.205   8.255  2.3861 -1.0034 -2.8707
  122OSM   H18H13022   4.151   4.062   8.290  0.4859 -0.4803  0.7527
  123OSM      N13023   2.031   2.218   5.880  0.1422 -0.1644 -0.0709
  123OSM    C1513024   2.053   2.094   5.791  0.0445 -0.2640 -0.7950
  123OSM   H15A13025   2.010   2.004   5.833  1.2859 -0.4196  0.1764
  123OSM   H15B13026   2.158   2.072   5.783  0.1329 -1.4499  2.4781
  123OSM   H15C13027   2.010   2.112   5.694  0.7747 -0.2935 -1.1196
  123OSM    C1413028   2.107   2.338   5.826 -0.5590  0.7714  0.0243
  123OSM   H14A13029   2.062   2.377   5.737  1.3219  0.1715 -1.2269
  123OSM   H14B13030   2.205   2.301   5.800 -1.1592 -1.0975  0.3525
  123OSM   H14C13031   2.103   2.416   5.901 -0.6022  1.3369 -0.5670
  123OSM    C1313032   1.880   2.246   5.887 -0.4198 -0.4433  0.3438
  123OSM   H13A13033   1.855   2.330   5.949 -0.5962 -0.9488  0.9597
  123OSM   H13B13034   1.832   2.159   5.929  1.7801 -2.3860 -0.9938
  123OSM   H13C13035   1.841   2.273   5.790 -0.7005 -2.4217 -0.1107
  123OSM    C1213036   2.091   2.187   6.011  0.4266 -0.1801 -0.9217
  123OSM   H12A13037   2.198   2.174   6.000  0.8402 -0.3746  2.5941
  123OSM   H12B13038   2.056   2.089   6.039 -0.2319  0.6300  1.2270
  123OSM    C1113039   2.071   2.287   6.130  0.0632  0.6449 -0.3185
  123OSM   H11A13040   2.116   2.233   6.216 -1.4668  2.8439  1.9502
  123OSM   H11B13041   1.963   2.291   6.154 -0.0161 -0.8597 -0.3790
  123OSM      P13042   2.283   2.446   6.156  0.3339 -0.0259  0.2196
  123OSM    O1313043   2.374   2.340   6.108 -0.0475 -0.0534  0.5596
  123OSM    O1413044   2.323   2.583   6.113  0.1417  0.5370 -0.3064
  123OSM    O1113045   2.268   2.440   6.313  0.2249 -0.6049  0.0564
  123OSM    O1213046   2.134   2.419   6.115 -0.1788  0.3550 -0.4423
  123OSM    C1S13047   2.202   2.539   6.379 -0.0242  0.1665  0.0564
  123OSM    H1S13048   2.093   2.516   6.372  0.4879 -1.7684 -2.4034
  123OSM    H1T13049   2.218   2.640   6.337  0.1496  0.2196  0.2534
  123OSM     NF13050   2.142   2.640   6.596  0.1633  0.5704 -0.2801
  123OSM    HNF13051   2.168   2.735   6.578 -0.7272  0.5357 -1.8713
  123OSM    C2S13052   2.237   2.560   6.535 -0.8422  0.4192  0.0684
  123OSM    H2S13053   2.242   2.464   6.591  0.4476 -0.4933 -1.5356
  123OSM    C3S13054   2.382   2.612   6.541  0.4826 -0.2299 -0.9114
  123OSM    H3S13055   2.392   2.700   6.473 -0.4197  1.3048  0.9127
  123OSM     O313056   2.482   2.515   6.493  0.4501  0.4332 -0.4101
  123OSM    HO313057   2.427   2.451   6.447 -1.2658 -0.1711  2.3174
  123OSM    C4S13058   2.422   2.648   6.680 -0.7352  0.4169  0.0730
  123OSM    H4S13059   2.402   2.580   6.764  0.2562  1.2708  1.0184
  123OSM    C5S13060   2.466   2.769   6.719 -0.0148  0.6233 -0.3110
  123OSM    H5S13061   2.456   2.863   6.663 -0.8224  1.5580  1.3795
  123OSM    C6S13062   2.508   2.809   6.858 -0.1554  0.2528  0.9265
  123OSM    H6S13063   2.462   2.906   6.885  0.7468  0.9950 -0.1582
  123OSM    H6T13064   2.617   2.831   6.851 -0.6352  2.5527  0.3043
  123OSM    C7S13065   2.491   2.724   6.984 -0.5002 -0.3343  0.1845
  123OSM    H7S13066   2.535   2.781   7.069  0.5620  0.8971 -1.1677
  123OSM    H7T13067   2.544   2.628   6.969  0.3695  0.1079  0.3692
  123OSM    C8S13068   2.343   2.708   7.018 -0.5401 -0.1195  0.5240
  123OSM    H8S13069   2.288   2.668   6.930  0.8017  2.5024 -1.5767
  123OSM    H8T13070   2.294   2.802   7.049 -2.8272 -1.1960  0.2418
  123OSM    C9S13071   2.332   2.599   7.123  0.0090  0.8268 -0.5582
  123OSM    H9S13072   2.383   2.503   7.098 -0.9757 -0.0246  0.5771
  123OSM    H9T13073   2.222   2.584   7.128  0.0181  1.3238  2.7899
  123OSM   C10S13074   2.382   2.644   7.261  0.3448  0.4041  0.2753
  123OSM   H10S13075   2.351   2.749   7.281 -1.0472 -0.1994  1.3673
  123OSM   H10T13076   2.492   2.634   7.268  0.2944 -0.5205 -0.1843
  123OSM   C11S13077   2.308   2.567   7.367 -0.7993 -0.0274  0.5073
  123OSM   H11S13078   2.315   2.458   7.345 -0.4745 -0.2972  1.9043
  123OSM   H11T13079   2.205   2.608   7.366 -0.8573 -0.1271  1.6128
  123OSM   C12S13080   2.378   2.596   7.506  0.5639 -0.3778  0.2383
  123OSM   H12S13081   2.415   2.700   7.498  0.3797 -0.3990 -0.8878
  123OSM   H12T13082   2.464   2.532   7.535  1.1479  0.3469  0.1066
  123OSM   C13S13083   2.277   2.577   7.619 -0.7735 -0.6042  1.0501
  123OSM   H13S13084   2.250   2.470   7.621 -2.6681 -0.1146  2.2872
  123OSM   H13T13085   2.186   2.635   7.594 -0.6676 -1.1162 -0.5764
  123OSM   C14S13086   2.329   2.618   7.757  0.0394  0.1272 -0.2086
  123OSM   H14S13087   2.351   2.726   7.764 -1.1384  0.4456 -1.1845
  123OSM   H14T13088   2.427   2.577   7.787  1.3519  2.4658 -1.1817
  123OSM   C15S13089   2.242   2.566   7.869  0.0986  0.2873  0.6072
  123OSM   H15S13090   2.231   2.457   7.853 -2.2504  0.7814 -1.4587
  123OSM   H15T13091   2.146   2.622   7.862  0.9337  1.7477  0.4793
  123OSM   C16S13092   2.300   2.603   8.010 -0.2694  0.7162 -0.0368
  123OSM   H16S13093   2.325   2.711   7.999  0.4729  0.4846 -0.7342
  123OSM   H16T13094   2.394   2.544   8.022  0.3397  1.3958 -1.3280
  123OSM   C17S13095   2.204   2.582   8.129  0.8588  0.6361 -0.4285
  123OSM   H17S13096   2.105   2.625   8.103  1.4931  1.6772 -1.1668
  123OSM   H17T13097   2.244   2.646   8.210 -0.4240 -0.2631  0.9605
  123OSM   C18S13098   2.182   2.434   8.158  0.2994  0.0755 -0.9774
  123OSM   H18S13099   2.125   2.410   8.250  0.3993 -0.4439 -1.0495
  123OSM   H18T13100   2.269   2.366   8.166  0.2655  0.2050  0.7699
  123OSM   H18U13101   2.112   2.394   8.082 -1.7805  3.4785 -0.9595
  123OSM    C1F13102   2.020   2.599   6.624  0.0851  0.2014  0.4135
  123OSM     OF13103   2.005   2.477   6.627 -0.0726  0.3136 -0.5046
  123OSM    C2F13104   1.909   2.700   6.628 -0.0016 -0.1931 -0.4456
  123OSM    H2F13105   1.841   2.675   6.543  0.7258 -2.1673 -0.4732
  123OSM    H2G13106   1.949   2.803   6.638 -0.7256  0.0134  0.4300
  123OSM    C3F13107   1.823   2.680   6.759  0.4924 -0.1627 -0.3404
  123OSM    H3F13108   1.790   2.574   6.766 -0.1655 -0.0807 -2.0758
  123OSM    H3G13109   1.739   2.752   6.755  0.1156 -0.4792  1.2516
  123OSM    C4F13110   1.910   2.731   6.886 -0.0976  0.5533  0.1309
  123OSM    H4F13111   1.961   2.824   6.853  3.5896 -1.5409 -0.3654
  123OSM    H4G13112   1.989   2.655   6.903  0.0621  0.3499 -1.4782
  123OSM    C5F13113   1.842   2.762   7.019  0.0886 -0.7293 -0.5749
  123OSM    H5F13114   1.771   2.682   7.050 -1.0560  0.4649 -0.0674
  123OSM    H5G13115   1.783   2.855   7.024 -1.5176 -1.8350  1.6353
  123OSM    C6F13116   1.931   2.770   7.150  0.1191 -0.0969  0.6268
  123OSM    H6F13117   2.014   2.838   7.123 -1.9941  1.0746 -3.3756
  123OSM    H6G13118   1.959   2.665   7.173  0.2786 -0.0067  0.8487
  123OSM    C7F13119   1.850   2.818   7.267  0.1587 -0.5469  1.0098
  123OSM    H7F13120   1.784   2.729   7.280  0.3632 -0.8398  0.1156
  123OSM    H7G13121   1.787   2.906   7.242 -1.4225 -1.5562  1.3537
  123OSM    C8F13122   1.929   2.862   7.395  0.5128  0.0522 -1.0354
  123OSM    H8F13123   1.987   2.951   7.365 -1.1226  2.4568  2.4992
  123OSM    H8G13124   1.991   2.774   7.421  2.8440  2.1483  0.7644
  123OSM    C9F13125   1.838   2.901   7.513 -0.0565  0.1461 -0.4074
  123OSM    H9F13126   1.729   2.901   7.497 -0.2447  2.2743  0.7407
  123OSM   C10F13127   1.883   2.924   7.641  0.2088 -0.6665 -1.0571
  123OSM   H10F13128   1.809   2.947   7.719  0.2705 -1.8638 -0.6334
  123OSM   C11F13129   2.022   2.913   7.693 -0.0674 -0.0848 -0.0075
  123OSM   H11F13130   2.069   3.013   7.693  0.1072 -0.1406  3.2902
  123OSM   H11G13131   2.084   2.857   7.620  0.9147  0.5392  0.3374
  123OSM   C12F13132   2.023   2.854   7.836 -0.0255  0.5058 -0.5168
  123OSM   H12F13133   2.127   2.844   7.872 -1.2057  0.6077  3.1220
  123OSM   H12G13134   1.981   2.751   7.832 -1.4562  1.0262  0.6427
  123OSM   C13F13135   1.949   2.934   7.941  0.0356 -0.5388  0.0977
  123OSM   H13F13136   1.961   2.887   8.041 -1.0689 -1.1299 -0.0431
  123OSM   H13G13137   1.839   2.928   7.928 -0.0661 -0.0570  0.6906
  123OSM   C14F13138   2.001   3.080   7.953  0.4190 -0.0760 -0.7694
  123OSM   H14F13139   2.017   3.114   7.849 -0.6797  1.3227 -0.5050
  123OSM   H14G13140   2.100   3.073   8.003 -0.0056  2.3627  0.4868
  123OSM   C15F13141   1.902   3.169   8.032  0.1243 -0.3757 -0.4684
  123OSM   H15F13142   1.905   3.123   8.133  2.6268  0.2926 -0.2210
  123OSM   H15G13143   1.804   3.170   7.979 -0.9242 -1.0956  1.4299
  123OSM   C16F13144   1.947   3.317   8.057  0.1791  0.3804  0.0465
  123OSM   H16F13145   1.968   3.355   7.955  1.4073  1.7153  0.7912
  123OSM   H16G13146   2.042   3.308   8.114  1.0936 -0.6299 -1.5936
  123OSM   C17F13147   1.849   3.405   8.132 -0.2894 -0.4705 -0.8430
  123OSM   H17F13148   1.898   3.498   8.168  0.4343 -0.6394 -1.3972
  123OSM   H17G13149   1.820   3.347   8.222  3.5074  0.1205  0.8445
  123OSM   C18F13150   1.734   3.445   8.048  0.9115 -0.0704 -0.3089
  123OSM   H18F13151   1.659   3.500   8.109 -2.2250 -2.4959 -1.8052
  123OSM   H18G13152   1.686   3.351   8.013 -0.6593 -0.4591  2.6604
  123OSM   H18H13153   1.762   3.503   7.958  1.9931 -0.2862 -0.1081
  124OSM      N13154   5.153   0.278   6.086 -0.2228 -0.0317  0.2657
  124OSM    C1513155   5.191   0.390   6.000  0.4477  0.2224 -0.0899
  124OSM   H15A13156   5.115   0.396   5.923 -0.7828 -1.3522  0.9695
  124OSM   H15B13157   5.289   0.389   5.953  1.6184  2.8826  2.1863
  124OSM   H15C13158   5.191   0.479   6.060  2.7019  1.1855 -1.4244
  124OSM    C1413159   5.180   0.156   5.995 -0.7422 -0.3054 -1.1491
  124OSM   H14A13160   5.155   0.062   6.041 -0.1575 -0.1420 -0.4907
  124OSM   H14B13161   5.284   0.147   5.965 -0.2323  1.4944  0.0265
  124OSM   H14C13162   5.115   0.162   5.908  0.2178 -0.3591 -1.8817
  124OSM    C1313163   5.247   0.266   6.197  0.7167 -0.3377 -0.2562
  124OSM   H13A13164   5.347   0.266   6.157  1.4615  0.0413  1.5846
  124OSM   H13B13165   5.227   0.190   6.271 -1.0858 -0.3958 -0.7746
  124OSM   H13C13166   5.243   0.363   6.243 -0.0411  0.6483 -2.3445
  124OSM    C1213167   5.008   0.282   6.123  0.0539 -0.5334 -0.1442
  124OSM   H12A13168   4.951   0.309   6.036 -0.8221 -0.2193  0.5256
  124OSM   H12B13169   4.991   0.360   6.195  1.8174 -0.0631 -0.2067
  124OSM    C1113170   4.948   0.154   6.187 -0.2116  0.1180  0.3748
  124OSM   H11A13171   4.917   0.081   6.109 -2.7187  0.0003  1.4413
  124OSM   H11B13172   4.847   0.184   6.221  0.1025  0.2786  1.1786
  124OSM      P13173   4.963  -0.022   6.374 -0.0435  0.0243 -0.4559
  124OSM    O1313174   4.853  -0.085   6.297  0.4159  0.2668 -0.2274
  124OSM    O1413175   5.062  -0.115   6.421  0.6573  0.1017 -0.1364
  124OSM    O1113176   4.892   0.036   6.507  0.5755  0.1059  0.4176
  124OSM    O1213177   5.018   0.100   6.305 -0.5124  0.0755  0.1674
  124OSM    C1S13178   4.959   0.135   6.581 -0.9725  0.2621 -0.8075
  124OSM    H1S13179   4.950   0.235   6.534 -2.7152  1.4992  2.0150
  124OSM    H1T13180   5.067   0.110   6.589 -1.0895 -0.0257 -0.0688
  124OSM     NF13181   4.924   0.271   6.787 -0.5341 -0.4022 -0.2372
  124OSM    HNF13182   4.992   0.261   6.859  1.6692 -1.1566 -2.3530
  124OSM    C2S13183   4.894   0.144   6.730  1.2156  0.0074  0.7274
  124OSM    H2S13184   4.784   0.135   6.721  1.0031  2.5483  0.5291
  124OSM    C3S13185   4.921   0.022   6.823  0.6095 -0.0784 -0.3673
  124OSM    H3S13186   5.032   0.012   6.830  0.9071  0.8452 -3.3606
  124OSM     O313187   4.882  -0.102   6.762  0.5439 -0.3125 -0.3523
  124OSM    HO313188   4.854  -0.089   6.671 -0.1047  1.7136  0.1217
  124OSM    C4S13189   4.852   0.036   6.956  0.1358  0.5022 -0.0010
  124OSM    H4S13190   4.926   0.060   7.034  0.6944 -0.2533 -0.2944
  124OSM    C5S13191   4.719   0.026   6.982  0.2076 -0.0518  0.3301
  124OSM    H5S13192   4.664  -0.010   6.893 -0.3478 -4.2228  2.2531
  124OSM    C6S13193   4.639   0.044   7.108  0.2795  0.4696  0.3882
  124OSM    H6S13194   4.644  -0.056   7.156 -1.1951  0.5875  0.8040
  124OSM    H6T13195   4.532   0.063   7.087  0.4234 -0.0427 -0.8415
  124OSM    C7S13196   4.701   0.154   7.196 -0.4542 -0.0488  0.1621
  124OSM    H7S13197   4.676   0.254   7.154 -0.4585 -0.3026 -0.4494
  124OSM    H7T13198   4.810   0.144   7.211 -0.9122 -1.0890  2.9776
  124OSM    C8S13199   4.636   0.152   7.333 -0.8617 -0.3181  0.1229
  124OSM    H8S13200   4.525   0.156   7.327 -0.7692  0.8109 -0.9491
  124OSM    H8T13201   4.649   0.250   7.382  0.1752  0.5041 -1.7549
  124OSM    C9S13202   4.685   0.044   7.428  0.4398 -0.0740  0.3167
  124OSM    H9S13203   4.794   0.031   7.411  0.4474  0.8933 -0.3823
  124OSM    H9T13204   4.651  -0.058   7.400 -0.7489 -0.3298  2.5596
  124OSM   C10S13205   4.667   0.081   7.573 -0.5227 -0.8549  1.1159
  124OSM   H10S13206   4.556   0.091   7.585 -0.5090  0.4498  0.2163
  124OSM   H10T13207   4.710   0.178   7.605  0.7114 -0.7119 -0.9428
  124OSM   C11S13208   4.726  -0.020   7.671 -0.2045 -0.0273  0.0917
  124OSM   H11S13209   4.830   0.013   7.692  0.2961 -0.8358 -1.0553
  124OSM   H11T13210   4.733  -0.121   7.626  2.3462  0.3202 -0.3366
  124OSM   C12S13211   4.658  -0.018   7.809  0.2880 -0.1046  0.2110
  124OSM   H12S13212   4.679  -0.118   7.852 -0.2343 -0.2588  0.1030
  124OSM   H12T13213   4.552  -0.011   7.779  0.4405 -1.8722 -0.7764
  124OSM   C13S13214   4.708   0.099   7.897  0.1916  0.3504  0.2510
  124OSM   H13S13215   4.687   0.199   7.854  2.2352  0.2575 -1.0434
  124OSM   H13T13216   4.819   0.088   7.891  0.0064 -0.6989 -1.7913
  124OSM   C14S13217   4.678   0.082   8.047  0.1668  0.7302 -0.2338
  124OSM   H14S13218   4.575   0.118   8.069  0.4266  1.1125  0.3627
  124OSM   H14T13219   4.734   0.161   8.101 -0.0923  2.0199 -1.7861
  124OSM   C15S13220   4.701  -0.053   8.113  0.0587 -0.4667 -0.1181
  124OSM   H15S13221   4.801  -0.091   8.084 -0.3656  0.6104 -3.1978
  124OSM   H15T13222   4.636  -0.132   8.068  0.8977  0.2182 -2.5909
  124OSM   C16S13223   4.704  -0.048   8.267  0.3725 -0.7041  0.2868
  124OSM   H16S13224   4.696  -0.151   8.308  0.1476 -0.4249  0.9540
  124OSM   H16T13225   4.605  -0.003   8.293 -1.1632 -2.1492 -2.7981
  124OSM   C17S13226   4.816   0.028   8.326 -0.0154  0.2930 -0.0088
  124OSM   H17S13227   4.789   0.133   8.301  1.9808  0.0804 -3.3194
  124OSM   H17T13228   4.904   0.027   8.258 -0.3444  1.1848 -0.4558
  124OSM   C18S13229   4.832   0.004   8.475 -0.1416 -0.2687  0.4774
  124OSM   H18S13230   4.766   0.058   8.546  1.9349  0.2255  2.1001
  124OSM   H18T13231   4.942   0.004   8.493  0.0073  1.4744 -0.3103
  124OSM   H18U13232   4.810  -0.100   8.507 -1.1341 -0.7400 -1.5969
  124OSM    C1F13233   4.876   0.387   6.741  0.0637  0.1363  0.3595
  124OSM     OF13234   4.813   0.390   6.638  0.0188 -0.8545  0.1586
  124OSM    C2F13235   4.912   0.510   6.823 -0.0535 -0.0365 -0.2965
  124OSM    H2F13236   4.974   0.579   6.763  0.1729  1.0730  1.1836
  124OSM    H2G13237   4.969   0.480   6.914  0.9865  0.7822 -0.6821
  124OSM    C3F13238   4.782   0.586   6.853  0.1183 -0.1760 -0.3618
  124OSM    H3F13239   4.716   0.522   6.916 -1.1218  0.1468 -1.3276
  124OSM    H3G13240   4.732   0.619   6.760 -1.5820 -0.0325  0.5687
  124OSM    C4F13241   4.798   0.715   6.936  0.2012 -0.7188 -0.9578
  124OSM    H4F13242   4.700   0.767   6.936 -0.9194 -2.7794 -1.2457
  124OSM    H4G13243   4.871   0.781   6.883 -0.1088  0.9598  0.6794
  124OSM    C5F13244   4.830   0.682   7.085  0.7160 -0.1527  0.6104
  124OSM    H5F13245   4.908   0.603   7.092  1.6910  0.7395 -0.1034
  124OSM    H5G13246   4.733   0.640   7.121  0.1038  0.3783 -0.3992
  124OSM    C6F13247   4.859   0.805   7.166 -0.2108  0.0139 -0.0354
  124OSM    H6F13248   4.785   0.882   7.133  0.3092 -0.0400 -1.3770
  124OSM    H6G13249   4.961   0.840   7.140  0.7836 -1.4706  1.7705
  124OSM    C7F13250   4.847   0.782   7.319  0.8976  0.9548  0.1301
  124OSM    H7F13251   4.939   0.733   7.357  3.2783  3.4750 -2.1560
  124OSM    H7G13252   4.765   0.707   7.324  3.2364 -1.6183  1.0598
  124OSM    C8F13253   4.801   0.906   7.398 -0.0165 -0.5133  0.3495
  124OSM    H8F13254   4.882   0.981   7.391  1.4242 -2.0717 -0.1372
  124OSM    H8G13255   4.799   0.872   7.504 -1.3783 -2.6640 -0.3270
  124OSM    C9F13256   4.679   0.969   7.357 -0.5377  0.2396  0.1304
  124OSM    H9F13257   4.621   0.934   7.271 -0.2565  2.1854 -0.8528
  124OSM   C10F13258   4.625   1.081   7.404  0.7767  0.4838  0.2867
  124OSM   H10F13259   4.546   1.127   7.341  1.8728  1.5738 -0.3172
  124OSM   C11F13260   4.687   1.173   7.508  0.1645  0.6067  0.2397
  124OSM   H11F13261   4.669   1.282   7.495  0.1931  0.4490 -1.1609
  124OSM   H11G13262   4.797   1.165   7.517  0.1003 -0.8776 -0.2437
  124OSM   C12F13263   4.631   1.160   7.645  0.0908 -0.0515 -0.3248
  124OSM   H12F13264   4.619   1.052   7.669 -0.5542  0.0824 -0.0137
  124OSM   H12G13265   4.527   1.201   7.639 -0.4512 -1.4143 -0.3389
  124OSM   C13F13266   4.707   1.230   7.763 -0.0069  0.0056 -0.1126
  124OSM   H13F13267   4.680   1.338   7.766  0.1359  0.1113 -2.1554
  124OSM   H13G13268   4.814   1.209   7.742 -0.4557 -2.5855  0.0969
  124OSM   C14F13269   4.671   1.161   7.894  0.4318 -0.5555  0.1805
  124OSM   H14F13270   4.704   1.056   7.883 -0.8302 -0.8801 -0.6478
  124OSM   H14G13271   4.562   1.147   7.909  1.0030 -3.6873  1.8627
  124OSM   C15F13272   4.742   1.213   8.021 -0.1751 -0.1206 -0.3808
  124OSM   H15F13273   4.743   1.324   8.021 -0.5380 -0.1162 -0.6254
  124OSM   H15G13274   4.846   1.175   8.009 -0.4712 -1.1057  0.0778
  124OSM   C16F13275   4.700   1.167   8.162 -0.2333 -0.0231 -0.9276
  124OSM   H16F13276   4.737   1.063   8.169  0.6132  0.3846  1.3469
  124OSM   H16G13277   4.592   1.178   8.185 -0.1142  0.6840 -0.6658
  124OSM   C17F13278   4.755   1.259   8.272 -0.0138  0.7748  0.8732
  124OSM   H17F13279   4.734   1.207   8.368  0.0331  1.9444  1.5323
  124OSM   H17G13280   4.706   1.359   8.273 -2.2721 -0.2836 -1.7972
  124OSM   C18F13281   4.901   1.277   8.266 -0.2591 -0.0713  0.0367
  124OSM   H18F13282   4.945   1.352   8.335  0.0471 -1.5106  1.4362
  124OSM   H18G13283   4.944   1.289   8.165 -0.0058  1.9337  0.3643
  124OSM   H18H13284   4.939   1.177   8.295 -1.6422 -0.2075  1.4786
  125OSM      N13285   4.175   1.804   6.242 -0.1529  0.0654  0.2356
  125OSM    C1513286   4.043   1.838   6.318 -0.1071  0.7284  0.1846
  125OSM   H15A13287   4.023   1.752   6.381  0.3759  0.3096 -0.2287
  125OSM   H15B13288   3.958   1.841   6.251 -1.1156  1.3096  1.4774
  125OSM   H15C13289   4.048   1.931   6.372  0.9764  1.0036 -0.3690
  125OSM    C1413290   4.209   1.918   6.159  0.0652  0.1639 -0.2549
  125OSM   H14A13291   4.229   2.008   6.216 -0.9238  0.3567 -0.2051
  125OSM   H14B13292   4.130   1.943   6.089 -0.9656 -0.7103  0.5774
  125OSM   H14C13293   4.293   1.902   6.093 -0.7453  1.4868 -1.6385
  125OSM    C1313294   4.285   1.772   6.333  0.2272  0.1822 -0.5127
  125OSM   H13A13295   4.315   1.864   6.381 -1.3805  0.0809  0.7346
  125OSM   H13B13296   4.373   1.731   6.287 -0.0234 -0.0471 -0.7897
  125OSM   H13C13297   4.249   1.697   6.401 -3.2838 -0.3599 -2.8508
  125OSM    C1213298   4.142   1.685   6.146 -0.3561  0.0801 -0.2955
  125OSM   H12A13299   4.089   1.725   6.061  1.5007  2.4171 -0.4316
  125OSM   H12B13300   4.076   1.617   6.196 -0.1780  0.1532  0.0439
  125OSM    C1113301   4.264   1.606   6.093 -0.2341  0.1163  0.7418
  125OSM   H11A13302   4.334   1.679   6.046 -1.8569  0.0179 -1.9633
  125OSM   H11B13303   4.230   1.544   6.007  2.3969 -1.9704  1.1680
  125OSM      P13304   4.290   1.394   6.246  0.0542  0.3922  0.1220
  125OSM    O1313305   4.246   1.410   6.387  0.2126  0.2662  0.1185
  125OSM    O1413306   4.209   1.311   6.149  0.2794 -0.5126  0.2969
  125OSM    O1113307   4.425   1.312   6.259 -0.6963  0.1833  0.0350
  125OSM    O1213308   4.337   1.533   6.191 -0.0240 -0.3206 -0.0990
  125OSM    C1S13309   4.536   1.379   6.332 -0.1280  0.1550  0.3342
  125OSM    H1S13310   4.529   1.489   6.325  2.7565  0.2369 -2.3910
  125OSM    H1T13311   4.636   1.350   6.292  0.6981  0.8298  1.8627
  125OSM     NF13312   4.640   1.431   6.558 -0.3796  0.2514  0.0617
  125OSM    HNF13313   4.724   1.384   6.585 -0.3861  0.4351  0.4062
  125OSM    C2S13314   4.540   1.352   6.488 -0.1107  0.6108 -0.3556
  125OSM    H2S13315   4.445   1.384   6.535 -0.2504  1.3924 -1.1578
  125OSM    C3S13316   4.555   1.205   6.502  0.6182 -0.4100  0.0519
  125OSM    H3S13317   4.661   1.190   6.476  0.6855 -1.1365  0.7332
  125OSM     O313318   4.485   1.115   6.415 -0.1258 -0.2384 -0.0516
  125OSM    HO313319   4.450   1.172   6.346 -0.4233  0.6699  0.8268
  125OSM    C4S13320   4.535   1.154   6.637 -0.9440  0.2846 -0.4954
  125OSM    H4S13321   4.428   1.146   6.662 -0.8882  1.4679  0.1712
  125OSM    C5S13322   4.631   1.117   6.726 -0.3205 -0.3079  0.0873
  125OSM    H5S13323   4.733   1.148   6.695  0.5095 -1.3736  1.7182
  125OSM    C6S13324   4.612   1.071   6.868 -0.3924  0.1999  0.5129
  125OSM    H6S13325   4.629   1.155   6.939 -1.2362  0.6608  0.1821
  125OSM    H6T13326   4.698   1.006   6.893  0.2285 -0.2781 -2.6680
  125OSM    C7S13327   4.471   1.017   6.899  0.1848 -0.1093 -0.5101
  125OSM    H7S13328   4.462   0.935   6.825 -1.7430  0.4015 -0.8542
  125OSM    H7T13329   4.395   1.086   6.858 -0.4663 -0.3557  0.2770
  125OSM    C8S13330   4.451   0.969   7.042  0.4256 -0.3776 -0.2071
  125OSM    H8S13331   4.468   1.059   7.104 -0.2035 -0.4476  0.0734
  125OSM    H8T13332   4.532   0.897   7.068  0.0868 -0.0436  1.8158
  125OSM    C9S13333   4.307   0.924   7.071 -0.3987  0.2928  0.0066
  125OSM    H9S13334   4.293   0.823   7.027 -0.9685  1.2192 -1.9886
  125OSM    H9T13335   4.227   0.983   7.021  0.1757 -0.7191 -2.1767
  125OSM   C10S13336   4.267   0.894   7.213  0.1311  0.3869  0.3973
  125OSM   H10S13337   4.342   0.834   7.269  1.7092  1.1255 -0.8793
  125OSM   H10T13338   4.182   0.823   7.214  0.4137  0.0145 -0.9437
  125OSM   C11S13339   4.233   1.018   7.293  0.1968  0.4793  0.1946
  125OSM   H11S13340   4.131   1.054   7.265  0.3302  1.3816  0.8496
  125OSM   H11T13341   4.307   1.100   7.281 -0.8210  1.2646 -0.8199
  125OSM   C12S13342   4.230   0.992   7.445  0.3970 -0.4019 -0.7342
  125OSM   H12S13343   4.315   0.926   7.472  0.3603 -0.5297 -0.9264
  125OSM   H12T13344   4.139   0.937   7.476  1.0777 -2.2678 -1.9818
  125OSM   C13S13345   4.225   1.121   7.527  0.0067 -0.1025 -0.5303
  125OSM   H13S13346   4.124   1.160   7.500 -0.4835 -1.5335 -0.7999
  125OSM   H13T13347   4.301   1.192   7.489  0.0431  0.4909  0.6223
  125OSM   C14S13348   4.242   1.091   7.673 -0.4130  0.8856  0.5931
  125OSM   H14S13349   4.343   1.065   7.711 -0.7048 -1.4000 -0.1203
  125OSM   H14T13350   4.174   1.008   7.701  0.9150 -0.4064  0.0365
  125OSM   C15S13351   4.208   1.218   7.762 -0.1749  0.2827  0.8308
  125OSM   H15S13352   4.136   1.280   7.706 -0.0028  1.0194  1.4176
  125OSM   H15T13353   4.295   1.285   7.778 -0.2611  0.4602  0.5407
  125OSM   C16S13354   4.167   1.190   7.904  0.2253 -0.4583  0.5201
  125OSM   H16S13355   4.089   1.110   7.909  1.4925 -1.6162  2.4685
  125OSM   H16T13356   4.117   1.283   7.940 -0.1937 -0.4192 -0.1516
  125OSM   C17S13357   4.280   1.151   8.006  0.3095 -0.0425  0.1088
  125OSM   H17S13358   4.342   1.240   8.029  1.8231 -1.1907  0.5186
  125OSM   H17T13359   4.344   1.071   7.962  0.5383 -0.1938  0.7161
  125OSM   C18S13360   4.220   1.100   8.138 -0.9516  1.0513 -0.3307
  125OSM   H18S13361   4.163   1.007   8.117  2.1713 -0.9454 -0.3631
  125OSM   H18T13362   4.155   1.169   8.196 -0.1319  0.6684  1.0858
  125OSM   H18U13363   4.299   1.062   8.207  0.3129  0.5542 -2.0274
  125OSM    C1F13364   4.635   1.561   6.580 -0.3249 -0.2827 -0.1775
  125OSM     OF13365   4.540   1.630   6.539  0.0376 -0.3958 -0.4717
  125OSM    C2F13366   4.749   1.613   6.658 -0.3215 -0.6178 -0.1594
  125OSM    H2F13367   4.847   1.622   6.607 -0.5082 -1.5814 -0.6883
  125OSM    H2G13368   4.764   1.540   6.740 -4.2456 -1.9236 -0.4745
  125OSM    C3F13369   4.713   1.747   6.728 -0.9391 -0.3534  0.3407
  125OSM    H3F13370   4.620   1.738   6.789 -1.1588  0.1808  0.0881
  125OSM    H3G13371   4.683   1.814   6.644  1.6780  1.0950  0.5252
  125OSM    C4F13372   4.839   1.811   6.794 -0.6870  0.4933 -0.6175
  125OSM    H4F13373   4.919   1.830   6.719  0.2298 -1.2826 -0.1303
  125OSM    H4G13374   4.876   1.742   6.873 -0.0449  1.3096 -0.2034
  125OSM    C5F13375   4.800   1.938   6.873 -0.0011  0.3068 -0.2196
  125OSM    H5F13376   4.719   1.922   6.948  0.8235  0.4119  0.7011
  125OSM    H5G13377   4.763   2.009   6.796 -1.4219  1.4376  1.4697
  125OSM    C6F13378   4.912   2.010   6.951  0.4344  0.5871  0.0253
  125OSM    H6F13379   4.891   2.118   6.958 -0.6526  0.3365  0.8600
  125OSM    H6G13380   5.001   2.017   6.886 -0.0091  1.2922 -0.5138
  125OSM    C7F13381   4.935   1.940   7.089 -0.3350 -0.2905 -0.5234
  125OSM    H7F13382   4.962   1.835   7.068 -0.3400 -0.1791 -1.0806
  125OSM    H7G13383   4.832   1.936   7.132  0.0837 -0.2311  0.4905
  125OSM    C8F13384   5.029   2.020   7.183 -0.1624  0.9859  0.4209
  125OSM    H8F13385   5.135   2.031   7.152 -0.5451  0.5116 -1.1309
  125OSM    H8G13386   5.028   1.948   7.267  2.0453 -1.2050 -1.3563
  125OSM    C9F13387   4.965   2.152   7.210  0.1349  0.1104  0.2776
  125OSM    H9F13388   4.985   2.231   7.137  2.2174  0.3725  1.1122
  125OSM   C10F13389   4.913   2.200   7.328 -0.4669 -0.2482 -0.6986
  125OSM   H10F13390   4.868   2.300   7.331 -0.4238 -0.1985 -1.8274
  125OSM   C11F13391   4.898   2.123   7.457  0.6004 -0.2548  0.5278
  125OSM   H11F13392   4.927   2.016   7.452 -0.2378 -0.4268 -0.6869
  125OSM   H11G13393   4.792   2.132   7.487 -0.4721  2.9384 -3.7652
  125OSM   C12F13394   4.985   2.185   7.576 -0.2200 -0.8065  0.5484
  125OSM   H12F13395   4.970   2.295   7.573 -0.5519 -0.8830 -1.5354
  125OSM   H12G13396   5.090   2.155   7.557 -0.6869 -1.9294 -0.3846
  125OSM   C13F13397   4.938   2.139   7.708 -0.0673  0.4669 -0.3829
  125OSM   H13F13398   4.974   2.034   7.714 -1.8626 -0.3844 -3.3329
  125OSM   H13G13399   4.827   2.141   7.709 -0.0745  0.5690 -1.0630
  125OSM   C14F13400   4.999   2.213   7.830  0.5881  0.1512 -0.1249
  125OSM   H14F13401   5.104   2.236   7.800  1.4759 -2.3676  0.8894
  125OSM   H14G13402   5.013   2.141   7.913  2.2535  1.6147  0.8959
  125OSM   C15F13403   4.916   2.331   7.863 -0.1740 -0.2450 -0.3946
  125OSM   H15F13404   4.822   2.294   7.909  1.1832  0.5705  3.2415
  125OSM   H15G13405   4.893   2.383   7.767  1.1200 -2.4426 -1.9222
  125OSM   C16F13406   4.974   2.402   7.980  0.1532 -0.3067 -0.7150
  125OSM   H16F13407   5.019   2.346   8.065 -1.1396 -0.4687 -0.1365
  125OSM   H16G13408   4.899   2.464   8.033  0.5269 -0.3388 -0.1373
  125OSM   C17F13409   5.077   2.520   7.934  0.4550 -0.0263  0.1287
  125OSM   H17F13410   5.166   2.484   7.878 -0.7705 -1.5191 -0.9002
  125OSM   H17G13411   5.120   2.542   8.034 -1.8280  1.9265  0.7001
  125OSM   C18F13412   5.010   2.646   7.892 -0.6410  0.2318 -0.3828
  125OSM   H18F13413   4.943   2.683   7.973  0.3113  0.2244  0.4206
  125OSM   H18G13414   4.952   2.631   7.798  1.5717  0.1557 -1.7763
  125OSM   H18H13415   5.085   2.726   7.872  0.9110 -0.9499  0.6368
  126OSM      N13416   1.927   0.457   6.325 -0.4177 -0.2800 -0.1331
  126OSM    C1513417   1.803   0.549   6.301  0.3024  0.0665 -0.4688
  126OSM   H15A13418   1.781   0.552   6.196 -0.6434 -0.3933 -0.2994
  126OSM   H15B13419   1.828   0.645   6.343  0.5538 -0.7430  1.2769
  126OSM   H15C13420   1.711   0.519   6.351 -0.1193  1.5975 -0.3119
  126OSM    C1413421   1.914   0.324   6.258 -0.3813 -1.0686 -0.1235
  126OSM   H14A13422   2.002   0.263   6.269 -0.1913 -0.4369  2.1340
  126OSM   H14B13423   1.901   0.333   6.151  0.4004 -0.7608 -0.2001
  126OSM   H14C13424   1.829   0.266   6.291 -2.9787  2.6739  0.0815
  126OSM    C1313425   2.035   0.534   6.262 -0.4298 -0.1046 -0.9495
  126OSM   H13A13426   2.125   0.475   6.254 -0.4168 -0.0915 -0.9018
  126OSM   H13B13427   2.058   0.625   6.316  0.1854 -0.2807 -0.9017
  126OSM   H13C13428   2.007   0.558   6.161 -2.4094 -1.8023 -0.8268
  126OSM    C1213429   1.956   0.434   6.482 -0.2445 -0.2750  0.6678
  126OSM   H12A13430   2.054   0.390   6.492 -0.5669 -0.8725  1.2211
  126OSM   H12B13431   1.887   0.357   6.513 -1.1279  0.8080  1.4526
  126OSM    C1113432   1.942   0.555   6.582  0.8217 -0.5738 -0.4690
  126OSM   H11A13433   1.956   0.513   6.684 -0.4048 -0.0396 -0.0652
  126OSM   H11B13434   1.836   0.590   6.574  1.1137  0.0113 -2.0578
  126OSM      P13435   2.196   0.630   6.592  0.1174 -0.5599  0.0938
  126OSM    O1313436   2.265   0.510   6.529 -0.1098  0.1335  0.0972
  126OSM    O1413437   2.266   0.761   6.572 -0.4863  0.1987 -0.0362
  126OSM    O1113438   2.187   0.610   6.756 -0.2722 -0.1738 -0.0161
  126OSM    O1213439   2.046   0.648   6.546  0.0194 -0.1702  0.5694
  126OSM    C1S13440   2.145   0.729   6.828  0.3551 -0.6803  0.2108
  126OSM    H1S13441   2.039   0.743   6.798  0.5584  1.3803  0.4009
  126OSM    H1T13442   2.197   0.822   6.796  1.6561 -0.9296  1.5244
  126OSM     NF13443   2.130   0.857   7.032 -0.2389  0.3530 -0.9016
  126OSM    HNF13444   2.212   0.909   7.054  1.0586 -1.9877  0.0219
  126OSM    C2S13445   2.150   0.725   6.983  0.2411 -0.3780 -0.6328
  126OSM    H2S13446   2.064   0.667   7.021  1.0919 -1.0937  0.2213
  126OSM    C3S13447   2.285   0.658   7.027  0.5412  0.4608 -0.9421
  126OSM    H3S13448   2.370   0.717   6.985  1.3638 -0.2816 -0.3325
  126OSM     O313449   2.303   0.523   6.984 -0.3741 -0.3745  0.2705
  126OSM    HO313450   2.244   0.510   6.909 -0.6018 -2.9646  0.8799
  126OSM    C4S13451   2.303   0.670   7.171 -0.1121  0.7048 -1.2242
  126OSM    H4S13452   2.375   0.751   7.193 -0.4540  0.8949 -0.8012
  126OSM    C5S13453   2.248   0.597   7.272 -0.3973  0.3389 -0.4664
  126OSM    H5S13454   2.173   0.521   7.245  0.4432 -0.5334 -0.3778
  126OSM    C6S13455   2.275   0.606   7.418  0.7328  0.0515 -0.3858
  126OSM    H6S13456   2.376   0.651   7.424  1.1567 -0.6957 -1.5745
  126OSM    H6T13457   2.282   0.508   7.468  3.7392  0.8010  0.7438
  126OSM    C7S13458   2.158   0.678   7.493 -0.3337  0.1532 -0.4396
  126OSM    H7S13459   2.056   0.639   7.473 -0.3029 -1.3081  2.0888
  126OSM    H7T13460   2.157   0.784   7.460 -1.3402 -0.3487 -2.0817
  126OSM    C8S13461   2.197   0.669   7.644  0.2352  0.1564  0.0287
  126OSM    H8S13462   2.298   0.713   7.660  1.2327 -3.0142  2.9079
  126OSM    H8T13463   2.202   0.566   7.686  2.5668  0.3851  0.3859
  126OSM    C9S13464   2.094   0.745   7.728  0.0630 -0.5232 -0.5842
  126OSM    H9S13465   1.997   0.690   7.732 -1.6489  2.3557 -1.2377
  126OSM    H9T13466   2.067   0.849   7.701 -1.8060 -0.2595  2.0990
  126OSM   C10S13467   2.153   0.772   7.870 -0.1835  0.2488  0.0941
  126OSM   H10S13468   2.232   0.851   7.864  0.9317 -0.8960 -0.6096
  126OSM   H10T13469   2.206   0.679   7.899 -1.4650 -0.9333 -1.2632
  126OSM   C11S13470   2.054   0.816   7.971  0.8439  0.7157 -0.2258
  126OSM   H11S13471   1.984   0.732   7.987  0.6168  1.0303  0.4681
  126OSM   H11T13472   1.985   0.892   7.928 -1.1843 -1.4923 -0.9530
  126OSM   C12S13473   2.111   0.849   8.111 -0.1912  0.3699  0.2827
  126OSM   H12S13474   2.032   0.911   8.158 -1.6256 -0.5598 -0.8432
  126OSM   H12T13475   2.202   0.912   8.106 -0.5799  0.8768 -0.5417
  126OSM   C13S13476   2.143   0.730   8.200  0.9146 -0.5391  0.7389
  126OSM   H13S13477   2.209   0.651   8.157 -0.9914 -1.8025  0.0450
  126OSM   H13T13478   2.040   0.686   8.200 -1.3286  4.3761  0.2298
  126OSM   C14S13479   2.198   0.762   8.340 -0.0692 -0.2531 -0.4931
  126OSM   H14S13480   2.274   0.843   8.331 -2.0782  2.0348  2.2904
  126OSM   H14T13481   2.249   0.674   8.385 -1.2042  0.0969  1.5276
  126OSM   C15S13482   2.079   0.814   8.429 -0.1435  0.6525  0.6134
  126OSM   H15S13483   1.989   0.749   8.424 -0.2628  1.0051 -3.1184
  126OSM   H15T13484   2.056   0.919   8.400  2.4416  1.0911 -0.0625
  126OSM   C16S13485   2.125   0.822   8.576 -1.1803  0.8425 -0.2015
  126OSM   H16S13486   2.070   0.904   8.625 -0.7206  0.2815  1.2963
  126OSM   H16T13487   2.230   0.858   8.566 -0.2895 -1.9252 -1.3738
  126OSM   C17S13488   2.124   0.685   8.650 -0.0298  0.3136  0.2532
  126OSM   H17S13489   2.154   0.702   8.756  2.3999 -1.0615 -0.1847
  126OSM   H17T13490   2.193   0.612   8.604 -1.1456 -1.0492  0.7016
  126OSM   C18S13491   1.981   0.626   8.658  0.1505  0.5993 -1.5115
  126OSM   H18S13492   1.952   0.582   8.560  0.8757  0.8231 -1.8299
  126OSM   H18T13493   1.910   0.707   8.686  0.1123 -0.2504  0.9310
  126OSM   H18U13494   1.970   0.542   8.729  0.4696  0.9510 -1.0412
  126OSM    C1F13495   2.003   0.902   7.041 -0.2226  0.7768  0.6899
  126OSM     OF13496   1.902   0.829   7.018  0.0183 -0.2801  0.0073
  126OSM    C2F13497   1.996   1.047   7.064  0.4949 -0.1265 -0.0522
  126OSM    H2F13498   1.973   1.093   6.965  0.6084 -0.8925 -0.4383
  126OSM    H2G13499   2.096   1.082   7.098  0.2920 -1.4239  1.9621
  126OSM    C3F13500   1.892   1.088   7.165 -0.2528 -0.4557 -0.1917
  126OSM    H3F13501   1.922   1.035   7.259 -0.8198 -0.6804 -0.1353
  126OSM    H3G13502   1.793   1.048   7.133  0.0199  1.4042 -3.5544
  126OSM    C4F13503   1.884   1.240   7.205 -0.6084 -0.3080 -0.4153
  126OSM    H4F13504   1.843   1.295   7.117 -0.7775 -0.8657 -0.6871
  126OSM    H4G13505   1.987   1.278   7.223 -0.4541 -1.0208  0.2487
  126OSM    C5F13506   1.787   1.264   7.322 -0.6073  0.0974 -0.8816
  126OSM    H5F13507   1.693   1.214   7.290 -0.2592  0.4623 -2.4770
  126OSM    H5G13508   1.759   1.371   7.324  1.8203  0.7353  0.1169
  126OSM    C6F13509   1.832   1.231   7.467  0.0137  0.0543  0.0774
  126OSM    H6F13510   1.864   1.126   7.456 -0.2579  0.0142 -0.3226
  126OSM    H6G13511   1.738   1.255   7.522 -0.2020  0.8872 -0.6400
  126OSM    C7F13512   1.945   1.329   7.506  0.8745  0.1744  0.3421
  126OSM    H7F13513   1.905   1.433   7.498 -1.1000 -0.5782  0.1600
  126OSM    H7G13514   2.027   1.327   7.432  0.1028 -1.9615 -0.4732
  126OSM    C8F13515   1.995   1.306   7.647  0.3413  0.3379  0.2888
  126OSM    H8F13516   1.905   1.298   7.711 -2.3019 -0.4867 -3.3797
  126OSM    H8G13517   2.062   1.391   7.674  1.4634 -0.2137 -0.7148
  126OSM    C9F13518   2.080   1.182   7.645  0.3098  0.1228 -0.2579
  126OSM    H9F13519   2.052   1.119   7.558  1.5705  0.3304 -0.8225
  126OSM   C10F13520   2.168   1.147   7.738  0.1560  0.1264 -0.3798
  126OSM   H10F13521   2.218   1.051   7.722 -0.0635  0.0810 -0.7871
  126OSM   C11F13522   2.186   1.223   7.865 -0.3939  0.0257  0.0990
  126OSM   H11F13523   2.155   1.162   7.952  0.2295  0.6262  0.7594
  126OSM   H11G13524   2.127   1.317   7.871  2.4172  1.7903  0.8869
  126OSM   C12F13525   2.336   1.254   7.890 -1.1102  0.2799  0.1352
  126OSM   H12F13526   2.380   1.291   7.796  1.5668  2.0779  2.0295
  126OSM   H12G13527   2.382   1.156   7.916  2.5938  2.1564  0.9032
  126OSM   C13F13528   2.351   1.334   8.016  0.7206 -0.3495  0.0037
  126OSM   H13F13529   2.259   1.393   8.034 -0.8570 -1.8327 -2.8214
  126OSM   H13G13530   2.446   1.392   8.005  0.2972  0.2299 -0.7010
  126OSM   C14F13531   2.375   1.237   8.136 -0.0007 -0.2934  0.2977
  126OSM   H14F13532   2.462   1.168   8.126 -0.5680 -0.7960 -1.4036
  126OSM   H14G13533   2.284   1.175   8.155 -0.2538  0.0721  0.2820
  126OSM   C15F13534   2.400   1.319   8.254 -0.2498 -0.0440  0.8066
  126OSM   H15F13535   2.314   1.387   8.274 -1.3269 -0.8837 -0.8655
  126OSM   H15G13536   2.489   1.385   8.248 -1.9534  2.1909 -0.5021
  126OSM   C16F13537   2.421   1.238   8.382 -0.4550 -0.0066 -0.5455
  126OSM   H16F13538   2.457   1.307   8.461 -0.0407  3.1038 -3.3476
  126OSM   H16G13539   2.503   1.165   8.366  0.7610  1.0615  0.7131
  126OSM   C17F13540   2.296   1.158   8.429 -0.2763 -0.2767 -0.6487
  126OSM   H17F13541   2.338   1.103   8.515 -0.3576 -0.1705 -0.5422
  126OSM   H17G13542   2.264   1.089   8.348  0.8901  0.0601 -1.4204
  126OSM   C18F13543   2.175   1.241   8.475 -0.2738  0.0498  0.0553
  126OSM   H18F13544   2.120   1.188   8.556  1.3212 -0.2902  0.9313
  126OSM   H18G13545   2.101   1.260   8.394  1.3418 -0.7146 -1.6353
  126OSM   H18H13546   2.212   1.339   8.511  1.2794 -1.1677  1.8326
  127OSM      N13547   3.334   6.404   6.128  0.4692 -0.3549 -0.0642
  127OSM    C1513548   3.383   6.267   6.186 -0.5577  0.1121 -0.4225
  127OSM   H15A13549   3.296   6.205   6.193  0.7217 -1.6969 -0.2952
  127OSM   H15B13550   3.423   6.285   6.285 -0.6393  0.2847 -0.4211
  127OSM   H15C13551   3.451   6.213   6.122  1.5984  2.2570 -0.0263
  127OSM    C1413552   3.247   6.476   6.226  0.3519 -0.7116 -0.0949
  127OSM   H14A13553   3.220   6.574   6.190  1.3753  0.7708  2.9443
  127OSM   H14B13554   3.281   6.479   6.329  0.8392  0.6879 -0.2832
  127OSM   H14C13555   3.151   6.427   6.229 -0.7684  1.1774 -3.1206
  127OSM    C1313556   3.454   6.477   6.081 -0.0063 -0.0517  0.1608
  127OSM   H13A13557   3.521   6.500   6.163  2.5620  1.3615 -2.2568
  127OSM   H13B13558   3.421   6.570   6.038  0.5696  1.4850  2.9196
  127OSM   H13C13559   3.498   6.418   6.002 -0.0092 -1.0581  0.8954
  127OSM    C1213560   3.245   6.365   6.008  0.5552  0.1813  0.2956
  127OSM   H12A13561   3.304   6.314   5.934  0.7279 -0.8483  1.1331
  127OSM   H12B13562   3.208   6.450   5.953  0.1247 -0.4913 -0.4796
  127OSM    C1113563   3.117   6.275   6.031  0.5375  0.1124  0.0698
  127OSM   H11A13564   3.141   6.184   6.089 -1.8577  0.1330  1.1493
  127OSM   H11B13565   3.084   6.259   5.926  1.5311  1.3864 -0.4545
  127OSM      P13566   2.906   6.268   6.184  0.0332  0.0396 -0.1664
  127OSM    O1313567   2.836   6.356   6.282  1.1799 -0.2289  0.2607
  127OSM    O1413568   2.808   6.203   6.092  0.1939  0.4716 -0.8654
  127OSM    O1113569   2.987   6.148   6.259  0.3946  0.0697 -0.7155
  127OSM    O1213570   3.011   6.350   6.098  0.6009  1.0619 -0.5260
  127OSM    C1S13571   3.029   6.174   6.392 -0.3580  0.1586  0.9548
  127OSM    H1S13572   2.944   6.195   6.460 -2.3550  1.1334 -1.7677
  127OSM    H1T13573   3.096   6.263   6.397 -1.8224  1.2964  0.6135
  127OSM     NF13574   3.111   6.068   6.601 -0.0462 -0.8696 -0.2381
  127OSM    HNF13575   3.209   6.075   6.622  0.1424 -0.8115 -1.1470
  127OSM    C2S13576   3.089   6.047   6.457 -0.2358  0.7126  0.1073
  127OSM    H2S13577   3.012   5.967   6.448  1.8497 -1.5511  1.6065
  127OSM    C3S13578   3.211   6.000   6.385  0.4110  0.1195 -0.0637
  127OSM    H3S13579   3.287   6.078   6.404  1.3164 -0.6019 -0.6661
  127OSM     O313580   3.206   5.985   6.241 -0.1886  0.4941  0.4310
  127OSM    HO313581   3.141   6.051   6.215 -0.0520  0.0898 -0.9594
  127OSM    C4S13582   3.263   5.877   6.442 -0.8804  0.0827 -0.3536
  127OSM    H4S13583   3.334   5.885   6.525  0.2684 -0.4006 -1.2735
  127OSM    C5S13584   3.225   5.748   6.410  0.6022  0.0119 -0.6558
  127OSM    H5S13585   3.158   5.740   6.323 -0.0806  1.5889 -0.3033
  127OSM    C6S13586   3.285   5.623   6.463 -0.8090  0.9985 -0.3270
  127OSM    H6S13587   3.330   5.581   6.371 -1.3114  1.6855 -0.8945
  127OSM    H6T13588   3.210   5.554   6.509  1.4520 -0.6899  0.9079
  127OSM    C7S13589   3.398   5.634   6.570  0.3887  0.0781 -1.1331
  127OSM    H7S13590   3.474   5.706   6.534  0.6300 -1.0156 -2.8148
  127OSM    H7T13591   3.441   5.533   6.584 -0.2704 -0.0906 -0.2139
  127OSM    C8S13592   3.339   5.687   6.705  0.0436 -0.1903 -0.3324
  127OSM    H8S13593   3.236   5.646   6.718 -0.6091  0.5703 -2.7835
  127OSM    H8T13594   3.335   5.798   6.706  3.5672  0.0063 -0.6936
  127OSM    C9S13595   3.434   5.643   6.817 -0.5646 -0.1190 -0.1364
  127OSM    H9S13596   3.523   5.709   6.819 -1.2310  0.8079 -0.6612
  127OSM    H9T13597   3.464   5.538   6.798 -0.1721 -0.2525  1.1723
  127OSM   C10S13598   3.362   5.660   6.951 -0.3832 -0.4336 -0.4996
  127OSM   H10S13599   3.293   5.573   6.957  2.2804 -2.6152 -0.2746
  127OSM   H10T13600   3.307   5.755   6.963  0.1890 -0.3837  2.0195
  127OSM   C11S13601   3.469   5.673   7.063 -0.2371 -0.3536 -0.0565
  127OSM   H11S13602   3.514   5.775   7.060  1.7993 -1.2465 -0.9946
  127OSM   H11T13603   3.550   5.598   7.053  0.3451  0.0927  1.2877
  127OSM   C12S13604   3.401   5.669   7.207  0.3665  0.1663 -0.4497
  127OSM   H12S13605   3.382   5.560   7.220  1.8048  0.1536  1.9333
  127OSM   H12T13606   3.305   5.725   7.208 -0.8970 -1.9022 -1.5959
  127OSM   C13S13607   3.495   5.739   7.310  0.0678  0.2223 -0.3882
  127OSM   H13S13608   3.469   5.847   7.312  1.8758  0.7134 -2.0882
  127OSM   H13T13609   3.600   5.727   7.276 -0.9718 -2.1477 -2.9944
  127OSM   C14S13610   3.480   5.673   7.450 -0.0564 -0.8490 -0.2573
  127OSM   H14S13611   3.509   5.566   7.456  2.2744 -0.2828 -1.1845
  127OSM   H14T13612   3.374   5.667   7.482 -0.4213  0.7666 -1.0617
  127OSM   C15S13613   3.558   5.751   7.555  0.7454 -0.0654 -0.4434
  127OSM   H15S13614   3.561   5.858   7.525  2.2350 -0.0051 -0.1353
  127OSM   H15T13615   3.663   5.718   7.573  0.3994 -1.8616 -1.5442
  127OSM   C16S13616   3.481   5.744   7.695 -0.1300  0.3207  0.2874
  127OSM   H16S13617   3.451   5.640   7.719 -1.7411  1.1398  1.9754
  127OSM   H16T13618   3.384   5.788   7.664  0.3871  0.3426 -1.3336
  127OSM   C17S13619   3.543   5.815   7.811 -0.3358  0.2011  0.4552
  127OSM   H17S13620   3.558   5.919   7.774  0.2238  0.2359  0.7652
  127OSM   H17T13621   3.643   5.774   7.835 -0.6870 -1.8636 -1.4847
  127OSM   C18S13622   3.463   5.831   7.937  0.0650  0.1954  0.2209
  127OSM   H18S13623   3.461   5.724   7.969  0.8691  0.8373  2.5509
  127OSM   H18T13624   3.364   5.877   7.914 -0.5012 -0.0327  2.0567
  127OSM   H18U13625   3.508   5.891   8.019  0.6437  0.3138 -0.1927
  127OSM    C1F13626   3.015   6.093   6.689 -0.4368  0.3221 -0.1960
  127OSM     OF13627   2.900   6.065   6.665 -0.3388 -0.3203 -0.0255
  127OSM    C2F13628   3.055   6.133   6.823  0.7316 -0.0336  0.1732
  127OSM    H2F13629   3.128   6.217   6.814  0.9479 -0.1091  1.2097
  127OSM    H2G13630   3.105   6.042   6.860 -0.1993 -0.2890  0.8091
  127OSM    C3F13631   2.941   6.175   6.913  0.4139 -0.6913  0.2146
  127OSM    H3F13632   2.849   6.116   6.895  0.3711 -0.6775  0.3884
  127OSM    H3G13633   2.921   6.283   6.892 -1.1695 -0.9517  0.3457
  127OSM    C4F13634   2.971   6.169   7.060  0.2704  0.7111  0.2675
  127OSM    H4F13635   2.984   6.065   7.096 -1.3360  1.3982  2.8924
  127OSM    H4G13636   2.883   6.223   7.102 -0.1697  0.4299 -0.2940
  127OSM    C5F13637   3.110   6.221   7.099  0.2842 -0.5970  0.1615
  127OSM    H5F13638   3.139   6.312   7.043 -1.9846  0.7172  1.0426
  127OSM    H5G13639   3.176   6.132   7.098  0.6478 -0.3255  0.1865
  127OSM    C6F13640   3.112   6.274   7.244  0.4071 -0.3445 -0.2728
  127OSM    H6F13641   3.058   6.371   7.244  1.5384  0.3100 -1.6662
  127OSM    H6G13642   3.216   6.282   7.282  0.4431  0.6729 -0.5820
  127OSM    C7F13643   3.027   6.185   7.343  0.6811 -0.3685 -0.1085
  127OSM    H7F13644   3.045   6.077   7.323  0.6241 -0.6856  1.4535
  127OSM    H7G13645   2.919   6.197   7.324  1.0808  1.1943 -1.4298
  127OSM    C8F13646   3.061   6.214   7.495  0.1349  0.3671  0.3751
  127OSM    H8F13647   3.172   6.222   7.499  0.1453  0.1616  0.5347
  127OSM    H8G13648   3.025   6.131   7.559 -0.3206 -0.6350 -1.1391
  127OSM    C9F13649   2.994   6.345   7.533  0.0232 -0.3865  0.0165
  127OSM    H9F13650   3.016   6.429   7.465  1.2209  0.2913  1.2095
  127OSM   C10F13651   2.910   6.357   7.635 -0.0950 -0.1806 -0.1228
  127OSM   H10F13652   2.858   6.451   7.658  0.3814  0.0320  0.0818
  127OSM   C11F13653   2.864   6.249   7.724 -0.1150 -0.5342 -0.0190
  127OSM   H11F13654   2.933   6.164   7.742 -0.1433 -1.1415 -2.5443
  127OSM   H11G13655   2.772   6.204   7.681 -0.7738  0.2727  0.5259
  127OSM   C12F13656   2.816   6.309   7.861 -0.1113 -0.6538  0.1317
  127OSM   H12F13657   2.771   6.222   7.914 -0.2261 -1.9611 -2.0481
  127OSM   H12G13658   2.734   6.377   7.828 -0.5637 -2.0821 -1.7450
  127OSM   C13F13659   2.922   6.385   7.944 -0.5078 -0.0080  0.2121
  127OSM   H13F13660   2.996   6.435   7.877 -2.2276  0.4319 -1.3981
  127OSM   H13G13661   2.991   6.311   7.991 -0.8731  0.7838  2.0404
  127OSM   C14F13662   2.853   6.491   8.039  0.2515  0.7237 -0.5488
  127OSM   H14F13663   2.798   6.560   7.970 -1.3467 -0.9049 -0.9471
  127OSM   H14G13664   2.943   6.539   8.083 -1.5649  0.8757  3.1619
  127OSM   C15F13665   2.766   6.417   8.145 -0.7642  0.2967  0.0868
  127OSM   H15F13666   2.819   6.341   8.206 -0.5365 -0.4772 -1.0602
  127OSM   H15G13667   2.690   6.365   8.083  0.1382 -2.3665  1.1542
  127OSM   C16F13668   2.684   6.513   8.231  0.7938 -0.8828 -0.0114
  127OSM   H16F13669   2.582   6.471   8.237  0.0925  0.8930  0.6729
  127OSM   H16G13670   2.677   6.612   8.181  1.1449 -0.6236  0.4417
  127OSM   C17F13671   2.743   6.523   8.373  0.0418 -0.3224 -0.1768
  127OSM   H17F13672   2.846   6.565   8.369 -0.3541  0.5101 -3.2776
  127OSM   H17G13673   2.760   6.422   8.415  0.8350  0.4150  1.3276
  127OSM   C18F13674   2.652   6.602   8.469  0.1832 -0.4868 -0.9223
  127OSM   H18F13675   2.621   6.701   8.430  1.2292  0.4878  0.6521
  127OSM   H18G13676   2.708   6.613   8.565  0.1294 -2.5868 -0.6172
  127OSM   H18H13677   2.556   6.554   8.497  0.9267  0.1422  3.0871
  128OSM      N13678   5.774   3.053   5.640  0.1854 -0.8879 -0.5298
  128OSM    C1513679   5.761   2.906   5.613  0.9201  0.4182 -0.0692
  128OSM   H15A13680   5.744   2.850   5.704 -1.5661  0.9077 -0.1866
  128OSM   H15B13681   5.850   2.867   5.566  0.5173 -0.3474 -0.1993
  128OSM   H15C13682   5.680   2.883   5.544  3.1691  1.2999 -3.1129
  128OSM    C1413683   5.759   3.134   5.506  0.1441  0.5043  0.0477
  128OSM   H14A13684   5.783   3.238   5.521 -0.3883  0.8222 -1.2824
  128OSM   H14B13685   5.663   3.114   5.461  1.0547  0.6026 -1.9996
  128OSM   H14C13686   5.838   3.094   5.444 -0.5358 -1.3379  0.3325
  128OSM    C1313687   5.669   3.107   5.733  0.3514 -0.0863 -0.2314
  128OSM   H13A13688   5.568   3.082   5.701  0.2753  0.1986 -0.2137
  128OSM   H13B13689   5.689   3.211   5.753 -0.9831 -0.1635  1.6285
  128OSM   H13C13690   5.689   3.044   5.819  0.2356 -0.8027 -0.7228
  128OSM    C1213691   5.909   3.078   5.709  0.4642  0.2543 -0.0689
  128OSM   H12A13692   5.923   3.185   5.708 -0.8635  0.4370  0.3019
  128OSM   H12B13693   5.989   3.051   5.642 -0.8404 -3.6346 -0.2108
  128OSM    C1113694   5.929   3.032   5.855 -0.8267 -0.2592 -0.0323
  128OSM   H11A13695   5.857   3.086   5.920  1.3001  1.6494  0.8085
  128OSM   H11B13696   6.031   3.062   5.888 -0.4712 -1.0783 -0.3756
  128OSM      P13697   5.845   2.822   5.988  0.2343 -0.3597  0.0784
  128OSM    O1313698   5.698   2.831   5.973  0.0441  0.2240 -0.2984
  128OSM    O1413699   5.894   2.685   5.987 -0.3374  0.7788  0.2600
  128OSM    O1113700   5.894   2.907   6.122 -0.0660  0.1309  0.1218
  128OSM    O1213701   5.914   2.893   5.864 -0.4839 -0.0989 -0.4847
  128OSM    C1S13702   5.927   2.841   6.246 -0.1283  0.2283 -0.2864
  128OSM    H1S13703   6.017   2.777   6.228 -0.4573 -0.3860  0.2024
  128OSM    H1T13704   5.843   2.782   6.290 -1.4198  1.0497 -1.6423
  128OSM     NF13705   6.029   2.882   6.469  0.5809 -0.7078 -0.4145
  128OSM    HNF13706   5.974   2.837   6.539  1.4340 -1.2300 -0.0699
  128OSM    C2S13707   5.953   2.950   6.361  0.1971 -0.4852  0.4747
  128OSM    H2S13708   5.999   3.044   6.324  0.3394 -1.3467 -1.6611
  128OSM    C3S13709   5.810   2.987   6.400  0.7436  0.1013 -0.0531
  128OSM    H3S13710   5.749   2.895   6.417 -0.7278  0.7663 -1.6187
  128OSM     O313711   5.735   3.053   6.295  0.4771 -0.5733 -0.7454
  128OSM    HO313712   5.782   3.019   6.218  0.0347 -2.0606 -0.3694
  128OSM    C4S13713   5.813   3.068   6.521  0.3635  0.0526 -1.1192
  128OSM    H4S13714   5.839   3.000   6.604 -0.1069  2.2057  0.8377
  128OSM    C5S13715   5.796   3.196   6.546  0.2300 -0.0272 -0.5964
  128OSM    H5S13716   5.799   3.268   6.463  1.5516  1.9377  1.0935
  128OSM    C6S13717   5.802   3.264   6.681  0.0356  0.2655  0.5071
  128OSM    H6S13718   5.704   3.311   6.705 -0.2749  0.6852 -1.4343
  128OSM    H6T13719   5.869   3.352   6.672 -0.6834  0.7259 -0.4343
  128OSM    C7S13720   5.860   3.187   6.804  0.0257  0.4565 -0.6172
  128OSM    H7S13721   5.954   3.137   6.771 -0.0646 -0.4971  0.5847
  128OSM    H7T13722   5.794   3.103   6.832  0.5719  0.5853  1.1405
  128OSM    C8S13723   5.886   3.274   6.922 -0.1219 -0.8460 -0.2672
  128OSM    H8S13724   5.813   3.357   6.931 -0.6992 -1.2535 -1.2046
  128OSM    H8T13725   5.989   3.313   6.907  0.1080 -1.4635 -0.2729
  128OSM    C9S13726   5.886   3.195   7.056 -0.4960  0.5645 -0.3544
  128OSM    H9S13727   5.967   3.119   7.051 -0.8055  0.2204 -0.1482
  128OSM    H9T13728   5.788   3.150   7.081 -1.9710  3.2992 -0.9541
  128OSM   C10S13729   5.911   3.292   7.174 -0.0387  0.2543  0.0945
  128OSM   H10S13730   5.822   3.356   7.192 -1.6716 -2.3531  1.5369
  128OSM   H10T13731   5.991   3.361   7.137  0.9984 -1.3237 -0.6902
  128OSM   C11S13732   5.956   3.216   7.307 -0.4360  0.6809 -1.0089
  128OSM   H11S13733   6.059   3.181   7.284 -0.1151  1.7228 -1.1999
  128OSM   H11T13734   5.890   3.128   7.318 -1.0717  1.0330 -1.9432
  128OSM   C12S13735   5.937   3.300   7.432 -0.7353  0.3929 -0.7836
  128OSM   H12S13736   5.838   3.348   7.420 -0.8684  0.3198 -0.0092
  128OSM   H12T13737   6.020   3.372   7.442 -0.3116 -0.2521  0.5599
  128OSM   C13S13738   5.932   3.219   7.565 -0.0572 -0.5906  0.0294
  128OSM   H13S13739   6.019   3.150   7.566 -0.0002 -0.5605 -1.9467
  128OSM   H13T13740   5.847   3.147   7.557 -4.3490  4.0956  0.5581
  128OSM   C14S13741   5.930   3.310   7.690  0.5049 -0.1678 -0.1836
  128OSM   H14S13742   5.843   3.379   7.692 -0.4337 -1.3523  0.3930
  128OSM   H14T13743   6.020   3.375   7.678 -0.1458  0.3276 -2.6559
  128OSM   C15S13744   5.920   3.228   7.818  0.0476  0.0748  0.6034
  128OSM   H15S13745   6.016   3.184   7.853  1.0236  0.2233 -1.8179
  128OSM   H15T13746   5.857   3.140   7.793 -1.4352  1.3519 -0.2944
  128OSM   C16S13747   5.836   3.304   7.928  0.6337 -0.4922 -0.1995
  128OSM   H16S13748   5.739   3.328   7.880  0.1822 -1.7311  0.0695
  128OSM   H16T13749   5.894   3.398   7.942  1.0169 -0.9588  1.5363
  128OSM   C17S13750   5.822   3.236   8.067  0.2742  0.0179 -0.0072
  128OSM   H17S13751   5.747   3.154   8.073  0.9013 -0.7067 -1.9699
  128OSM   H17T13752   5.792   3.314   8.141  2.4419  2.2418 -1.3960
  128OSM   C18S13753   5.952   3.177   8.117 -1.0739  0.1448  0.1019
  128OSM   H18S13754   5.978   3.089   8.055  1.4605  1.0288 -0.1539
  128OSM   H18T13755   5.947   3.141   8.222  2.2795 -0.7907 -0.0183
  128OSM   H18U13756   6.040   3.244   8.113 -0.0999 -1.0695  0.6137
  128OSM    C1F13757   6.163   2.878   6.489  0.1119 -0.2614  0.7161
  128OSM     OF13758   6.237   2.945   6.421 -0.2575  0.0711  0.3954
  128OSM    C2F13759   6.207   2.777   6.595  0.1655 -0.0184  0.9074
  128OSM    H2F13760   6.301   2.728   6.560 -0.1382  0.8125 -1.1618
  128OSM    H2G13761   6.135   2.692   6.591 -0.1780  0.3265 -0.9820
  128OSM    C3F13762   6.215   2.828   6.736 -0.6283 -0.2133 -0.4019
  128OSM    H3F13763   6.116   2.864   6.771 -0.6347 -2.8491  2.6147
  128OSM    H3G13764   6.286   2.913   6.744  1.1984 -1.7429 -0.0479
  128OSM    C4F13765   6.262   2.721   6.841  0.3539  0.0465  1.2838
  128OSM    H4F13766   6.316   2.766   6.928  1.4077  1.2361  0.0339
  128OSM    H4G13767   6.331   2.648   6.793 -0.6535  0.2699 -0.5438
  128OSM    C5F13768   6.149   2.631   6.907 -0.5126  0.7810 -0.3541
  128OSM    H5F13769   6.200   2.564   6.980 -1.5083 -1.1356 -1.3715
  128OSM    H5G13770   6.105   2.552   6.842  1.9060 -0.4663 -0.5210
  128OSM    C6F13771   6.027   2.710   6.961  0.3824  0.2837  0.6844
  128OSM    H6F13772   5.958   2.645   7.019  1.2569  0.2312  1.6851
  128OSM    H6G13773   5.974   2.751   6.873  1.8050  1.7587  0.4820
  128OSM    C7F13774   6.065   2.822   7.055 -0.6774 -0.6099  0.0067
  128OSM    H7F13775   5.974   2.876   7.090 -0.2743 -0.8414  1.4396
  128OSM    H7G13776   6.128   2.895   7.000 -0.5561 -0.6002  0.1595
  128OSM    C8F13777   6.144   2.778   7.184  0.1145  0.4803 -0.3086
  128OSM    H8F13778   6.142   2.872   7.243 -0.6908  0.3811 -0.1623
  128OSM    H8G13779   6.248   2.754   7.155  0.0626 -1.3758  0.9413
  128OSM    C9F13780   6.069   2.675   7.265  0.5414 -0.0082  0.9499
  128OSM    H9F13781   6.074   2.582   7.208  0.4278  1.8526 -2.2200
  128OSM   C10F13782   6.030   2.671   7.391  0.2579 -0.7161 -0.5320
  128OSM   H10F13783   5.975   2.578   7.408 -1.3696  0.3420  0.1347
  128OSM   C11F13784   6.032   2.788   7.489 -0.0220  0.1009  0.5987
  128OSM   H11F13785   6.021   2.886   7.438  0.9516  0.5476  1.2235
  128OSM   H11G13786   6.128   2.786   7.545 -0.3399  0.7328  1.1859
  128OSM   C12F13787   5.914   2.769   7.588  0.6258  0.1854  0.0938
  128OSM   H12F13788   5.819   2.765   7.530  1.8440  0.9301 -1.9978
  128OSM   H12G13789   5.904   2.862   7.649 -1.9742  0.3436 -0.4906
  128OSM   C13F13790   5.930   2.651   7.686 -0.1359  1.2123 -0.0430
  128OSM   H13F13791   5.949   2.561   7.623 -0.2531  0.4225  1.0239
  128OSM   H13G13792   5.830   2.649   7.733  0.4474  1.4702  1.2354
  128OSM   C14F13793   6.026   2.660   7.804 -0.4907  0.9790 -0.2291
  128OSM   H14F13794   6.122   2.714   7.791 -0.2755  0.7438  0.3820
  128OSM   H14G13795   6.057   2.557   7.828  0.4563  1.1587 -0.6739
  128OSM   C15F13796   5.967   2.731   7.926 -0.0929 -0.8787 -0.4078
  128OSM   H15F13797   5.868   2.683   7.943 -1.3052  2.4490  2.6501
  128OSM   H15G13798   5.958   2.836   7.890 -1.2430 -1.2752 -1.2921
  128OSM   C16F13799   6.057   2.709   8.043 -0.5298 -0.1569 -0.4617
  128OSM   H16F13800   6.153   2.763   8.026 -0.5243 -0.6177 -1.9775
  128OSM   H16G13801   6.089   2.602   8.048  0.7154  0.1662 -1.1957
  128OSM   C17F13802   6.007   2.758   8.178 -0.5080 -0.4637 -0.1639
  128OSM   H17F13803   5.914   2.704   8.206 -0.5251 -0.3507 -0.0004
  128OSM   H17G13804   5.984   2.865   8.193 -0.7287 -0.4303 -0.7312
  128OSM   C18F13805   6.104   2.727   8.294  0.1031  0.1107 -0.2787
  128OSM   H18F13806   6.088   2.782   8.389 -1.8639 -0.2930 -0.3645
  128OSM   H18G13807   6.214   2.721   8.275  0.5456 -3.0164  2.7853
  128OSM   H18H13808   6.090   2.624   8.334  1.4699  1.1339  3.0643
  129OSM      N13809   2.078   6.026   6.335  0.8530  0.5076 -0.2890
  129OSM    C1513810   2.183   5.963   6.414 -0.1620 -0.6561 -0.3819
  129OSM   H15A13811   2.279   5.958   6.365  0.2162 -1.7452  0.4374
  129OSM   H15B13812   2.165   5.864   6.455  1.4291 -1.4297 -1.5141
  129OSM   H15C13813   2.221   6.028   6.492 -0.6795  0.8904 -1.4094
  129OSM    C1413814   1.945   6.015   6.409 -0.4319  0.2978 -0.6221
  129OSM   H14A13815   1.958   6.020   6.516 -0.9952  1.2883 -0.5917
  129OSM   H14B13816   1.913   5.913   6.391 -3.4486  0.9442  0.7973
  129OSM   H14C13817   1.877   6.094   6.381 -1.0441 -0.4717 -1.3257
  129OSM    C1313818   2.107   6.176   6.323  0.9813 -0.7237 -0.3033
  129OSM   H13A13819   2.114   6.216   6.423 -0.2051  0.1673 -0.5631
  129OSM   H13B13820   2.022   6.224   6.277  0.2403 -0.2204  1.5398
  129OSM   H13C13821   2.204   6.207   6.286  0.1884  1.4098 -0.6763
  129OSM    C1213822   2.075   5.983   6.188  0.4599  0.5586 -0.2749
  129OSM   H12A13823   2.009   6.048   6.132  0.3137  0.5288 -0.1375
  129OSM   H12B13824   2.026   5.887   6.189 -1.5210  1.5297  1.4355
  129OSM    C1113825   2.208   5.985   6.117  0.0099  0.1569  0.3347
  129OSM   H11A13826   2.203   5.943   6.014  1.2106 -0.3931  0.4900
  129OSM   H11B13827   2.265   5.910   6.175 -2.5915  0.2926  3.2023
  129OSM      P13828   2.425   6.128   6.130  0.0723 -0.2106  0.3554
  129OSM    O1313829   2.497   6.064   6.023 -1.0367  0.4951  0.5064
  129OSM    O1413830   2.453   6.267   6.165 -0.3581  0.1524 -0.2420
  129OSM    O1113831   2.443   6.044   6.262 -0.2054  0.2436 -0.2953
  129OSM    O1213832   2.267   6.114   6.094 -0.3530  0.3156 -0.2703
  129OSM    C1S13833   2.506   6.099   6.383 -0.3508  0.6047  0.8584
  129OSM    H1S13834   2.440   6.171   6.435 -0.1580  1.9069 -0.6775
  129OSM    H1T13835   2.600   6.154   6.361  1.0598 -1.8792  0.4658
  129OSM     NF13836   2.596   6.044   6.594 -0.1161 -0.8319 -0.2644
  129OSM    HNF13837   2.695   6.040   6.608  0.7205 -1.2310 -5.2684
  129OSM    C2S13838   2.539   5.980   6.479  0.4224 -0.1429 -0.0633
  129OSM    H2S13839   2.451   5.924   6.516  1.9027 -0.8563  2.4793
  129OSM    C3S13840   2.645   5.877   6.421 -0.1296 -0.1662 -0.2024
  129OSM    H3S13841   2.741   5.930   6.399  1.1530 -1.3752  2.2689
  129OSM     O313842   2.605   5.821   6.293  0.2330  0.2670 -0.5796
  129OSM    HO313843   2.535   5.883   6.268 -2.0583 -1.0941  2.1408
  129OSM    C4S13844   2.660   5.762   6.510 -0.0864 -0.4408 -0.4583
  129OSM    H4S13845   2.581   5.686   6.496 -1.0153  0.4126  0.0367
  129OSM    C5S13846   2.753   5.741   6.604 -0.3924  0.5025  0.2295
  129OSM    H5S13847   2.826   5.820   6.625 -0.3220  0.4683  0.1158
  129OSM    C6S13848   2.766   5.615   6.699  0.2163  0.4107  0.4556
  129OSM    H6S13849   2.874   5.598   6.721  0.5042  1.2899 -0.2274
  129OSM    H6T13850   2.741   5.524   6.640  1.3880  0.8978 -0.8228
  129OSM    C7S13851   2.699   5.624   6.829  0.2963 -0.2694 -0.7848
  129OSM    H7S13852   2.712   5.529   6.885  3.8624 -0.4310 -1.7778
  129OSM    H7T13853   2.591   5.631   6.805 -0.3534  3.7056  2.6444
  129OSM    C8S13854   2.737   5.744   6.922  0.4357  0.2935 -0.1090
  129OSM    H8S13855   2.685   5.838   6.894 -0.7153  0.5587  2.7009
  129OSM    H8T13856   2.846   5.763   6.911  0.7671 -1.4949 -0.0933
  129OSM    C9S13857   2.691   5.728   7.073 -0.5136  0.5148  0.7625
  129OSM    H9S13858   2.739   5.637   7.115 -0.8054 -0.1913 -0.3895
  129OSM    H9T13859   2.581   5.715   7.087 -0.6371 -0.8180 -1.1109
  129OSM   C10S13860   2.751   5.842   7.163  0.3870 -0.4391  0.9122
  129OSM   H10S13861   2.726   5.945   7.131  2.3992 -0.1182  0.3566
  129OSM   H10T13862   2.861   5.827   7.158  0.5959  1.5232 -0.6942
  129OSM   C11S13863   2.713   5.833   7.311 -0.1772 -0.4294 -0.6277
  129OSM   H11S13864   2.744   5.738   7.358  1.7220  0.3573 -0.2386
  129OSM   H11T13865   2.603   5.841   7.325 -0.2611 -2.3174 -0.0566
  129OSM   C12S13866   2.782   5.947   7.391  0.4332  0.8700  0.2721
  129OSM   H12S13867   2.737   6.036   7.344 -1.6449 -0.1621  0.2671
  129OSM   H12T13868   2.893   5.941   7.384  0.5635  0.7636  2.1801
  129OSM   C13S13869   2.735   5.934   7.538 -0.3942  0.6694  0.4504
  129OSM   H13S13870   2.801   6.001   7.596  0.7471 -1.3275  1.5121
  129OSM   H13T13871   2.752   5.830   7.573 -0.4121  0.5209  0.0292
  129OSM   C14S13872   2.595   5.978   7.563 -0.2030 -0.0608  0.1449
  129OSM   H14S13873   2.512   5.931   7.507 -0.5568  0.3961  0.2778
  129OSM   H14T13874   2.584   6.082   7.526 -0.9038 -0.1824  0.0055
  129OSM   C15S13875   2.565   5.980   7.714  0.1447 -0.7070 -0.2654
  129OSM   H15S13876   2.472   6.041   7.722 -0.1622 -1.4051  1.5897
  129OSM   H15T13877   2.633   6.042   7.777 -2.2054  1.6714  0.0183
  129OSM   C16S13878   2.543   5.839   7.776  0.0280 -0.4954 -0.0515
  129OSM   H16S13879   2.642   5.789   7.774 -0.7836 -2.2210  1.7103
  129OSM   H16T13880   2.476   5.780   7.711 -2.1784  1.4861  0.3241
  129OSM   C17S13881   2.498   5.835   7.926  0.2097 -0.4721  0.0776
  129OSM   H17S13882   2.453   5.733   7.932 -0.6136 -0.2187 -1.4740
  129OSM   H17T13883   2.422   5.912   7.946  0.2121 -0.7827  1.2957
  129OSM   C18S13884   2.614   5.856   8.021  0.3668  0.0804 -0.4190
  129OSM   H18S13885   2.583   5.856   8.128 -0.6053 -1.0409 -0.6927
  129OSM   H18T13886   2.650   5.959   8.000  0.7203  0.2410  0.9549
  129OSM   H18U13887   2.691   5.779   8.003 -0.2051 -0.1937 -1.7899
  129OSM    C1F13888   2.522   6.122   6.679  0.4302 -0.6717  0.7299
  129OSM     OF13889   2.403   6.114   6.655  0.2107 -0.3143  0.3604
  129OSM    C2F13890   2.589   6.201   6.786 -1.6035 -0.5530  0.8556
  129OSM    H2F13891   2.671   6.258   6.737 -2.8514 -0.8814 -1.7015
  129OSM    H2G13892   2.623   6.127   6.862  0.7439 -0.7411 -0.3524
  129OSM    C3F13893   2.511   6.317   6.845  0.1967 -0.7915 -0.4400
  129OSM    H3F13894   2.411   6.286   6.883  0.5304  0.1697  1.3077
  129OSM    H3G13895   2.487   6.392   6.767  0.4691 -1.7727 -1.4768
  129OSM    C4F13896   2.574   6.372   6.977 -0.1850  0.0482 -1.3948
  129OSM    H4F13897   2.505   6.455   7.002 -1.7428 -1.3449 -0.9576
  129OSM    H4G13898   2.664   6.430   6.947  0.0213  0.4728 -0.0143
  129OSM    C5F13899   2.601   6.272   7.086  0.0164  1.1549  0.4169
  129OSM    H5F13900   2.679   6.195   7.068  0.2957  1.1978  1.4196
  129OSM    H5G13901   2.516   6.203   7.105 -1.2917  2.4900 -0.4561
  129OSM    C6F13902   2.637   6.333   7.228  0.8508 -0.9271  0.1251
  129OSM    H6F13903   2.722   6.403   7.218  0.0598  0.4486  2.7187
  129OSM    H6G13904   2.676   6.255   7.297  0.3993 -0.5479  0.8074
  129OSM    C7F13905   2.522   6.417   7.287 -0.0235  0.4214  0.3982
  129OSM    H7F13906   2.429   6.360   7.309  1.9885 -2.9696  0.4974
  129OSM    H7G13907   2.497   6.484   7.202 -0.0360 -0.6500 -0.4680
  129OSM    C8F13908   2.560   6.508   7.400  0.9400 -0.1801 -0.3881
  129OSM    H8F13909   2.640   6.575   7.361 -0.7547  1.9432 -0.3485
  129OSM    H8G13910   2.613   6.443   7.472 -0.9840 -2.1326 -0.7013
  129OSM    C9F13911   2.451   6.579   7.475  0.2415 -0.1471  0.8406
  129OSM    H9F13912   2.425   6.679   7.438 -0.7562 -0.7211 -0.0364
  129OSM   C10F13913   2.364   6.513   7.559 -0.1300 -0.1779 -0.4939
  129OSM   H10F13914   2.277   6.567   7.600  0.7588  0.9826 -0.1098
  129OSM   C11F13915   2.366   6.363   7.597  0.0260  0.5531 -0.1467
  129OSM   H11F13916   2.468   6.322   7.580 -0.2509  0.2589 -1.1106
  129OSM   H11G13917   2.297   6.301   7.535 -2.3506 -0.3396  3.2073
  129OSM   C12F13918   2.325   6.327   7.742 -0.5150 -0.0131  0.2705
  129OSM   H12F13919   2.357   6.221   7.752 -1.9643 -0.2869  2.2212
  129OSM   H12G13920   2.219   6.337   7.773 -0.7605  0.6518 -0.7834
  129OSM   C13F13921   2.417   6.406   7.841  0.2466  0.0796 -0.2310
  129OSM   H13F13922   2.403   6.516   7.842  0.1810  0.0734 -0.3391
  129OSM   H13G13923   2.521   6.390   7.806  0.0076  0.1752 -1.0148
  129OSM   C14F13924   2.395   6.364   7.988  0.2117  0.5161  0.3708
  129OSM   H14F13925   2.290   6.389   8.015  0.0749 -0.4163  0.7138
  129OSM   H14G13926   2.452   6.440   8.046  0.5760  0.8314 -0.3919
  129OSM   C15F13927   2.428   6.221   8.029 -0.2741  0.6400  0.2051
  129OSM   H15F13928   2.534   6.211   7.998 -0.6604  0.4506 -1.0919
  129OSM   H15G13929   2.363   6.153   7.969 -1.2553  0.1650  1.7841
  129OSM   C16F13930   2.410   6.194   8.183  0.2938  0.2010  0.9402
  129OSM   H16F13931   2.457   6.274   8.244 -1.7153  1.9574  0.2150
  129OSM   H16G13932   2.444   6.094   8.220  1.1558  0.9932  2.3537
  129OSM   C17F13933   2.267   6.189   8.233  0.8081 -0.0112  0.1456
  129OSM   H17F13934   2.226   6.095   8.193 -1.1199  0.5209  0.8231
  129OSM   H17G13935   2.199   6.271   8.199 -0.0375 -0.3284  1.0605
  129OSM   C18F13936   2.255   6.177   8.387 -0.1497 -0.6905 -0.3478
  129OSM   H18F13937   2.302   6.083   8.423 -1.2785 -0.4064  1.9348
  129OSM   H18G13938   2.149   6.189   8.416  0.2037  1.6996  0.0393
  129OSM   H18H13939   2.318   6.245   8.449 -1.1219 -0.6808  0.6481
  130OSM      N13940   5.992   1.773   5.868 -0.0470  0.5144  0.2617
  130OSM    C1513941   6.023   1.806   5.728 -0.1259  0.4769 -0.0355
  130OSM   H15A13942   5.981   1.904   5.713  3.0549  1.8942 -0.0536
  130OSM   H15B13943   5.977   1.741   5.655 -1.0812  1.0213  0.0831
  130OSM   H15C13944   6.127   1.804   5.701 -0.1435 -0.7150 -0.0616
  130OSM    C1413945   5.844   1.770   5.893  0.1761  0.0084 -0.2453
  130OSM   H14A13946   5.786   1.707   5.827 -1.4643 -1.6103  2.6754
  130OSM   H14B13947   5.800   1.869   5.885  1.0153  0.4663  0.7159
  130OSM   H14C13948   5.826   1.749   5.997 -1.5911 -0.8944 -0.7160
  130OSM    C1313949   6.054   1.638   5.897  0.2685  0.0375  0.7049
  130OSM   H13A13950   6.162   1.635   5.895  0.5745  4.8192  3.7871
  130OSM   H13B13951   6.013   1.562   5.831  3.4080 -1.0046 -0.1411
  130OSM   H13C13952   6.022   1.603   5.994  2.9626 -1.1661  1.2010
  130OSM    C1213953   6.058   1.880   5.954 -0.7723  0.4893  0.4621
  130OSM   H12A13954   6.045   1.979   5.912  1.9863  0.4911 -0.4867
  130OSM   H12B13955   6.164   1.866   5.936 -1.4509 -1.1894 -2.5086
  130OSM    C1113956   6.037   1.888   6.110  0.3201  0.3828 -0.2323
  130OSM   H11A13957   5.927   1.902   6.121 -0.1941 -2.9723 -0.5705
  130OSM   H11B13958   6.097   1.974   6.147  0.1438  0.9772 -1.3114
  130OSM      P13959   6.229   1.743   6.220  0.0147 -0.3756 -0.1666
  130OSM    O1313960   6.266   1.607   6.179  0.5188 -0.6386  0.3127
  130OSM    O1413961   6.313   1.858   6.169 -0.4665  0.3254 -0.0424
  130OSM    O1113962   6.241   1.748   6.377 -0.1832 -0.2889 -0.0715
  130OSM    O1213963   6.080   1.765   6.173 -0.2349 -0.0461  0.4118
  130OSM    C1S13964   6.162   1.835   6.461 -0.8463  0.1566 -0.2296
  130OSM    H1S13965   6.059   1.854   6.426 -1.2650  2.5180  2.1066
  130OSM    H1T13966   6.207   1.937   6.455  0.2925 -0.0704  3.6033
  130OSM     NF13967   6.050   1.887   6.673 -0.5614  0.4509 -0.3262
  130OSM    HNF13968   6.074   1.973   6.716  1.6683  0.7859 -2.1892
  130OSM    C2S13969   6.157   1.804   6.616  0.2825 -0.1021 -0.3282
  130OSM    H2S13970   6.121   1.700   6.635  2.7295 -0.6584  1.5655
  130OSM    C3S13971   6.298   1.811   6.691  0.6770  0.8807  0.0450
  130OSM    H3S13972   6.341   1.913   6.685  2.1073  0.5881  3.8371
  130OSM     O313973   6.392   1.725   6.625  0.5324 -0.3183  0.2045
  130OSM    HO313974   6.350   1.706   6.541  4.7736 -3.9008 -1.3284
  130OSM    C4S13975   6.302   1.776   6.832  0.0173 -0.1849  0.6691
  130OSM    H4S13976   6.296   1.667   6.836 -1.4690 -0.1868 -0.8702
  130OSM    C5S13977   6.325   1.855   6.940 -0.3193 -0.0195  0.9645
  130OSM    H5S13978   6.325   1.965   6.930 -1.6289  0.2710  3.6722
  130OSM    C6S13979   6.337   1.815   7.090  1.2107 -0.1040  0.5603
  130OSM    H6S13980   6.344   1.704   7.099 -1.1084 -0.5715 -2.5125
  130OSM    H6T13981   6.242   1.843   7.140  1.9492  1.9468  0.8482
  130OSM    C7S13982   6.450   1.887   7.157 -0.5760  0.2965 -0.2506
  130OSM    H7S13983   6.444   1.998   7.149 -0.5321  0.5201  2.3693
  130OSM    H7T13984   6.543   1.848   7.109 -0.0072  0.4200  0.7349
  130OSM    C8S13985   6.466   1.862   7.313 -0.1975 -0.0607  0.4388
  130OSM    H8S13986   6.562   1.907   7.347  0.3622 -0.2210 -0.9077
  130OSM    H8T13987   6.469   1.751   7.324 -1.7616  0.0752  2.5498
  130OSM    C9S13988   6.342   1.901   7.402  0.1001  0.2098 -1.2704
  130OSM    H9S13989   6.256   1.834   7.381  0.0338  0.0191 -0.4087
  130OSM    H9T13990   6.324   2.008   7.380  5.0588  1.1810 -1.0435
  130OSM   C10S13991   6.374   1.873   7.554  0.1741  0.2037 -0.0451
  130OSM   H10S13992   6.459   1.931   7.595 -0.1220  0.6533 -0.0610
  130OSM   H10T13993   6.390   1.765   7.575 -1.3631  0.3521  2.0999
  130OSM   C11S13994   6.250   1.896   7.644 -0.0778  0.3862 -0.1606
  130OSM   H11S13995   6.167   1.830   7.610 -1.5984  2.2258 -0.0797
  130OSM   H11T13996   6.209   1.999   7.638 -0.3851  0.3009  0.3591
  130OSM   C12S13997   6.272   1.861   7.797 -0.3980 -0.1685 -0.4174
  130OSM   H12S13998   6.360   1.915   7.837 -1.5980  1.4892  0.0187
  130OSM   H12T13999   6.288   1.752   7.813 -1.7733 -0.3719 -0.3454
  130OSM   C13S14000   6.160   1.917   7.882 -0.4884 -0.7400 -0.4847
  130OSM   H13S14001   6.066   1.864   7.854 -0.5965  0.0333 -1.6137
  130OSM   H13T14002   6.149   2.022   7.848  3.4602  0.3322  1.2623
  130OSM   C14S14003   6.189   1.929   8.030  0.0103  0.0631 -0.1661
  130OSM   H14S14004   6.220   1.829   8.065 -0.2470 -0.0102 -0.1458
  130OSM   H14T14005   6.098   1.969   8.082 -0.4703 -0.1445 -0.8424
  130OSM   C15S14006   6.300   2.037   8.058  0.8395  0.1155 -0.0997
  130OSM   H15S14007   6.284   2.112   7.978 -1.5348  1.4695  1.5766
  130OSM   H15T14008   6.403   1.996   8.063  1.1960  0.9850 -0.2567
  130OSM   C16S14009   6.285   2.114   8.186 -0.3684  0.1398 -0.0816
  130OSM   H16S14010   6.193   2.175   8.177  0.7480  1.6687 -1.6934
  130OSM   H16T14011   6.366   2.191   8.188 -2.1032  1.9822  2.3586
  130OSM   C17S14012   6.287   2.036   8.317 -0.1892 -0.3797  0.3090
  130OSM   H17S14013   6.216   1.952   8.300 -1.1773  0.9554 -2.5535
  130OSM   H17T14014   6.250   2.100   8.400  0.2835 -1.1383  1.1201
  130OSM   C18S14015   6.418   1.971   8.351 -0.2555  0.8651 -0.1476
  130OSM   H18S14016   6.436   1.906   8.439  0.3903  0.5925 -0.4737
  130OSM   H18T14017   6.501   2.044   8.351  0.7882 -0.2825 -1.5913
  130OSM   H18U14018   6.453   1.910   8.265 -0.2616  2.0566 -1.0110
  130OSM    C1F14019   5.923   1.858   6.639  0.2016 -1.2619  0.2320
  130OSM     OF14020   5.894   1.774   6.557 -1.0780 -0.4554  0.6626
  130OSM    C2F14021   5.829   1.962   6.689 -0.4735  0.7070 -0.0878
  130OSM    H2F14022   5.786   2.010   6.599 -0.1365  1.5375  0.1875
  130OSM    H2G14023   5.888   2.043   6.738  0.2043  0.6213 -0.7442
  130OSM    C3F14024   5.718   1.898   6.783 -0.4844  0.1011  0.6348
  130OSM    H3F14025   5.686   1.806   6.730 -0.2357 -0.4253  1.3925
  130OSM    H3G14026   5.637   1.972   6.803 -0.5577  0.5203 -1.0782
  130OSM    C4F14027   5.790   1.856   6.917  0.4564  0.8958  0.5252
  130OSM    H4F14028   5.873   1.785   6.894  1.4151  1.7321  1.3560
  130OSM    H4G14029   5.715   1.807   6.982 -0.8143 -0.4168 -1.8326
  130OSM    C5F14030   5.852   1.971   7.003  0.2783  0.0569  0.7378
  130OSM    H5F14031   5.778   2.053   7.019  1.5853  1.0253  1.9008
  130OSM    H5G14032   5.942   2.013   6.954  1.4811 -2.1694  0.9683
  130OSM    C6F14033   5.884   1.915   7.141 -0.1793 -0.0919 -0.1469
  130OSM    H6F14034   5.964   1.837   7.137 -0.9535 -0.9221  0.4543
  130OSM    H6G14035   5.791   1.875   7.187 -0.8794  1.1932 -0.4337
  130OSM    C7F14036   5.943   2.031   7.233 -0.3969  0.4503  0.0915
  130OSM    H7F14037   5.871   2.116   7.230 -1.8257 -0.4281  4.7408
  130OSM    H7G14038   6.037   2.076   7.195  1.7254  1.3410  5.8416
  130OSM    C8F14039   5.964   1.992   7.385  0.3164 -0.0040 -0.0355
  130OSM    H8F14040   6.010   1.890   7.387 -0.7051 -0.4512  1.6159
  130OSM    H8G14041   5.863   1.983   7.431  0.8631  0.4403  1.2715
  130OSM    C9F14042   6.037   2.098   7.466  0.9500  0.2514  0.4024
  130OSM    H9F14043   6.142   2.117   7.438  1.2912 -1.5742  0.3528
  130OSM   C10F14044   5.997   2.183   7.562 -0.7465  0.5063  0.1571
  130OSM   H10F14045   6.072   2.238   7.620 -0.2596 -3.0807  3.1597
  130OSM   C11F14046   5.854   2.186   7.621  0.5222 -0.2196 -0.6664
  130OSM   H11F14047   5.782   2.123   7.564 -0.5187  1.8357 -1.7061
  130OSM   H11G14048   5.809   2.288   7.609  0.1943 -0.0136  2.0806
  130OSM   C12F14049   5.864   2.155   7.773 -0.0502  0.1753 -0.4944
  130OSM   H12F14050   5.927   2.067   7.799  0.9182  1.5569  2.0305
  130OSM   H12G14051   5.766   2.115   7.805  0.4547  1.5260  2.9241
  130OSM   C13F14052   5.882   2.276   7.867  0.2614 -0.5351  0.7607
  130OSM   H13F14053   5.800   2.349   7.846 -0.4353 -1.0395  1.6496
  130OSM   H13G14054   5.984   2.318   7.862 -0.0310  0.3295  1.7401
  130OSM   C14F14055   5.871   2.229   8.016  0.6361  0.2872  0.2545
  130OSM   H14F14056   5.949   2.151   8.033 -0.8942 -1.9591 -2.5146
  130OSM   H14G14057   5.771   2.191   8.045  0.0090  1.7182 -0.0007
  130OSM   C15F14058   5.907   2.337   8.117  0.6297 -0.2955 -0.4794
  130OSM   H15F14059   5.852   2.428   8.085 -1.5101 -1.7625 -1.1038
  130OSM   H15G14060   6.014   2.365   8.119  0.4519  0.4786 -1.3113
  130OSM   C16F14061   5.866   2.302   8.258  0.3678 -0.1185 -0.2327
  130OSM   H16F14062   5.898   2.200   8.285 -2.0907 -0.1854  2.7235
  130OSM   H16G14063   5.756   2.285   8.268  0.3290  1.0622  1.5816
  130OSM   C17F14064   5.929   2.393   8.366 -0.0339 -0.5718 -0.4982
  130OSM   H17F14065   5.874   2.488   8.350 -2.5056 -1.8782 -0.1117
  130OSM   H17G14066   6.038   2.406   8.351  0.0429  0.8701  1.2372
  130OSM   C18F14067   5.897   2.329   8.500  0.2226  0.3643 -0.4553
  130OSM   H18F14068   5.917   2.403   8.580 -0.0094 -0.5939  0.5068
  130OSM   H18G14069   5.966   2.242   8.510  1.8209  1.3727 -2.3025
  130OSM   H18H14070   5.803   2.272   8.514 -0.1554  1.4896  1.7571
  131OSM      N14071   2.599   3.886   5.705  0.0052  0.3913  0.0810
  131OSM    C1514072   2.480   3.818   5.766 -0.1351 -0.0293 -0.3145
  131OSM   H15A14073   2.435   3.879   5.843 -0.2093  0.3762 -0.6789
  131OSM   H15B14074   2.513   3.729   5.818 -1.5328 -1.1024 -1.2339
  131OSM   H15C14075   2.406   3.799   5.691  0.6636 -0.7770 -0.9163
  131OSM    C1414076   2.662   3.784   5.611 -0.0766 -0.5688 -0.5062
  131OSM   H14A14077   2.684   3.694   5.667  2.0932  0.9063  1.0721
  131OSM   H14B14078   2.752   3.831   5.575  0.2021  0.0558  0.9596
  131OSM   H14C14079   2.598   3.758   5.528 -1.3493  1.5290 -0.2174
  131OSM    C1314080   2.562   4.003   5.623 -0.1536 -0.2101 -0.2349
  131OSM   H13A14081   2.631   4.027   5.543  0.7826 -1.8005  0.0759
  131OSM   H13B14082   2.536   4.081   5.692  2.2607  0.7097 -0.3065
  131OSM   H13C14083   2.470   3.973   5.575 -1.4264  0.5627  1.6822
  131OSM    C1214084   2.695   3.927   5.808 -0.1106  0.6962  0.0165
  131OSM   H12A14085   2.776   3.982   5.763  0.2159 -0.8490 -1.3344
  131OSM   H12B14086   2.739   3.838   5.850 -3.1534 -0.8221  0.1497
  131OSM    C1114087   2.634   4.004   5.940  1.0499 -0.6628 -0.9032
  131OSM   H11A14088   2.718   4.019   6.011  0.1399 -0.3625  0.1322
  131OSM   H11B14089   2.560   3.935   5.986 -0.3658 -0.0505 -2.1999
  131OSM      P14090   2.653   4.261   5.871  0.2568 -0.5504  0.5727
  131OSM    O1314091   2.736   4.264   5.746  0.1405 -0.3332  0.0424
  131OSM    O1414092   2.573   4.384   5.886  0.6113 -0.4714  0.5048
  131OSM    O1114093   2.751   4.242   5.997 -0.3854 -0.0095 -0.3009
  131OSM    O1214094   2.564   4.130   5.898  0.6396  0.1209 -0.6713
  131OSM    C1S14095   2.837   4.356   6.031  0.1703  0.1800 -0.2854
  131OSM    H1S14096   2.781   4.452   6.025 -1.4013 -0.7247 -0.5992
  131OSM    H1T14097   2.923   4.366   5.961 -2.0343  1.5342 -2.9462
  131OSM     NF14098   2.982   4.470   6.190 -0.0169 -0.1139  0.4094
  131OSM    HNF14099   3.078   4.477   6.163 -0.9167  3.1753 -2.3035
  131OSM    C2S14100   2.913   4.343   6.167 -0.5685 -0.8182  0.1143
  131OSM    H2S14101   2.845   4.337   6.254  2.2292 -1.9101  2.3089
  131OSM    C3S14102   3.001   4.214   6.170  0.2570 -0.3927 -0.0377
  131OSM    H3S14103   3.073   4.236   6.088  0.3429  1.7639  0.5840
  131OSM     O314104   2.939   4.090   6.147  0.2195 -0.7667  0.0622
  131OSM    HO314105   2.850   4.115   6.119 -0.2821 -4.1173 -1.6229
  131OSM    C4S14106   3.068   4.196   6.299  0.7921  0.3931  0.1320
  131OSM    H4S14107   3.177   4.184   6.295  0.9366  0.1451  3.5541
  131OSM    C5S14108   3.015   4.165   6.416 -0.6825  0.0977  0.6645
  131OSM    H5S14109   2.907   4.162   6.437 -0.0387 -1.2230  4.2564
  131OSM    C6S14110   3.096   4.149   6.535  0.3721 -0.2421 -0.1754
  131OSM    H6S14111   3.204   4.141   6.512  1.1649  0.3159  3.0565
  131OSM    H6T14112   3.062   4.064   6.597 -2.3968  0.9584  0.0311
  131OSM    C7S14113   3.075   4.269   6.632  0.5583  0.2741 -0.3435
  131OSM    H7S14114   2.966   4.269   6.653  0.5504  0.1143 -0.3891
  131OSM    H7T14115   3.108   4.365   6.586  0.3135  0.3403 -0.3842
  131OSM    C8S14116   3.156   4.245   6.758 -0.3924 -0.5432  0.3407
  131OSM    H8S14117   3.258   4.232   6.716 -1.4597 -1.9734 -1.9059
  131OSM    H8T14118   3.126   4.151   6.809  2.5884 -1.0742  1.2218
  131OSM    C9S14119   3.151   4.356   6.861 -0.4032  0.0184  0.2654
  131OSM    H9S14120   3.048   4.399   6.857 -0.3418  0.0622 -0.9339
  131OSM    H9T14121   3.215   4.442   6.832  0.0655  0.0493  1.3766
  131OSM   C10S14122   3.163   4.311   7.009 -0.2425  0.8504  0.0407
  131OSM   H10S14123   3.265   4.279   7.040  0.1263  3.2111  1.3902
  131OSM   H10T14124   3.097   4.224   7.026 -0.0634  0.1135 -2.7765
  131OSM   C11S14125   3.123   4.428   7.100  0.0146  0.6198 -0.1327
  131OSM   H11S14126   3.023   4.471   7.078  0.0776  1.1907  0.6438
  131OSM   H11T14127   3.180   4.517   7.063  0.0595  1.3746  1.7058
  131OSM   C12S14128   3.134   4.400   7.256  0.7077 -0.2023 -0.1712
  131OSM   H12S14129   3.056   4.329   7.292 -1.1483  1.6642 -0.4114
  131OSM   H12T14130   3.120   4.497   7.308  2.8901 -0.0878  0.2350
  131OSM   C13S14131   3.268   4.342   7.306  0.1207  0.4286  0.5132
  131OSM   H13S14132   3.350   4.401   7.261 -1.2685  0.7146 -1.7387
  131OSM   H13T14133   3.291   4.238   7.273  0.8294 -0.0779  2.5775
  131OSM   C14S14134   3.281   4.346   7.459 -0.6351 -0.3765 -0.3748
  131OSM   H14S14135   3.212   4.271   7.502 -0.4014 -0.3910 -0.0166
  131OSM   H14T14136   3.244   4.445   7.494  1.2377  0.0523  0.4653
  131OSM   C15S14137   3.419   4.327   7.523  0.0465 -0.8317  0.1586
  131OSM   H15S14138   3.485   4.415   7.503  0.5712 -1.3561 -0.4435
  131OSM   H15T14139   3.478   4.244   7.477  1.7597 -0.2539  1.2374
  131OSM   C16S14140   3.416   4.319   7.676 -0.0694  0.6231 -0.1926
  131OSM   H16S14141   3.380   4.413   7.723  1.6217  0.8028  0.7913
  131OSM   H16T14142   3.522   4.311   7.711 -0.2093  0.3603  0.1681
  131OSM   C17S14143   3.353   4.198   7.733  0.0755 -0.3405 -0.0791
  131OSM   H17S14144   3.394   4.113   7.674  0.4907 -1.1949  1.4162
  131OSM   H17T14145   3.244   4.199   7.710 -0.2466  0.8874  1.3751
  131OSM   C18S14146   3.385   4.190   7.881 -0.8609  0.5145  0.1967
  131OSM   H18S14147   3.493   4.167   7.894 -0.7351  0.4334 -0.8800
  131OSM   H18T14148   3.323   4.104   7.916 -0.8366  0.1318 -0.6644
  131OSM   H18U14149   3.355   4.273   7.947 -0.2981  0.6957  0.2216
  131OSM    C1F14150   2.912   4.581   6.219  0.7205  0.5774 -0.9378
  131OSM     OF14151   2.791   4.585   6.225 -0.6333  0.1959 -0.4908
  131OSM    C2F14152   2.995   4.704   6.248 -0.1139 -0.3613  0.0542
  131OSM    H2F14153   3.006   4.751   6.148 -0.0867  1.7684  1.0358
  131OSM    H2G14154   3.088   4.674   6.300 -0.2988 -2.4861 -0.7909
  131OSM    C3F14155   2.921   4.814   6.334 -0.2730 -0.5932 -0.4839
  131OSM    H3F14156   2.829   4.854   6.287 -0.6822 -0.5327  0.3670
  131OSM    H3G14157   2.987   4.902   6.353  0.9463 -1.5481 -0.1782
  131OSM    C4F14158   2.882   4.774   6.475 -0.6745 -0.0495  0.0473
  131OSM    H4F14159   2.818   4.683   6.472 -1.2137  0.2826  1.2065
  131OSM    H4G14160   2.823   4.847   6.534  1.4860  0.7685  1.2476
  131OSM    C5F14161   3.003   4.738   6.564 -0.1007  0.0105  0.0803
  131OSM    H5F14162   3.087   4.800   6.527 -0.9872  0.3901 -1.3135
  131OSM    H5G14163   3.037   4.634   6.541 -0.8566 -0.3304  0.4848
  131OSM    C6F14164   2.981   4.733   6.713 -0.0922  0.0887  0.0026
  131OSM    H6F14165   2.901   4.660   6.736 -2.3165  1.1262 -3.8575
  131OSM    H6G14166   2.939   4.829   6.751  0.9879 -0.1430  1.8690
  131OSM    C7F14167   3.114   4.712   6.779 -0.2529  0.3636 -0.1343
  131OSM    H7F14168   3.163   4.624   6.732 -1.0639 -0.3646  0.3646
  131OSM    H7G14169   3.083   4.678   6.881 -1.8452 -1.8843 -1.3246
  131OSM    C8F14170   3.210   4.837   6.787 -0.1507 -0.2468 -0.0099
  131OSM    H8F14171   3.154   4.919   6.836  0.2911  0.8282 -1.2663
  131OSM    H8G14172   3.211   4.884   6.686 -2.0936  1.3614  0.6934
  131OSM    C9F14173   3.341   4.812   6.858 -0.1291  0.0465  0.3532
  131OSM    H9F14174   3.424   4.827   6.788  0.7186  0.2710  1.3952
  131OSM   C10F14175   3.367   4.786   6.993  0.0661 -0.3077  0.6033
  131OSM   H10F14176   3.472   4.791   7.026  1.0405  0.2213 -2.3925
  131OSM   C11F14177   3.267   4.777   7.108  0.8391  0.3009  0.6069
  131OSM   H11F14178   3.178   4.717   7.082  0.7730  0.7171 -0.1625
  131OSM   H11G14179   3.223   4.877   7.130 -0.1031 -0.2561  1.2869
  131OSM   C12F14180   3.329   4.719   7.234 -0.3989  0.0382 -0.1693
  131OSM   H12F14181   3.376   4.619   7.222 -1.5248 -0.2254 -2.6957
  131OSM   H12G14182   3.253   4.691   7.310  2.1128 -2.3865  1.5368
  131OSM   C13F14183   3.430   4.811   7.297 -0.1315  0.8973  0.2977
  131OSM   H13F14184   3.380   4.908   7.318 -3.2469 -0.7342  0.6808
  131OSM   H13G14185   3.520   4.828   7.233 -0.5307  0.6058 -0.3433
  131OSM   C14F14186   3.482   4.775   7.433 -0.0753 -0.1557  0.4219
  131OSM   H14F14187   3.552   4.855   7.467  0.4256 -0.6380  0.5468
  131OSM   H14G14188   3.541   4.681   7.426  1.4547  0.9319 -1.8725
  131OSM   C15F14189   3.372   4.747   7.539  0.3237 -0.1468 -0.0695
  131OSM   H15F14190   3.323   4.653   7.507  2.1514 -2.2060  2.9180
  131OSM   H15G14191   3.293   4.825   7.548  0.8106  0.4872 -1.1355
  131OSM   C16F14192   3.436   4.720   7.673 -0.2697 -0.0447  0.3780
  131OSM   H16F14193   3.495   4.810   7.701  1.0296 -0.9606  0.6583
  131OSM   H16G14194   3.504   4.632   7.680 -0.6923 -0.5024 -1.0132
  131OSM   C17F14195   3.324   4.678   7.770 -0.4258  0.6397 -0.6734
  131OSM   H17F14196   3.254   4.598   7.737 -0.5163  0.4371 -0.0143
  131OSM   H17G14197   3.265   4.772   7.782 -1.0666  0.1458  0.0983
  131OSM   C18F14198   3.384   4.644   7.909 -0.2480 -0.0624 -0.1004
  131OSM   H18F14199   3.300   4.651   7.981 -0.3733 -1.0567 -0.1455
  131OSM   H18G14200   3.468   4.706   7.948  0.0988  0.1338 -1.1555
  131OSM   H18H14201   3.418   4.538   7.915 -1.4007 -0.4513 -0.3619
  132OSM      N14202   5.618   5.884   5.977 -0.4050 -0.3417 -0.8624
  132OSM    C1514203   5.550   6.005   5.935  0.4294  0.3182  0.2600
  132OSM   H15A14204   5.619   6.088   5.922  0.0728  0.7977  1.3511
  132OSM   H15B14205   5.488   6.037   6.017  0.4932  0.0080  0.4270
  132OSM   H15C14206   5.498   5.995   5.841  1.8418  2.5529 -0.8141
  132OSM    C1414207   5.726   5.851   5.885 -0.6830 -0.2969 -0.2969
  132OSM   H14A14208   5.773   5.756   5.904 -1.2136  0.0100  2.7730
  132OSM   H14B14209   5.801   5.929   5.881  0.2187 -1.1190  0.1873
  132OSM   H14C14210   5.693   5.854   5.782 -0.3444 -1.2977 -0.4358
  132OSM    C1314211   5.686   5.914   6.108  0.3399 -0.1313  0.6068
  132OSM   H13A14212   5.617   5.926   6.190  0.4607 -0.0589  0.6972
  132OSM   H13B14213   5.740   6.006   6.097  1.8101 -1.2473 -1.9058
  132OSM   H13C14214   5.746   5.829   6.139  0.8951  0.1417  0.2847
  132OSM    C1214215   5.523   5.768   5.979 -0.8993 -0.0348 -0.7922
  132OSM   H12A14216   5.566   5.668   5.976  1.0166  0.6264  2.3060
  132OSM   H12B14217   5.473   5.778   5.884  0.0097  1.0124 -1.1647
  132OSM    C1114218   5.426   5.761   6.098 -0.0461  0.2797  0.2037
  132OSM   H11A14219   5.393   5.862   6.132 -1.2625 -0.9241  2.7045
  132OSM   H11B14220   5.483   5.738   6.191 -1.1754  2.6661  1.5398
  132OSM      P14221   5.243   5.597   6.191 -0.1691  0.0640 -0.1908
  132OSM    O1314222   5.109   5.577   6.140 -0.2199 -0.0698 -0.2451
  132OSM    O1414223   5.329   5.482   6.234  0.2853 -0.3374 -0.6643
  132OSM    O1114224   5.241   5.716   6.301 -0.2616 -0.8116  0.8958
  132OSM    O1214225   5.319   5.672   6.081  0.1631 -0.1348  0.0939
  132OSM    C1S14226   5.196   5.683   6.431 -0.0854  0.2130  0.0886
  132OSM    H1S14227   5.241   5.590   6.474 -0.6986 -0.4859 -0.7548
  132OSM    H1T14228   5.087   5.669   6.413  0.0805  1.5354 -2.1521
  132OSM     NF14229   5.213   5.759   6.670 -0.1631 -0.8149 -0.1861
  132OSM    HNF14230   5.154   5.811   6.730  0.1593 -0.9791  0.2803
  132OSM    C2S14231   5.234   5.797   6.529  0.3639 -0.5486  0.6699
  132OSM    H2S14232   5.344   5.808   6.520  0.0913  2.9755  0.8797
  132OSM    C3S14233   5.158   5.921   6.496  0.3571 -0.2855 -0.0825
  132OSM    H3S14234   5.051   5.895   6.506 -0.0935  0.7868 -1.9169
  132OSM     O314235   5.166   5.965   6.364  0.6037 -0.0557  0.4949
  132OSM    HO314236   5.210   5.897   6.311  0.3607  1.5314 -1.7925
  132OSM    C4S14237   5.198   6.038   6.587  0.6326 -0.0620 -0.0055
  132OSM    H4S14238   5.136   6.033   6.678  1.4566 -1.5439  0.5016
  132OSM    C5S14239   5.296   6.131   6.572  0.2554  0.5804 -0.2905
  132OSM    H5S14240   5.348   6.121   6.475  0.4460 -2.6428  0.0646
  132OSM    C6S14241   5.340   6.243   6.661 -0.0114  0.4003  0.2282
  132OSM    H6S14242   5.354   6.331   6.594 -2.7107 -0.0376 -0.9723
  132OSM    H6T14243   5.443   6.238   6.703  0.3201  0.2826 -0.5888
  132OSM    C7S14244   5.246   6.276   6.773 -0.5478 -0.3449  0.3484
  132OSM    H7S14245   5.254   6.198   6.852  0.9072  1.1475  1.7325
  132OSM    H7T14246   5.142   6.276   6.734 -0.1282  0.7514 -0.8007
  132OSM    C8S14247   5.284   6.405   6.846  0.1130 -0.7748 -0.6955
  132OSM    H8S14248   5.280   6.483   6.767  0.5535 -2.0712 -2.0182
  132OSM    H8T14249   5.393   6.403   6.867  0.1385  1.0714 -0.6057
  132OSM    C9S14250   5.205   6.435   6.977  0.7112  0.2281 -0.2118
  132OSM    H9S14251   5.227   6.357   7.053  0.5438 -0.3400 -0.7402
  132OSM    H9T14252   5.100   6.410   6.950  1.6506 -2.0061 -2.0257
  132OSM   C10S14253   5.226   6.580   7.027  0.0413  0.7412  0.1481
  132OSM   H10S14254   5.210   6.650   6.941 -1.4296  1.7929  1.2660
  132OSM   H10T14255   5.333   6.591   7.057  0.5757 -0.5400 -1.1990
  132OSM   C11S14256   5.129   6.626   7.136 -0.0580 -0.1098  0.2938
  132OSM   H11S14257   5.033   6.571   7.120  0.5070 -0.8451 -0.6453
  132OSM   H11T14258   5.115   6.734   7.119 -1.0315 -0.3370 -0.3936
  132OSM   C12S14259   5.180   6.599   7.274  0.5956 -0.3027  0.2124
  132OSM   H12S14260   5.288   6.622   7.282  0.5842 -0.6002  1.3122
  132OSM   H12T14261   5.189   6.489   7.286  3.8193 -0.5369 -3.2685
  132OSM   C13S14262   5.096   6.666   7.384 -0.0376 -0.6660 -1.0086
  132OSM   H13S14263   4.988   6.639   7.375 -0.8729  1.5680  1.4798
  132OSM   H13T14264   5.101   6.776   7.364 -0.5303 -0.6635 -1.1443
  132OSM   C14S14265   5.144   6.628   7.523 -0.0493  0.5704 -0.3009
  132OSM   H14S14266   5.248   6.658   7.550  0.5943 -1.2154 -0.6594
  132OSM   H14T14267   5.151   6.517   7.510 -0.4347  0.5744 -0.5271
  132OSM   C15S14268   5.052   6.672   7.637  0.1678  0.0216 -0.0016
  132OSM   H15S14269   4.951   6.636   7.607  0.5890 -0.1634 -1.2288
  132OSM   H15T14270   5.058   6.783   7.642  0.2722  0.0647 -0.9249
  132OSM   C16S14271   5.101   6.608   7.770  0.3305 -0.1023 -0.7308
  132OSM   H16S14272   5.210   6.625   7.778  0.3122  0.7279 -1.9317
  132OSM   H16T14273   5.083   6.499   7.761  1.7415 -0.2742 -1.7453
  132OSM   C17S14274   5.039   6.685   7.891  0.2273  0.1980 -0.2959
  132OSM   H17S14275   4.928   6.688   7.885  0.3891  1.4085 -4.1868
  132OSM   H17T14276   5.091   6.783   7.891 -2.7482  1.8088 -0.4801
  132OSM   C18S14277   5.089   6.621   8.023 -0.1178  0.2930 -1.0359
  132OSM   H18S14278   5.068   6.697   8.102 -1.9065 -1.4796  0.2385
  132OSM   H18T14279   5.200   6.611   8.016 -0.0631  1.3342 -1.7606
  132OSM   H18U14280   5.049   6.520   8.045  0.8815  0.4519  1.7875
  132OSM    C1F14281   5.285   5.665   6.728  0.4915  0.2820 -0.2619
  132OSM     OF14282   5.387   5.614   6.678  0.1812 -0.0623 -0.0663
  132OSM    C2F14283   5.243   5.622   6.866  0.5028 -0.4836 -0.5248
  132OSM    H2F14284   5.143   5.576   6.857  0.7632 -1.4289  1.1602
  132OSM    H2G14285   5.230   5.715   6.925  3.1994 -0.8053  0.6798
  132OSM    C3F14286   5.343   5.523   6.942 -0.2236  0.1331 -0.4591
  132OSM    H3F14287   5.439   5.577   6.953  0.1327 -1.0186  2.4744
  132OSM    H3G14288   5.354   5.431   6.881 -2.2899 -2.0692  2.3488
  132OSM    C4F14289   5.290   5.479   7.084 -0.8687  0.5137  0.5029
  132OSM    H4F14290   5.312   5.370   7.089  1.9898  0.9914 -0.4171
  132OSM    H4G14291   5.179   5.475   7.083 -0.8777  0.5597 -1.6479
  132OSM    C5F14292   5.332   5.557   7.203  0.1507 -0.2099  0.4899
  132OSM    H5F14293   5.285   5.658   7.199  2.2336  0.8004  1.0374
  132OSM    H5G14294   5.441   5.578   7.195 -0.1279  1.8993  1.7946
  132OSM    C6F14295   5.319   5.484   7.334  0.3829 -0.4372  0.2134
  132OSM    H6F14296   5.368   5.386   7.317  0.4663 -0.1685 -1.1182
  132OSM    H6G14297   5.215   5.464   7.367 -0.6524 -1.5583 -3.5070
  132OSM    C7F14298   5.379   5.563   7.447  0.5153 -0.3726 -0.3519
  132OSM    H7F14299   5.331   5.664   7.442 -2.2229 -1.6635 -1.3955
  132OSM    H7G14300   5.488   5.568   7.429  0.2706  0.2334 -1.7408
  132OSM    C8F14301   5.349   5.496   7.583 -0.4097  0.6323  0.4757
  132OSM    H8F14302   5.259   5.533   7.636  0.7265  1.1148  2.1408
  132OSM    H8G14303   5.435   5.529   7.646  0.4645 -0.5054 -0.0942
  132OSM    C9F14304   5.354   5.347   7.586  0.0142 -0.3876 -0.2796
  132OSM    H9F14305   5.316   5.304   7.493 -0.0724 -0.5261 -0.1804
  132OSM   C10F14306   5.406   5.263   7.674 -0.2604 -0.3778  0.0219
  132OSM   H10F14307   5.394   5.155   7.657  0.4320 -0.2374 -1.4670
  132OSM   C11F14308   5.476   5.297   7.811 -0.1126 -0.4569 -0.1794
  132OSM   H11F14309   5.471   5.202   7.868  0.3873 -0.0697  0.5198
  132OSM   H11G14310   5.413   5.380   7.849 -0.2434 -0.8642  0.4976
  132OSM   C12F14311   5.619   5.351   7.824  0.0967 -0.2255  0.3445
  132OSM   H12F14312   5.640   5.437   7.758  2.3911 -1.3745 -0.4861
  132OSM   H12G14313   5.674   5.263   7.785  1.1644  1.1160 -1.2226
  132OSM   C13F14314   5.654   5.381   7.973 -0.8174 -0.8408  0.3610
  132OSM   H13F14315   5.624   5.286   8.023  1.5896 -1.3066  0.9990
  132OSM   H13G14316   5.600   5.462   8.026  0.4919  0.2199  0.0954
  132OSM   C14F14317   5.804   5.414   7.984  0.6740  0.1431 -0.3075
  132OSM   H14F14318   5.830   5.504   7.924  0.5770 -1.0345 -2.1387
  132OSM   H14G14319   5.867   5.327   7.956 -0.6066 -1.4799  1.7244
  132OSM   C15F14320   5.838   5.446   8.137 -1.0163 -0.1555 -0.1264
  132OSM   H15F14321   5.773   5.524   8.181 -0.0380 -0.3873  1.7951
  132OSM   H15G14322   5.941   5.486   8.145  1.1947 -5.2706 -0.7846
  132OSM   C16F14323   5.835   5.323   8.234 -0.7235  0.3636 -0.0687
  132OSM   H16F14324   5.745   5.259   8.218 -0.2448 -0.2674 -0.2784
  132OSM   H16G14325   5.836   5.360   8.339  0.9415  2.1947 -0.7021
  132OSM   C17F14326   5.962   5.225   8.234 -0.5648  0.3468 -0.1246
  132OSM   H17F14327   6.048   5.296   8.239 -0.9683  0.8832 -0.7509
  132OSM   H17G14328   5.964   5.166   8.140 -0.1398 -0.2482  0.2594
  132OSM   C18F14329   5.960   5.131   8.355  0.5560 -0.0794 -0.1560
  132OSM   H18F14330   5.873   5.061   8.362 -0.0025  0.4408 -1.7867
  132OSM   H18G14331   5.960   5.202   8.440 -0.0873 -0.0639 -0.1649
  132OSM   H18H14332   6.052   5.070   8.360  2.6098  3.0745  2.9535
  133OSM      N14333   6.228   5.408   6.109 -0.0430  0.2370  0.2240
  133OSM    C1514334   6.122   5.370   6.007 -0.3129  0.4011  0.6570
  133OSM   H15A14335   6.163   5.328   5.916 -2.5855  0.1626 -0.2794
  133OSM   H15B14336   6.074   5.462   5.978  1.0833  0.5771 -1.1660
  133OSM   H15C14337   6.059   5.292   6.047  0.2907  0.1787  1.1828
  133OSM    C1414338   6.271   5.289   6.183  0.6850 -0.2199 -0.1606
  133OSM   H14A14339   6.306   5.209   6.120 -0.0371 -0.4394 -0.2912
  133OSM   H14B14340   6.184   5.260   6.241  0.9022 -3.1925 -1.1859
  133OSM   H14C14341   6.351   5.306   6.254  0.8928 -0.0634 -0.4334
  133OSM    C1314342   6.337   5.473   6.027 -0.2403  0.1498  0.2819
  133OSM   H13A14343   6.416   5.509   6.092 -0.8839 -1.2006  1.8458
  133OSM   H13B14344   6.293   5.552   5.968  0.0228  0.9321  1.1173
  133OSM   H13C14345   6.382   5.404   5.958 -0.4645  1.0113 -0.7363
  133OSM    C1214346   6.161   5.510   6.194 -0.6558  0.2965 -0.8295
  133OSM   H12A14347   6.131   5.580   6.118 -1.8970  0.9289  0.2176
  133OSM   H12B14348   6.231   5.569   6.252 -2.6286  0.2869  1.6789
  133OSM    C1114349   6.044   5.466   6.284 -0.0394 -0.2937  0.1811
  133OSM   H11A14350   6.019   5.549   6.354  2.6817 -0.7879  1.7952
  133OSM   H11B14351   6.076   5.385   6.353 -0.5170 -1.2066 -0.6552
  133OSM      P14352   5.826   5.540   6.170 -0.2997 -0.2073  0.2001
  133OSM    O1314353   5.889   5.647   6.090  0.1761  0.6484 -0.1821
  133OSM    O1414354   5.706   5.479   6.114 -0.0389 -0.3279 -0.0886
  133OSM    O1114355   5.780   5.609   6.305 -0.5682 -0.3074  0.4687
  133OSM    O1214356   5.933   5.427   6.206  0.2892 -0.0276  0.6824
  133OSM    C1S14357   5.705   5.535   6.407 -0.2428  0.1746  0.1554
  133OSM    H1S14358   5.726   5.426   6.407 -2.9327 -0.3895  0.2507
  133OSM    H1T14359   5.598   5.553   6.384  0.0538  1.2074 -0.4254
  133OSM     NF14360   5.662   5.529   6.657 -0.3394 -0.3933 -0.3187
  133OSM    HNF14361   5.605   5.578   6.722 -1.4598  1.1597 -2.4198
  133OSM    C2S14362   5.721   5.601   6.547 -0.1883 -0.8034  0.3009
  133OSM    H2S14363   5.829   5.616   6.569 -0.5557 -2.0490  3.2260
  133OSM    C3S14364   5.664   5.748   6.536 -0.0891  1.0191 -0.1184
  133OSM    H3S14365   5.557   5.749   6.503  0.3997 -1.0993 -1.8457
  133OSM     O314366   5.729   5.827   6.436 -0.4437 -0.7640  0.5533
  133OSM    HO314367   5.778   5.772   6.374 -0.9612 -1.4345  0.7307
  133OSM    C4S14368   5.671   5.818   6.667  0.2563 -0.0678  0.4221
  133OSM    H4S14369   5.762   5.805   6.728  1.7945 -0.7582 -1.9544
  133OSM    C5S14370   5.576   5.896   6.708  0.6345 -0.6593  0.3697
  133OSM    H5S14371   5.481   5.902   6.652 -0.1541 -0.5175  1.6943
  133OSM    C6S14372   5.583   5.971   6.844  0.5232  0.2771  0.1679
  133OSM    H6S14373   5.572   6.080   6.827 -3.9612  0.0670  1.1352
  133OSM    H6T14374   5.682   5.968   6.895  0.3655  0.5552  0.4933
  133OSM    C7S14375   5.480   5.917   6.948  0.3268  0.0523 -0.0462
  133OSM    H7S14376   5.507   5.822   6.998  0.3006 -1.5226 -2.9448
  133OSM    H7T14377   5.377   5.899   6.910 -0.8873  3.7976  1.2820
  133OSM    C8S14378   5.464   6.015   7.070  0.0104 -0.3753 -0.4896
  133OSM    H8S14379   5.396   6.096   7.038  0.1259 -0.3291 -0.6176
  133OSM    H8T14380   5.559   6.071   7.085 -0.6981  0.6623  0.1659
  133OSM    C9S14381   5.400   5.967   7.204  0.4502 -0.2837 -0.4480
  133OSM    H9S14382   5.474   5.919   7.272  0.4772  2.7036  1.7534
  133OSM    H9T14383   5.325   5.886   7.190 -0.6509  0.4757  0.9182
  133OSM   C10S14384   5.329   6.072   7.290 -0.4441 -0.3516  0.1718
  133OSM   H10S14385   5.222   6.046   7.280 -1.1982  3.1914 -2.0155
  133OSM   H10T14386   5.341   6.173   7.245  1.7254  0.4793  2.4301
  133OSM   C11S14387   5.388   6.083   7.432 -0.7886 -0.2145 -0.8215
  133OSM   H11S14388   5.496   6.103   7.422 -1.0187  1.6033  0.2031
  133OSM   H11T14389   5.377   5.989   7.491  2.5469  0.2107  0.5850
  133OSM   C12S14390   5.310   6.182   7.506 -0.4211  0.2601  0.2484
  133OSM   H12S14391   5.201   6.161   7.499 -0.6061  0.6629  1.6816
  133OSM   H12T14392   5.345   6.283   7.478  1.3677 -1.0658 -2.5119
  133OSM   C13S14393   5.347   6.181   7.655 -0.1611  0.1875 -0.1312
  133OSM   H13S14394   5.455   6.207   7.660 -0.5029  1.3330  1.5314
  133OSM   H13T14395   5.335   6.077   7.695 -0.1545  0.3014  0.1726
  133OSM   C14S14396   5.268   6.294   7.733 -1.1473  0.6778 -0.1950
  133OSM   H14S14397   5.160   6.269   7.742 -0.8300 -1.6003 -2.0064
  133OSM   H14T14398   5.277   6.392   7.681  0.8286  1.5212  1.6583
  133OSM   C15S14399   5.311   6.295   7.881  0.2045  0.0523 -0.0909
  133OSM   H15S14400   5.300   6.390   7.939 -1.8391 -1.4846  2.1476
  133OSM   H15T14401   5.419   6.271   7.876  0.3935  0.4145  1.9040
  133OSM   C16S14402   5.245   6.195   7.977 -0.1104  0.1867 -0.0523
  133OSM   H16S14403   5.251   6.089   7.944  1.6717  0.7397 -1.5866
  133OSM   H16T14404   5.138   6.224   7.986  0.2286  1.6568 -0.5582
  133OSM   C17S14405   5.296   6.199   8.124  0.1225  0.1778  0.6850
  133OSM   H17S14406   5.277   6.300   8.166  0.8699  0.9752 -0.8476
  133OSM   H17T14407   5.406   6.184   8.109 -0.3265 -1.5358 -1.1296
  133OSM   C18S14408   5.229   6.091   8.204  0.1116 -0.3020 -0.3259
  133OSM   H18S14409   5.119   6.098   8.185 -0.2618 -1.9666  1.1116
  133OSM   H18T14410   5.263   6.104   8.308 -2.7428 -2.8432  1.0099
  133OSM   H18U14411   5.256   5.989   8.170  0.7005 -0.2022 -0.1611
  133OSM    C1F14412   5.706   5.408   6.704  0.5104 -0.3664  0.1871
  133OSM     OF14413   5.788   5.344   6.641  0.0810 -0.5803 -0.2461
  133OSM    C2F14414   5.651   5.366   6.842 -0.3843 -0.5106  0.2519
  133OSM    H2F14415   5.553   5.314   6.830 -0.3580 -0.0671 -2.1060
  133OSM    H2G14416   5.635   5.448   6.915  1.1945 -1.4158  1.6343
  133OSM    C3F14417   5.746   5.264   6.913  0.7706 -0.3638 -0.2661
  133OSM    H3F14418   5.847   5.306   6.936  0.5582  0.6782 -1.1503
  133OSM    H3G14419   5.752   5.171   6.853 -1.3381 -0.9821  0.4568
  133OSM    C4F14420   5.694   5.215   7.039 -0.3636 -0.4203 -0.2468
  133OSM    H4F14421   5.764   5.140   7.081 -1.3822 -0.2615  1.7661
  133OSM    H4G14422   5.600   5.162   7.011 -0.3221 -0.8591  0.4276
  133OSM    C5F14423   5.683   5.329   7.142  0.7031  0.7135 -0.2883
  133OSM    H5F14424   5.607   5.405   7.117 -0.3242 -1.2599 -3.5144
  133OSM    H5G14425   5.772   5.396   7.145 -0.0673  1.7134  0.3696
  133OSM    C6F14426   5.665   5.273   7.289 -0.1662  0.1612 -0.4171
  133OSM    H6F14427   5.570   5.216   7.291  0.7530 -1.3837  0.1495
  133OSM    H6G14428   5.644   5.357   7.358 -2.3514  0.8062 -1.8308
  133OSM    C7F14429   5.781   5.186   7.342 -0.2117  0.4735 -0.7531
  133OSM    H7F14430   5.866   5.218   7.279 -0.1338  2.0747  0.1420
  133OSM    H7G14431   5.761   5.077   7.330  0.8712  0.0753  0.8510
  133OSM    C8F14432   5.806   5.216   7.492  0.2654 -0.3750  0.0131
  133OSM    H8F14433   5.705   5.198   7.536  0.6129 -2.7243 -0.0796
  133OSM    H8G14434   5.831   5.321   7.518  3.4098 -0.7972 -1.1298
  133OSM    C9F14435   5.900   5.120   7.553 -0.2150 -1.1133 -0.8562
  133OSM    H9F14436   5.879   5.016   7.524  1.0613 -1.8824  0.9461
  133OSM   C10F14437   6.005   5.149   7.631 -0.1647 -0.0673 -0.1279
  133OSM   H10F14438   6.069   5.070   7.673 -0.0176 -0.8575 -1.8026
  133OSM   C11F14439   6.047   5.288   7.677  0.2350 -0.1595  0.2136
  133OSM   H11F14440   5.961   5.358   7.667 -0.4137 -0.9478  0.1667
  133OSM   H11G14441   6.135   5.324   7.621 -0.0974  0.4929  0.0995
  133OSM   C12F14442   6.084   5.283   7.830 -0.2490 -0.0215  0.1996
  133OSM   H12F14443   6.017   5.221   7.894 -2.0640  0.0727 -1.5639
  133OSM   H12G14444   6.079   5.389   7.862 -0.2275 -0.0833  0.4118
  133OSM   C13F14445   6.226   5.220   7.838  0.3397 -0.9167  0.2446
  133OSM   H13F14446   6.293   5.257   7.758 -1.6639 -0.3313 -1.2046
  133OSM   H13G14447   6.214   5.110   7.837 -0.2152 -0.8528 -1.7113
  133OSM   C14F14448   6.282   5.260   7.978  0.7508  1.0905  0.3453
  133OSM   H14F14449   6.196   5.237   8.045  1.8329 -2.8333  0.5667
  133OSM   H14G14450   6.324   5.362   7.977  2.1646  0.5181 -0.2571
  133OSM   C15F14451   6.388   5.170   8.029 -0.1507 -0.3380  0.8536
  133OSM   H15F14452   6.484   5.190   7.977  0.7141  0.4473  2.7101
  133OSM   H15G14453   6.360   5.064   8.013  2.0435 -0.7671 -0.3022
  133OSM   C16F14454   6.417   5.196   8.180  0.9144 -0.2579  0.2387
  133OSM   H16F14455   6.449   5.105   8.236 -4.5593 -1.3091  1.9981
  133OSM   H16G14456   6.324   5.230   8.231 -1.0220 -2.1081 -1.9369
  133OSM   C17F14457   6.523   5.305   8.215 -0.1212  0.2560  0.1335
  133OSM   H17F14458   6.484   5.406   8.192  3.7683  1.6566 -0.6746
  133OSM   H17G14459   6.617   5.296   8.156 -0.2777  1.1735 -0.2583
  133OSM   C18F14460   6.568   5.298   8.365  0.2331 -0.1873  0.1327
  133OSM   H18F14461   6.674   5.320   8.387  0.6524 -0.6866 -1.3139
  133OSM   H18G14462   6.553   5.190   8.389  0.1112  0.2770  2.2308
  133OSM   H18H14463   6.498   5.341   8.440 -0.5311 -0.8286 -0.1972
  134OSM      N14464   0.392   2.472   6.462  0.6176  0.5015  0.0995
  134OSM    C1514465   0.404   2.507   6.319  0.5517 -0.2336  0.4602
  134OSM   H15A14466   0.322   2.561   6.275  1.0971  0.1247 -0.1177
  134OSM   H15B14467   0.409   2.409   6.274  2.0090  0.6401 -1.3612
  134OSM   H15C14468   0.496   2.559   6.297  2.0084 -3.0208 -0.2703
  134OSM    C1414469   0.505   2.400   6.514 -0.2860  0.2161 -0.0917
  134OSM   H14A14470   0.529   2.307   6.465 -1.2192  0.7734 -1.6616
  134OSM   H14B14471   0.496   2.373   6.618 -0.7259 -2.4070 -0.7917
  134OSM   H14C14472   0.597   2.454   6.499  1.4603 -2.6167  0.0768
  134OSM    C1314473   0.382   2.596   6.546  0.0381 -0.4377 -0.0603
  134OSM   H13A14474   0.467   2.659   6.523 -1.6928  2.2341  0.6294
  134OSM   H13B14475   0.385   2.569   6.651 -0.3876 -0.4311 -0.0470
  134OSM   H13C14476   0.291   2.650   6.526  0.2039 -0.2349 -0.2643
  134OSM    C1214477   0.258   2.396   6.477  0.0312 -0.0191  0.8103
  134OSM   H12A14478   0.260   2.309   6.414 -2.3156  0.7213 -0.3300
  134OSM   H12B14479   0.172   2.447   6.435 -0.6742 -2.1936 -0.4833
  134OSM    C1114480   0.211   2.341   6.622  0.2291 -0.1515  1.0339
  134OSM   H11A14481   0.112   2.294   6.601  0.4465 -0.4242  0.6173
  134OSM   H11B14482   0.190   2.418   6.699  1.0003 -0.4085  1.5060
  134OSM      P14483   0.290   2.099   6.618 -0.1118 -0.4799  0.2936
  134OSM    O1314484   0.247   2.098   6.477  0.1933 -0.5772 -0.4246
  134OSM    O1414485   0.407   2.017   6.652  0.1845 -1.0390 -0.3316
  134OSM    O1114486   0.169   2.053   6.701  0.0171  0.2284 -0.2221
  134OSM    O1214487   0.301   2.247   6.674 -0.5882 -0.3726  0.1488
  134OSM    C1S14488   0.179   2.039   6.842  0.4493  0.0204 -0.4526
  134OSM    H1S14489   0.168   2.142   6.882  1.1901 -0.3872  0.8071
  134OSM    H1T14490   0.267   1.985   6.883 -2.4381 -3.6898  1.1002
  134OSM     NF14491   0.085   1.942   7.036 -0.3283  0.3374 -0.5503
  134OSM    HNF14492   0.137   1.864   7.071 -2.7465 -0.9482  0.2529
  134OSM    C2S14493   0.064   1.953   6.893 -0.7403 -0.2375  0.3644
  134OSM    H2S14494  -0.035   2.002   6.879 -1.1623 -1.4965 -1.2703
  134OSM    C3S14495   0.046   1.814   6.814 -0.0146 -0.3651 -0.0660
  134OSM    H3S14496   0.140   1.755   6.820 -0.9651 -1.8741  0.3706
  134OSM     O314497   0.033   1.827   6.672  0.4635  0.0503 -0.1316
  134OSM    HO314498   0.082   1.905   6.643 -1.3120  0.6685 -1.5201
  134OSM    C4S14499  -0.074   1.735   6.871 -0.2222  0.1547  0.3923
  134OSM    H4S14500  -0.175   1.758   6.832 -0.7337 -0.9509  1.0350
  134OSM    C5S14501  -0.048   1.630   6.952 -0.4748  0.2401  0.2115
  134OSM    H5S14502   0.054   1.596   6.975 -0.8594 -1.2487 -0.2503
  134OSM    C6S14503  -0.151   1.536   7.006  0.1751 -0.0690 -0.4388
  134OSM    H6S14504  -0.153   1.446   6.941 -1.8850  0.8742 -1.7087
  134OSM    H6T14505  -0.253   1.580   7.012 -0.0289 -0.5412 -0.4048
  134OSM    C7S14506  -0.110   1.472   7.144  0.2058  0.4178 -0.7216
  134OSM    H7S14507  -0.026   1.399   7.133 -0.4892 -0.8490  1.9217
  134OSM    H7T14508  -0.196   1.409   7.174  0.7921  0.0993  0.3024
  134OSM    C8S14509  -0.093   1.572   7.263  0.2599 -0.4118  0.0300
  134OSM    H8S14510  -0.173   1.648   7.252  1.2439  0.4190 -1.6605
  134OSM    H8T14511   0.001   1.630   7.250 -0.7982  0.8555 -2.3452
  134OSM    C9S14512  -0.088   1.512   7.404 -0.0120 -0.3966 -0.0381
  134OSM    H9S14513  -0.008   1.435   7.400  0.8147  0.4053  0.9855
  134OSM    H9T14514  -0.178   1.458   7.443  0.0555  1.9101  3.4646
  134OSM   C10S14515  -0.055   1.620   7.515  0.2201 -0.0263  0.3833
  134OSM   H10S14516  -0.148   1.671   7.548  0.8814  2.1187 -0.9996
  134OSM   H10T14517  -0.003   1.706   7.468 -2.4517  0.5137 -1.7303
  134OSM   C11S14518   0.031   1.567   7.639 -0.5192  0.4800 -0.2162
  134OSM   H11S14519   0.065   1.653   7.701  0.2805  0.8248 -1.1278
  134OSM   H11T14520   0.119   1.516   7.594 -1.9009 -2.3888  0.2171
  134OSM   C12S14521  -0.053   1.472   7.724 -0.2660  0.4564  0.2205
  134OSM   H12S14522   0.020   1.409   7.779  0.1537  0.1540 -0.6743
  134OSM   H12T14523  -0.108   1.402   7.658  3.4375 -0.8701 -1.5963
  134OSM   C13S14524  -0.158   1.538   7.819 -0.2692  0.2129  0.1830
  134OSM   H13S14525  -0.225   1.463   7.866  0.1249  0.3570  0.9916
  134OSM   H13T14526  -0.217   1.608   7.757  0.1172  1.1612  0.8861
  134OSM   C14S14527  -0.096   1.624   7.936 -0.1936 -0.3209  0.0749
  134OSM   H14S14528  -0.187   1.674   7.975 -0.5768  1.7183 -3.2933
  134OSM   H14T14529  -0.012   1.693   7.915  1.4147 -2.2113  0.1620
  134OSM   C15S14530  -0.037   1.535   8.046 -0.5715 -0.8397  0.0090
  134OSM   H15S14531   0.058   1.500   8.000 -0.3569  0.2501 -0.4169
  134OSM   H15T14532  -0.101   1.451   8.081 -0.5365 -0.8943 -0.0570
  134OSM   C16S14533  -0.003   1.610   8.173  0.3238 -0.0820  0.1398
  134OSM   H16S14534   0.060   1.700   8.154  0.8786  0.1246  2.7628
  134OSM   H16T14535   0.054   1.539   8.236 -0.9091 -1.3599 -0.1579
  134OSM   C17S14536  -0.124   1.658   8.251  0.2869 -0.2718 -0.9245
  134OSM   H17S14537  -0.178   1.568   8.286  0.1382 -0.3199 -1.2792
  134OSM   H17T14538  -0.192   1.715   8.184 -1.6672 -0.7692  0.5990
  134OSM   C18S14539  -0.074   1.749   8.366  0.1155 -0.2958 -0.1906
  134OSM   H18S14540   0.000   1.690   8.423 -1.6058  0.4066  2.8507
  134OSM   H18T14541  -0.162   1.785   8.423 -0.3066  0.5332 -1.3419
  134OSM   H18U14542  -0.024   1.837   8.320 -1.7217  0.6406 -0.4603
  134OSM    C1F14543   0.066   2.051   7.113  0.4034 -0.5828  0.1876
  134OSM     OF14544   0.002   2.147   7.075  0.3618  0.7926 -0.0604
  134OSM    C2F14545   0.123   2.046   7.253 -0.3336  0.0902 -0.7649
  134OSM    H2F14546   0.227   2.085   7.248 -0.1905 -0.1598  0.1694
  134OSM    H2G14547   0.126   1.938   7.278  1.2612  0.5998  1.3825
  134OSM    C3F14548   0.036   2.127   7.350 -0.2579  0.1994  0.1257
  134OSM    H3F14549  -0.072   2.125   7.324 -0.2292 -2.1427  0.0519
  134OSM    H3G14550   0.077   2.229   7.340  0.2987 -0.0545 -0.1989
  134OSM    C4F14551   0.055   2.077   7.495  0.8089 -0.5438  0.3007
  134OSM    H4F14552   0.165   2.080   7.511  0.8532  0.4369 -0.1702
  134OSM    H4G14553   0.018   1.975   7.520  2.6200 -0.6930  2.5168
  134OSM    C5F14554  -0.006   2.179   7.593 -0.5969  0.4699  0.5641
  134OSM    H5F14555  -0.115   2.172   7.575 -0.5851 -0.3771  0.8069
  134OSM    H5G14556   0.034   2.283   7.592 -0.5919  0.4716  1.2801
  134OSM    C6F14557   0.013   2.135   7.747  0.0125 -0.2431  0.7116
  134OSM    H6F14558  -0.027   2.211   7.818  0.3350  0.9398 -0.3683
  134OSM    H6G14559   0.123   2.133   7.754  0.0847  1.0301  0.0308
  134OSM    C7F14560  -0.045   1.997   7.782  0.2464 -0.4410  0.2580
  134OSM    H7F14561   0.025   1.926   7.733  0.4785  0.6517 -1.0156
  134OSM    H7G14562  -0.145   1.985   7.736 -0.9801  2.7954  1.9373
  134OSM    C8F14563  -0.061   1.987   7.934 -0.2559 -0.1971 -0.2930
  134OSM    H8F14564  -0.114   1.890   7.943  0.9483 -1.0069 -1.6872
  134OSM    H8G14565  -0.133   2.068   7.958 -0.1603  0.8690 -3.3904
  134OSM    C9F14566   0.063   1.984   8.020  0.6821 -0.0292  0.0272
  134OSM    H9F14567   0.140   1.919   7.975 -1.1261 -0.1162 -3.0776
  134OSM   C10F14568   0.095   2.073   8.113  0.4681  0.3145 -0.6837
  134OSM   H10F14569   0.185   2.066   8.176 -0.5633 -0.6762  0.6891
  134OSM   C11F14570   0.012   2.185   8.157 -0.5909 -0.1881 -0.2958
  134OSM   H11F14571  -0.095   2.177   8.127 -1.2934  0.6424  1.8890
  134OSM   H11G14572   0.058   2.278   8.118  2.3972 -0.8864  1.3973
  134OSM   C12F14573  -0.000   2.201   8.309 -0.1812  0.6420 -0.8024
  134OSM   H12F14574  -0.033   2.101   8.344 -0.2102  0.8809 -0.1272
  134OSM   H12G14575  -0.085   2.271   8.328 -1.1816 -0.7177 -0.1509
  134OSM   C13F14576   0.122   2.229   8.390  0.1474  0.3179  0.1559
  134OSM   H13F14577   0.206   2.160   8.367 -0.2913  0.0890 -0.7935
  134OSM   H13G14578   0.091   2.210   8.495 -0.3375  0.0336 -0.0425
  134OSM   C14F14579   0.167   2.375   8.381  0.5151  0.0764 -0.2689
  134OSM   H14F14580   0.183   2.402   8.274  1.5176  1.6074  0.2498
  134OSM   H14G14581   0.265   2.390   8.431 -0.2297 -2.0099  1.8862
  134OSM   C15F14582   0.076   2.483   8.444 -0.1756 -0.3320  0.3219
  134OSM   H15F14583  -0.015   2.512   8.386  0.7849  0.4177 -0.8482
  134OSM   H15G14584   0.141   2.570   8.424  0.0448 -0.5589  0.0373
  134OSM   C16F14585   0.040   2.472   8.592  0.1861 -0.0485  0.1050
  134OSM   H16F14586   0.022   2.366   8.619 -0.3931 -0.4858 -1.9067
  134OSM   H16G14587  -0.052   2.535   8.591  0.0925 -0.1406  1.5937
  134OSM   C17F14588   0.128   2.548   8.695 -0.1454  0.0653 -0.0117
  134OSM   H17F14589   0.178   2.636   8.649  0.3765  0.1879  0.7862
  134OSM   H17G14590   0.206   2.477   8.730 -1.1005 -1.2896 -0.5966
  134OSM   C18F14591   0.052   2.603   8.816 -0.7079 -0.0118  0.0717
  134OSM   H18F14592   0.104   2.609   8.914 -0.2240 -1.7842 -0.0734
  134OSM   H18G14593  -0.045   2.552   8.835 -0.8576  0.4936  0.7162
  134OSM   H18H14594   0.010   2.701   8.785  0.3531  1.0650  1.9127
  135OSM      N14595   6.699   1.914   6.221  0.4655  0.1796 -0.5191
  135OSM    C1514596   6.847   1.894   6.271  0.2989  0.4620 -0.2541
  135OSM   H15A14597   6.915   1.922   6.191  0.4897 -1.6381 -0.8541
  135OSM   H15B14598   6.853   1.790   6.296  0.2587  0.7683  1.0775
  135OSM   H15C14599   6.862   1.961   6.354 -0.3068  0.6497 -0.2993
  135OSM    C1414600   6.686   2.043   6.143 -0.4192  0.0549 -0.7808
  135OSM   H14A14601   6.583   2.065   6.116 -0.0758  0.4618 -1.7760
  135OSM   H14B14602   6.745   2.053   6.053  1.9160  0.0823  0.7300
  135OSM   H14C14603   6.712   2.126   6.207  2.5370 -1.0118 -0.5196
  135OSM    C1314604   6.667   1.797   6.128 -0.0904  0.0687 -0.4468
  135OSM   H13A14605   6.571   1.812   6.081 -1.0781 -1.7065  0.9403
  135OSM   H13B14606   6.680   1.699   6.172  0.8213  0.3106 -0.1726
  135OSM   H13C14607   6.745   1.804   6.054 -1.0366 -1.9408 -1.7022
  135OSM    C1214608   6.612   1.924   6.348  0.1245 -0.4785 -0.0087
  135OSM   H12A14609   6.623   1.833   6.405  0.4881 -0.5858 -0.2510
  135OSM   H12B14610   6.511   1.925   6.309  0.3563  0.0071 -0.6231
  135OSM    C1114611   6.627   2.047   6.442  0.6248 -0.5657  0.4757
  135OSM   H11A14612   6.737   2.062   6.446  0.3711  1.9189 -0.7612
  135OSM   H11B14613   6.575   2.034   6.539  0.8468  0.0030  0.6745
  135OSM      P14614   6.604   2.310   6.419  0.1369 -0.0758 -0.1951
  135OSM    O1314615   6.748   2.333   6.407  0.0857  0.6656 -0.2324
  135OSM    O1414616   6.517   2.401   6.340  0.0678 -0.4591 -0.3653
  135OSM    O1114617   6.555   2.313   6.567 -0.5160  0.1488 -0.5196
  135OSM    O1214618   6.565   2.165   6.376 -0.6961  0.0132  0.5850
  135OSM    C1S14619   6.659   2.320   6.668  0.1490 -0.4570  0.1617
  135OSM    H1S14620   6.727   2.406   6.651 -1.8481  1.1664  0.2073
  135OSM    H1T14621   6.721   2.228   6.672  0.6239 -0.1864 -0.8280
  135OSM     NF14622   6.716   2.354   6.904  0.1586 -0.8575  0.1364
  135OSM    HNF14623   6.733   2.283   6.971  0.9741  2.2951  3.4141
  135OSM    C2S14624   6.598   2.340   6.813  0.1357  0.6667  0.7341
  135OSM    H2S14625   6.543   2.436   6.817 -3.0864 -0.8760 -2.7330
  135OSM    C3S14626   6.491   2.227   6.848 -0.3912 -0.5513  0.4565
  135OSM    H3S14627   6.527   2.122   6.845 -0.3461 -0.4843 -2.9048
  135OSM     O314628   6.370   2.223   6.766  0.5330 -0.4142  0.6390
  135OSM    HO314629   6.408   2.245   6.680  0.2485  1.2834  0.9411
  135OSM    C4S14630   6.442   2.240   6.993  0.1716  0.0932  0.1980
  135OSM    H4S14631   6.524   2.230   7.065 -2.0186 -2.6868  2.3944
  135OSM    C5S14632   6.322   2.276   7.045 -0.4289  0.8168 -0.0980
  135OSM    H5S14633   6.244   2.297   6.970 -2.4497  0.7934  1.9480
  135OSM    C6S14634   6.283   2.285   7.190  0.1116 -0.2966 -0.3361
  135OSM    H6S14635   6.232   2.194   7.228  0.5268  0.1192  1.2446
  135OSM    H6T14636   6.200   2.356   7.209  0.2383 -0.7690  2.1895
  135OSM    C7S14637   6.399   2.323   7.289 -0.6364  0.1902 -0.2990
  135OSM    H7S14638   6.469   2.397   7.248  1.6288  0.2725  3.4632
  135OSM    H7T14639   6.466   2.239   7.317 -0.3535  0.0418 -1.4083
  135OSM    C8S14640   6.353   2.355   7.434  0.1901  0.2988 -0.0846
  135OSM    H8S14641   6.261   2.298   7.459  0.8169  0.1433  1.9671
  135OSM    H8T14642   6.313   2.458   7.420  0.8761  0.6903  0.8086
  135OSM    C9S14643   6.460   2.348   7.539 -0.1574 -0.0610 -0.7649
  135OSM    H9S14644   6.557   2.378   7.494 -1.0103  0.3209 -2.3983
  135OSM    H9T14645   6.463   2.241   7.569 -5.8754 -0.0875  0.2342
  135OSM   C10S14646   6.430   2.438   7.661  0.4154  0.4539 -0.4401
  135OSM   H10S14647   6.367   2.524   7.632  0.0049 -0.7387 -3.1941
  135OSM   H10T14648   6.533   2.462   7.696  1.2690 -4.2007  0.5883
  135OSM   C11S14649   6.360   2.364   7.771  0.3109 -0.2492 -0.3308
  135OSM   H11S14650   6.397   2.262   7.793 -0.6496 -0.4510  0.4132
  135OSM   H11T14651   6.256   2.341   7.738  0.6537 -2.0409 -0.2251
  135OSM   C12S14652   6.341   2.449   7.901  0.7327  0.3097 -0.5192
  135OSM   H12S14653   6.234   2.437   7.928  0.8106  1.0777  0.1405
  135OSM   H12T14654   6.353   2.556   7.875 -0.4684  0.7965  0.8579
  135OSM   C13S14655   6.433   2.416   8.021  0.2360  0.1111 -0.0149
  135OSM   H13S14656   6.538   2.439   7.992  0.5683 -0.7687  0.4988
  135OSM   H13T14657   6.444   2.310   8.052  0.0534 -0.5980 -2.2640
  135OSM   C14S14658   6.388   2.498   8.149 -0.6850  0.0714  0.8992
  135OSM   H14S14659   6.284   2.473   8.180 -0.7076 -1.2418 -0.2008
  135OSM   H14T14660   6.385   2.602   8.110  1.9182 -0.5144 -0.9705
  135OSM   C15S14661   6.494   2.488   8.267  0.0520  0.3600 -0.0817
  135OSM   H15S14662   6.526   2.589   8.298  3.5598 -1.4274  2.5710
  135OSM   H15T14663   6.589   2.455   8.219  0.7565  1.2116  0.7121
  135OSM   C16S14664   6.462   2.398   8.384  0.4889 -0.7891  0.6273
  135OSM   H16S14665   6.552   2.390   8.449 -1.3754 -3.1744  3.0266
  135OSM   H16T14666   6.455   2.297   8.337  1.5352 -0.2993 -0.6021
  135OSM   C17S14667   6.348   2.438   8.487  0.7432 -0.1933  0.5205
  135OSM   H17S14668   6.254   2.381   8.477  0.9327 -0.1101 -2.2401
  135OSM   H17T14669   6.315   2.543   8.474 -1.0693 -0.7979  0.0683
  135OSM   C18S14670   6.402   2.415   8.632  0.6812  0.2651 -0.5444
  135OSM   H18S14671   6.323   2.435   8.709  0.3941 -0.9213 -0.5128
  135OSM   H18T14672   6.488   2.485   8.639  1.2588 -0.4022 -1.0037
  135OSM   H18U14673   6.446   2.315   8.654 -0.7881  0.4274  3.7324
  135OSM    C1F14674   6.794   2.461   6.912  0.2715 -0.2252 -0.2459
  135OSM     OF14675   6.793   2.542   6.823 -0.1275 -0.2179  0.5718
  135OSM    C2F14676   6.872   2.457   7.038 -0.5203 -0.3536 -0.7213
  135OSM    H2F14677   6.959   2.390   7.019 -0.2396 -0.7039  1.6126
  135OSM    H2G14678   6.804   2.415   7.115 -0.1122  2.3191  1.1683
  135OSM    C3F14679   6.927   2.589   7.102 -0.3444  0.2854 -0.0255
  135OSM    H3F14680   6.854   2.673   7.109 -0.4651  0.1839 -0.0477
  135OSM    H3G14681   6.995   2.621   7.021 -0.4783 -0.6677 -0.5224
  135OSM    C4F14682   7.007   2.579   7.227  0.8906  0.3261 -0.6873
  135OSM    H4F14683   7.076   2.667   7.229  0.0138  1.0108  0.6060
  135OSM    H4G14684   7.062   2.483   7.219  0.4719  0.0845 -0.6704
  135OSM    C5F14685   6.910   2.586   7.349  0.2802  0.2221 -0.4584
  135OSM    H5F14686   6.856   2.496   7.385  1.4014 -0.5964 -0.7800
  135OSM    H5G14687   6.836   2.661   7.314  0.9560  1.0613 -0.1233
  135OSM    C6F14688   6.979   2.661   7.476 -0.2241  0.1406 -0.0481
  135OSM    H6F14689   7.040   2.742   7.431  0.7982 -0.4843  0.1964
  135OSM    H6G14690   7.049   2.587   7.519  0.4941  0.9204  0.1408
  135OSM    C7F14691   6.883   2.711   7.577 -0.0585  0.3892  0.5030
  135OSM    H7F14692   6.800   2.755   7.518 -0.8653 -0.9728  0.5952
  135OSM    H7G14693   6.929   2.786   7.645  1.8872  0.9530 -1.3477
  135OSM    C8F14694   6.821   2.598   7.668 -0.1813 -0.1615 -0.1741
  135OSM    H8F14695   6.769   2.520   7.609  0.7884  1.5984 -3.4937
  135OSM    H8G14696   6.742   2.646   7.729 -1.6202 -0.2285 -1.9450
  135OSM    C9F14697   6.913   2.519   7.753  0.2563 -0.9143  0.4269
  135OSM    H9F14698   7.001   2.474   7.704  1.7729  0.3426  1.8908
  135OSM   C10F14699   6.911   2.496   7.887 -0.2863  0.0527 -0.0936
  135OSM   H10F14700   6.966   2.410   7.929  0.2746 -0.2206 -1.3484
  135OSM   C11F14701   6.800   2.543   7.981  0.4761 -0.2010 -0.0989
  135OSM   H11F14702   6.771   2.468   8.058 -0.6150 -1.0696 -1.3304
  135OSM   H11G14703   6.708   2.565   7.922  0.6114  1.7346  0.3962
  135OSM   C12F14704   6.856   2.672   8.048 -0.1799 -0.6471 -0.6904
  135OSM   H12F14705   6.881   2.746   7.969 -0.0191 -0.9785 -0.9489
  135OSM   H12G14706   6.939   2.625   8.105  0.4371 -1.8246 -2.5289
  135OSM   C13F14707   6.768   2.739   8.154  0.9323 -0.5152  0.1293
  135OSM   H13F14708   6.725   2.655   8.211  0.5058  0.7947  1.7812
  135OSM   H13G14709   6.677   2.788   8.114  1.6495  1.7974  1.2092
  135OSM   C14F14710   6.840   2.835   8.251 -0.7907 -0.5753 -0.0577
  135OSM   H14F14711   6.902   2.900   8.187  2.0560 -1.9914  1.1847
  135OSM   H14G14712   6.907   2.761   8.300  0.6119 -0.5640 -1.9262
  135OSM   C15F14713   6.756   2.905   8.356  1.1443  0.7969 -0.2712
  135OSM   H15F14714   6.700   2.832   8.419 -0.8000  2.0224 -0.5342
  135OSM   H15G14715   6.684   2.969   8.302 -0.9826  0.0372  1.5866
  135OSM   C16F14716   6.834   3.000   8.448 -0.3274 -0.0066  0.4795
  135OSM   H16F14717   6.893   3.065   8.381 -1.2202 -1.7452 -2.0899
  135OSM   H16G14718   6.896   2.934   8.512 -0.2681  1.7342  2.2434
  135OSM   C17F14719   6.744   3.112   8.525  0.2544  0.3357  0.6856
  135OSM   H17F14720   6.801   3.173   8.598 -1.1117  0.6119  1.5283
  135OSM   H17G14721   6.655   3.067   8.575 -0.7497  3.0139  1.3859
  135OSM   C18F14722   6.669   3.201   8.433  0.0191 -0.9379 -0.1583
  135OSM   H18F14723   6.627   3.293   8.481 -3.2251 -1.6189 -1.5953
  135OSM   H18G14724   6.588   3.142   8.385 -1.8025 -0.3501  2.1000
  135OSM   H18H14725   6.736   3.238   8.353 -0.5153  0.7630  0.1459
  136OSM      N14726   5.604   2.429   6.117  0.4508 -0.0250  0.2625
  136OSM    C1514727   5.657   2.377   5.984 -0.4633 -0.3815 -1.0687
  136OSM   H15A14728   5.743   2.432   5.949  0.0518 -1.1536 -1.0171
  136OSM   H15B14729   5.586   2.403   5.906 -1.0444  1.2231 -0.0323
  136OSM   H15C14730   5.669   2.270   5.987  1.5561 -0.2132 -2.2040
  136OSM    C1414731   5.477   2.365   6.161  0.3754 -0.6616 -0.2306
  136OSM   H14A14732   5.450   2.413   6.254 -0.6672 -3.8232  1.1681
  136OSM   H14B14733   5.496   2.263   6.191 -1.2555 -0.1564  2.8080
  136OSM   H14C14734   5.397   2.373   6.089 -1.4883 -3.6294  1.4140
  136OSM    C1314735   5.705   2.395   6.217 -0.2029  0.6360  0.5169
  136OSM   H13A14736   5.699   2.289   6.238  2.1112  0.1468 -1.0209
  136OSM   H13B14737   5.683   2.449   6.308  0.1475  0.0986  0.9274
  136OSM   H13C14738   5.810   2.414   6.197 -0.5671 -0.1343 -2.2005
  136OSM    C1214739   5.579   2.577   6.106 -0.5919  0.0840 -0.2520
  136OSM   H12A14740   5.503   2.594   6.031  0.1192 -1.7893 -1.4202
  136OSM   H12B14741   5.664   2.622   6.057  0.5083 -2.2435 -0.5532
  136OSM    C1114742   5.556   2.660   6.238  0.4461  0.1135 -0.6557
  136OSM   H11A14743   5.550   2.766   6.203 -1.0693  0.4586  0.5640
  136OSM   H11B14744   5.651   2.658   6.295  0.6967  0.7784 -1.0379
  136OSM      P14745   5.308   2.704   6.299 -0.3485  0.0785 -0.3826
  136OSM    O1314746   5.318   2.817   6.389  0.7591  0.6567 -0.2944
  136OSM    O1414747   5.283   2.742   6.160  0.4364  0.6790 -0.4202
  136OSM    O1114748   5.206   2.598   6.351  0.2583  0.1329 -0.4988
  136OSM    O1214749   5.441   2.624   6.309 -0.2036 -0.1003 -0.1190
  136OSM    C1S14750   5.243   2.527   6.476  0.4553 -0.2527  0.7966
  136OSM    H1S14751   5.326   2.572   6.535 -0.0737 -0.5803  1.8011
  136OSM    H1T14752   5.277   2.422   6.460 -0.9074 -0.5193 -0.4258
  136OSM     NF14753   5.120   2.452   6.692  0.0267  0.0252  0.4120
  136OSM    HNF14754   5.095   2.356   6.691  1.4183 -0.4271  2.9182
  136OSM    C2S14755   5.105   2.513   6.557  0.3886 -0.5710 -0.3577
  136OSM    H2S14756   5.076   2.616   6.586  0.9770 -1.3041  2.9981
  136OSM    C3S14757   4.989   2.449   6.468  0.0695 -0.5602  0.1100
  136OSM    H3S14758   5.002   2.340   6.456 -0.3733 -0.8946  2.4569
  136OSM     O314759   4.969   2.499   6.336 -0.4613 -0.2155 -0.3379
  136OSM    HO314760   5.046   2.553   6.318 -1.2114  0.8637 -0.3573
  136OSM    C4S14761   4.862   2.439   6.549  0.0351  0.2215  0.4391
  136OSM    H4S14762   4.843   2.346   6.604  0.1914 -0.1275 -0.0956
  136OSM    C5S14763   4.771   2.531   6.571 -0.2487  0.1973 -0.8410
  136OSM    H5S14764   4.783   2.634   6.533 -0.9604  0.6073  0.0264
  136OSM    C6S14765   4.646   2.512   6.645  0.4557 -0.9934 -0.5405
  136OSM    H6S14766   4.600   2.412   6.629  0.2684 -0.7322 -1.6706
  136OSM    H6T14767   4.570   2.583   6.605 -1.6215 -3.4163 -1.0548
  136OSM    C7S14768   4.663   2.544   6.800 -0.1691  0.1172 -0.3257
  136OSM    H7S14769   4.556   2.546   6.833 -0.2916 -0.3415 -0.6953
  136OSM    H7T14770   4.722   2.638   6.809  0.2766 -0.2346  0.4867
  136OSM    C8S14771   4.738   2.435   6.878  0.3722  0.0374  0.1904
  136OSM    H8S14772   4.846   2.459   6.872  0.4121 -0.3304 -0.5881
  136OSM    H8T14773   4.723   2.331   6.842 -0.8075  0.5027 -0.7143
  136OSM    C9S14774   4.714   2.438   7.029  0.5426  0.1577 -0.3166
  136OSM    H9S14775   4.755   2.345   7.073  1.8535  0.5488 -0.6812
  136OSM    H9T14776   4.605   2.448   7.046  0.7205  0.4999  0.6416
  136OSM   C10S14777   4.784   2.551   7.103  0.0857 -0.5304 -0.1188
  136OSM   H10S14778   4.764   2.651   7.058  0.0484  0.5314  2.1822
  136OSM   H10T14779   4.893   2.531   7.099  0.1371 -0.1389 -0.7970
  136OSM   C11S14780   4.736   2.557   7.248 -0.6356 -0.3875  0.0731
  136OSM   H11S14781   4.758   2.466   7.308 -0.0602  1.2853  2.4655
  136OSM   H11T14782   4.625   2.559   7.255 -0.6997 -2.5124 -0.0860
  136OSM   C12S14783   4.786   2.686   7.316 -0.4866  1.3539  0.0626
  136OSM   H12S14784   4.754   2.775   7.259 -0.1766  0.6254 -1.2557
  136OSM   H12T14785   4.897   2.684   7.318 -0.4780  1.7601  0.1536
  136OSM   C13S14786   4.736   2.702   7.459  0.2349  0.3775  0.0556
  136OSM   H13S14787   4.772   2.616   7.520 -1.5139 -0.5351 -0.1605
  136OSM   H13T14788   4.625   2.713   7.462  0.1602 -0.2026 -0.5937
  136OSM   C14S14789   4.786   2.836   7.527  0.1434  0.3027  0.0340
  136OSM   H14S14790   4.760   2.929   7.472 -0.0528 -0.0388 -0.4478
  136OSM   H14T14791   4.897   2.837   7.535  0.1114  1.8923  0.5185
  136OSM   C15S14792   4.723   2.847   7.666 -0.7188  0.2293 -0.0681
  136OSM   H15S14793   4.740   2.752   7.721  4.3714  0.6343 -0.7240
  136OSM   H15T14794   4.614   2.850   7.646 -0.6855 -2.1225 -0.7941
  136OSM   C16S14795   4.776   2.962   7.751  0.3534  0.5163 -0.4488
  136OSM   H16S14796   4.754   3.056   7.695  5.1292  0.4539 -2.7549
  136OSM   H16T14797   4.886   2.958   7.770  0.3672 -1.7436 -0.9270
  136OSM   C17S14798   4.717   2.979   7.894  0.4130 -0.0136 -0.7091
  136OSM   H17S14799   4.728   2.886   7.953  0.2839 -0.3965 -1.2862
  136OSM   H17T14800   4.608   2.997   7.886  0.3376  0.7357  1.7736
  136OSM   C18S14801   4.773   3.091   7.979 -0.3763 -0.1085  0.2193
  136OSM   H18S14802   4.714   3.109   8.072  1.6396 -1.0584  1.7341
  136OSM   H18T14803   4.773   3.188   7.926  0.3184  1.2031  2.5441
  136OSM   H18U14804   4.874   3.053   8.007 -0.8729 -0.7285  1.1951
  136OSM    C1F14805   5.180   2.505   6.800  0.4148  0.0685  0.1583
  136OSM     OF14806   5.240   2.613   6.799 -0.6621  0.2872  0.1237
  136OSM    C2F14807   5.166   2.426   6.928  0.6151 -0.0758  0.2347
  136OSM    H2F14808   5.226   2.333   6.922  0.4022 -0.2045  0.1159
  136OSM    H2G14809   5.063   2.384   6.926 -0.5882  2.7044  1.1106
  136OSM    C3F14810   5.184   2.515   7.050 -0.0173 -0.2779  0.9124
  136OSM    H3F14811   5.102   2.590   7.047 -1.3950 -1.8188 -0.7525
  136OSM    H3G14812   5.281   2.568   7.054  0.1599 -0.4877 -0.5231
  136OSM    C4F14813   5.168   2.450   7.184 -0.0193  0.4114 -0.2838
  136OSM    H4F14814   5.240   2.366   7.192  0.6391  1.1292  1.5209
  136OSM    H4G14815   5.061   2.425   7.196 -0.1434 -1.5487 -4.6200
  136OSM    C5F14816   5.203   2.548   7.299 -0.7083 -0.6115 -0.5729
  136OSM    H5F14817   5.141   2.638   7.282  1.2502  0.6535 -1.1943
  136OSM    H5G14818   5.311   2.570   7.285 -0.8111 -0.3205 -0.9242
  136OSM    C6F14819   5.191   2.477   7.434  0.0424  0.1843 -0.0057
  136OSM    H6F14820   5.250   2.384   7.446 -1.3402 -0.4638  2.0315
  136OSM    H6G14821   5.084   2.445   7.433  0.1427 -0.1481 -0.6588
  136OSM    C7F14822   5.222   2.551   7.570 -0.3920  0.4407  0.1627
  136OSM    H7F14823   5.201   2.486   7.659  1.0800 -0.4735 -0.1403
  136OSM    H7G14824   5.141   2.626   7.578 -0.3265  0.3935  1.4999
  136OSM    C8F14825   5.360   2.628   7.577 -0.2482  0.2486  0.1489
  136OSM    H8F14826   5.356   2.687   7.672 -1.5119  1.8769 -0.8882
  136OSM    H8G14827   5.364   2.689   7.484  0.6011  0.0149  0.0294
  136OSM    C9F14828   5.470   2.521   7.592 -0.0142 -0.3056 -0.0397
  136OSM    H9F14829   5.481   2.464   7.499 -0.7011 -3.8016  1.9235
  136OSM   C10F14830   5.554   2.504   7.698 -0.0523 -0.2751 -0.4245
  136OSM   H10F14831   5.639   2.437   7.679 -0.0266 -0.2079 -0.5504
  136OSM   C11F14832   5.536   2.572   7.832  0.1565  0.4893  0.8176
  136OSM   H11F14833   5.438   2.624   7.832 -0.1090  0.0138 -0.3474
  136OSM   H11G14834   5.613   2.652   7.841 -1.2985  1.9815  0.3055
  136OSM   C12F14835   5.537   2.492   7.965 -0.5427  0.2443 -0.7272
  136OSM   H12F14836   5.641   2.454   7.977 -0.1893  0.6228 -2.4173
  136OSM   H12G14837   5.464   2.408   7.959 -1.0821  0.6078  0.6837
  136OSM   C13F14838   5.516   2.571   8.098  0.1057 -0.4199  0.3160
  136OSM   H13F14839   5.497   2.509   8.188 -0.7912 -0.0626  0.3847
  136OSM   H13G14840   5.423   2.629   8.079 -0.5159 -0.6422  2.5150
  136OSM   C14F14841   5.618   2.680   8.143  0.7604  0.5360  0.3896
  136OSM   H14F14842   5.617   2.759   8.065 -2.3317  0.1466 -0.0124
  136OSM   H14G14843   5.713   2.622   8.144  1.7234  2.0870  1.0017
  136OSM   C15F14844   5.599   2.750   8.278 -0.3464  0.6325  0.6594
  136OSM   H15F14845   5.672   2.831   8.300 -0.3821  0.3692  1.8043
  136OSM   H15G14846   5.624   2.673   8.354 -2.8880 -0.3762  0.5140
  136OSM   C16F14847   5.466   2.817   8.287 -0.2541  0.6939 -0.1377
  136OSM   H16F14848   5.385   2.748   8.255  0.1869 -0.9826  2.1896
  136OSM   H16G14849   5.464   2.907   8.222  2.0878  1.1493  0.3575
  136OSM   C17F14850   5.421   2.847   8.428 -0.4421 -0.3878 -0.5480
  136OSM   H17F14851   5.467   2.763   8.484  0.6232 -0.0971 -0.9787
  136OSM   H17G14852   5.311   2.838   8.420 -0.7310 -1.4125  3.4714
  136OSM   C18F14853   5.451   2.989   8.481 -0.6434 -0.9669 -0.3539
  136OSM   H18F14854   5.407   3.075   8.426 -1.7537 -1.4810 -0.2682
  136OSM   H18G14855   5.557   3.013   8.458 -1.0915  0.3673 -1.1539
  136OSM   H18H14856   5.422   2.995   8.588 -2.6784 -1.7909 -0.8540
  137OSM      N14857   0.663   0.710   6.300  0.4828 -0.5591  0.8998
  137OSM    C1514858   0.705   0.834   6.225  0.2196 -0.4079  0.1129
  137OSM   H15A14859   0.679   0.923   6.281  2.2333  0.9109 -1.0152
  137OSM   H15B14860   0.661   0.847   6.128 -0.2950 -0.8887  0.2789
  137OSM   H15C14861   0.811   0.837   6.207  0.5108 -0.4853  1.7524
  137OSM    C1414862   0.515   0.734   6.322 -0.0079 -0.7297  0.5531
  137OSM   H14A14863   0.497   0.823   6.381 -0.6347  0.1212 -0.8805
  137OSM   H14B14864   0.471   0.649   6.371  2.3571 -1.8956  0.7195
  137OSM   H14C14865   0.468   0.761   6.228  1.8605 -0.6352 -0.3844
  137OSM    C1314866   0.681   0.594   6.211  0.2285 -0.1744  0.2652
  137OSM   H13A14867   0.615   0.606   6.126 -0.1066 -2.1528  0.2366
  137OSM   H13B14868   0.666   0.499   6.258 -1.2882 -0.3773 -0.6275
  137OSM   H13C14869   0.781   0.588   6.168  0.2680  0.9162  0.1890
  137OSM    C1214870   0.743   0.694   6.428  0.1542 -0.2646  0.1103
  137OSM   H12A14871   0.848   0.679   6.407 -0.4631 -2.2858 -1.6871
  137OSM   H12B14872   0.712   0.604   6.478 -0.1948  0.3374  0.9969
  137OSM    C1114873   0.725   0.805   6.533  0.1447  0.3199  0.3297
  137OSM   H11A14874   0.765   0.767   6.630  1.0462  1.4735  0.4277
  137OSM   H11B14875   0.618   0.827   6.551 -0.7811 -2.2146 -1.7731
  137OSM      P14876   0.951   0.917   6.480 -0.1974  0.1404  0.1461
  137OSM    O1314877   1.006   0.793   6.418 -0.2796  0.5110  0.4321
  137OSM    O1414878   0.992   1.042   6.420  0.1770 -0.6236 -0.2890
  137OSM    O1114879   1.000   0.914   6.628 -0.2354 -0.0630 -0.2787
  137OSM    O1214880   0.791   0.923   6.490  0.1263 -0.1233 -0.0920
  137OSM    C1S14881   1.013   1.028   6.711  0.2617  0.4685  0.2193
  137OSM    H1S14882   0.927   1.095   6.688 -0.1343  0.0963  0.6134
  137OSM    H1T14883   1.105   1.089   6.702  1.2083 -1.0642 -0.4656
  137OSM     NF14884   0.968   1.118   6.941 -0.7698 -0.6686 -0.2152
  137OSM    HNF14885   1.051   1.147   6.988 -0.6531  1.3937 -1.6744
  137OSM    C2S14886   0.991   0.992   6.866 -0.1117 -0.4801  0.5596
  137OSM    H2S14887   0.895   0.936   6.874 -0.7649  0.6378  0.5923
  137OSM    C3S14888   1.117   0.897   6.901  0.1052 -0.3989 -0.5076
  137OSM    H3S14889   1.206   0.959   6.881 -2.0963  2.5512 -1.5712
  137OSM     O314890   1.124   0.775   6.827 -0.5177  0.3562 -0.0834
  137OSM    HO314891   1.055   0.781   6.761 -2.0944  1.1522  1.5759
  137OSM    C4S14892   1.116   0.886   7.055 -0.3497  0.2197  0.2751
  137OSM    H4S14893   1.165   0.974   7.100  0.5883 -1.3091  2.3229
  137OSM    C5S14894   1.055   0.795   7.134  0.2730 -0.4325 -0.3903
  137OSM    H5S14895   0.988   0.719   7.091  1.2440 -0.0604 -2.6335
  137OSM    C6S14896   1.060   0.787   7.286  1.0357 -0.1733  0.3820
  137OSM    H6S14897   1.140   0.712   7.304 -0.7844 -1.9365  1.2758
  137OSM    H6T14898   0.964   0.750   7.326  0.2152  2.1128  0.5958
  137OSM    C7S14899   1.106   0.920   7.354  0.2081 -0.3591 -0.3518
  137OSM    H7S14900   1.052   1.013   7.329  1.4961  0.6611  0.5584
  137OSM    H7T14901   1.215   0.932   7.333  1.3226 -3.9413  2.8417
  137OSM    C8S14902   1.081   0.895   7.504 -0.2510 -0.8406 -0.3303
  137OSM    H8S14903   1.121   0.795   7.531  0.7944 -0.3581 -0.0341
  137OSM    H8T14904   0.971   0.898   7.518 -0.1147  0.3504  0.6572
  137OSM    C9S14905   1.134   1.017   7.585 -0.7246 -0.0949  0.9449
  137OSM    H9S14906   1.083   1.111   7.555 -1.6119 -0.5555  0.9614
  137OSM    H9T14907   1.243   1.022   7.565 -1.1965 -1.0284 -2.0905
  137OSM   C10S14908   1.116   0.997   7.740 -0.3555  0.3241 -0.3964
  137OSM   H10S14909   1.141   0.894   7.774  1.6763  0.9862  0.1758
  137OSM   H10T14910   1.009   1.020   7.762  0.2542  1.9409  0.9420
  137OSM   C11S14911   1.185   1.106   7.825 -0.1558  0.0014  0.1194
  137OSM   H11S14912   1.163   1.201   7.771 -2.1984 -0.3923  0.2046
  137OSM   H11T14913   1.291   1.076   7.836 -0.3667 -0.2135  1.6818
  137OSM   C12S14914   1.131   1.115   7.971 -0.1636 -0.9382  0.5481
  137OSM   H12S14915   1.028   1.157   7.961 -0.5337 -1.8666  0.3309
  137OSM   H12T14916   1.192   1.186   8.030  0.0460  0.3399 -1.1661
  137OSM   C13S14917   1.123   0.982   8.047 -0.6929  0.4078  0.4634
  137OSM   H13S14918   1.213   0.919   8.028 -0.8022  0.3499  0.1279
  137OSM   H13T14919   1.033   0.931   8.006  0.2984  0.3497 -1.7282
  137OSM   C14S14920   1.093   0.989   8.197 -0.9606 -0.1023  0.1946
  137OSM   H14S14921   1.083   0.888   8.243 -0.9059  0.0841  0.6126
  137OSM   H14T14922   1.002   1.049   8.216 -1.4615 -0.9156  0.3851
  137OSM   C15S14923   1.215   1.041   8.280 -1.2960 -0.7212 -0.1959
  137OSM   H15S14924   1.267   1.131   8.240 -2.1626  0.9247  2.2576
  137OSM   H15T14925   1.282   0.952   8.285  3.6022  2.7330  0.3093
  137OSM   C16S14926   1.188   1.065   8.429 -0.5148 -0.5331  0.0520
  137OSM   H16S14927   1.166   0.964   8.471 -0.7996  1.3415  4.7563
  137OSM   H16T14928   1.098   1.128   8.447 -0.0220  0.2799 -0.3178
  137OSM   C17S14929   1.307   1.117   8.512  0.2153 -0.4844 -0.4590
  137OSM   H17S14930   1.332   1.222   8.485  0.6325 -0.8249 -1.4334
  137OSM   H17T14931   1.390   1.049   8.486 -0.8116 -1.7969 -0.3994
  137OSM   C18S14932   1.281   1.111   8.662 -0.4109  0.9228 -0.0749
  137OSM   H18S14933   1.339   1.026   8.705 -0.4340  1.9939  2.1789
  137OSM   H18T14934   1.174   1.107   8.691 -0.4553  3.1468  0.1352
  137OSM   H18U14935   1.325   1.206   8.701 -1.1871  2.5709 -3.1068
  137OSM    C1F14936   0.848   1.177   6.941 -0.6883 -0.6534 -0.0687
  137OSM     OF14937   0.766   1.132   6.866  0.1649  0.6169  0.3029
  137OSM    C2F14938   0.837   1.313   7.010  0.8869 -0.0820  0.0276
  137OSM    H2F14939   0.728   1.336   7.008  0.3954 -2.3587 -0.8922
  137OSM    H2G14940   0.895   1.387   6.950 -3.4735  2.8299 -0.8322
  137OSM    C3F14941   0.889   1.322   7.159 -0.5962  0.1302 -0.3205
  137OSM    H3F14942   0.891   1.426   7.199  0.0827  0.5490 -1.4243
  137OSM    H3G14943   0.995   1.288   7.157 -1.5336 -2.8798 -1.1311
  137OSM    C4F14944   0.801   1.244   7.254  0.2644  0.9771  0.1734
  137OSM    H4F14945   0.799   1.139   7.218  4.3434  1.1425 -0.7969
  137OSM    H4G14946   0.701   1.294   7.259 -0.8762 -1.2734  0.6136
  137OSM    C5F14947   0.857   1.244   7.398  0.0829 -0.4286 -0.3104
  137OSM    H5F14948   0.913   1.338   7.417  0.3819 -0.8574  0.9487
  137OSM    H5G14949   0.927   1.164   7.430 -1.0641  0.0805  3.7395
  137OSM    C6F14950   0.739   1.247   7.499 -0.0195  0.4504  0.3370
  137OSM    H6F14951   0.659   1.179   7.462  1.8092 -1.1749 -0.7462
  137OSM    H6G14952   0.703   1.348   7.471 -2.5328 -0.1885  1.1401
  137OSM    C7F14953   0.784   1.252   7.648  0.6579 -0.4124  0.1027
  137OSM    H7F14954   0.860   1.171   7.655 -0.2673 -1.1534  1.8918
  137OSM    H7G14955   0.709   1.216   7.722  0.6850  3.0906  1.9306
  137OSM    C8F14956   0.852   1.378   7.702  0.4592  0.0629 -0.0809
  137OSM    H8F14957   0.894   1.440   7.620 -1.9932  1.2790 -0.4763
  137OSM    H8G14958   0.938   1.338   7.760  0.2482 -0.4010 -0.0802
  137OSM    C9F14959   0.750   1.453   7.793  0.3299 -0.1128 -0.5478
  137OSM    H9F14960   0.665   1.504   7.745 -0.5503  0.4004  1.5010
  137OSM   C10F14961   0.762   1.469   7.930  0.0351 -1.4244  0.3038
  137OSM   H10F14962   0.694   1.538   7.981 -0.4338 -1.0146 -0.8674
  137OSM   C11F14963   0.873   1.420   8.022  0.9124 -0.2134 -0.4042
  137OSM   H11F14964   0.923   1.505   8.071 -2.7734  0.8397  1.6917
  137OSM   H11G14965   0.950   1.366   7.963 -0.1871 -1.7325 -0.4815
  137OSM   C12F14966   0.841   1.322   8.143  0.3046 -0.6916 -0.6485
  137OSM   H12F14967   0.934   1.299   8.200 -0.0557 -0.4342  0.0584
  137OSM   H12G14968   0.798   1.228   8.103 -2.4423  0.1633  0.1597
  137OSM   C13F14969   0.747   1.376   8.249 -0.1921  0.0039 -0.1973
  137OSM   H13F14970   0.750   1.308   8.336  0.7025  0.2375 -0.0404
  137OSM   H13G14971   0.649   1.365   8.198  0.9599  2.4624 -3.0840
  137OSM   C14F14972   0.772   1.517   8.289 -0.4452 -0.1250 -0.4955
  137OSM   H14F14973   0.746   1.585   8.205 -0.4120 -0.1498 -0.5255
  137OSM   H14G14974   0.882   1.523   8.300 -0.2329  1.7024 -3.0345
  137OSM   C15F14975   0.697   1.552   8.419 -0.0387 -0.4063 -0.2332
  137OSM   H15F14976   0.726   1.486   8.503 -2.8487  0.4884  1.5245
  137OSM   H15G14977   0.589   1.527   8.406 -0.0569  0.5726 -2.1774
  137OSM   C16F14978   0.700   1.701   8.448 -0.0728 -0.1927  0.0431
  137OSM   H16F14979   0.629   1.716   8.531  0.0655  0.7203  0.0016
  137OSM   H16G14980   0.666   1.763   8.363  0.1546  0.8399  0.7034
  137OSM   C17F14981   0.823   1.762   8.503 -0.3123 -0.0098  0.6662
  137OSM   H17F14982   0.883   1.778   8.411 -1.5482 -2.4940 -0.6224
  137OSM   H17G14983   0.896   1.711   8.570 -0.3812 -0.3633  0.4775
  137OSM   C18F14984   0.788   1.897   8.564 -0.7742  0.7853 -0.2536
  137OSM   H18F14985   0.882   1.937   8.607  0.0043  0.8480 -1.9843
  137OSM   H18G14986   0.705   1.903   8.637 -0.9988 -1.8693 -0.2384
  137OSM   H18H14987   0.770   1.963   8.476 -0.3178  1.8770  0.4619
  138OSM      N14988   1.224   3.379   5.906  0.1211 -0.4130 -0.3222
  138OSM    C1514989   1.336   3.275   5.922  0.3364  0.8142 -0.0293
  138OSM   H15A14990   1.325   3.215   6.011 -1.2123  0.3955 -0.4904
  138OSM   H15B14991   1.432   3.324   5.923  0.7578  0.0320  3.6199
  138OSM   H15C14992   1.331   3.214   5.833  1.3446  0.5582  0.0905
  138OSM    C1414993   1.238   3.432   5.765  0.2902  0.9498  0.0121
  138OSM   H14A14994   1.341   3.453   5.742  0.4471  1.5991  1.2386
  138OSM   H14B14995   1.176   3.520   5.751  0.7276  1.3216  0.3570
  138OSM   H14C14996   1.211   3.356   5.693 -1.5309 -2.0748  3.7295
  138OSM    C1314997   1.094   3.300   5.930  0.2044  0.4309 -0.9279
  138OSM   H13A14998   1.103   3.247   6.023 -3.2716  1.0161 -0.1839
  138OSM   H13B14999   1.085   3.216   5.863  2.1959 -1.3201  0.9282
  138OSM   H13C15000   1.001   3.354   5.920 -0.1153  0.2899  1.1004
  138OSM    C1215001   1.251   3.481   6.012  0.5179 -0.6828 -0.2257
  138OSM   H12A15002   1.260   3.423   6.103  1.3972  0.6067  0.5257
  138OSM   H12B15003   1.169   3.551   6.022  0.3860 -0.7026 -1.1988
  138OSM    C1115004   1.373   3.575   5.993 -0.6417 -0.0347  0.5938
  138OSM   H11A15005   1.355   3.632   6.086 -4.7474 -0.3898  0.1261
  138OSM   H11B15006   1.354   3.645   5.909  2.7929  2.6392  1.9359
  138OSM      P15007   1.629   3.547   6.053 -0.6803 -0.2710  0.3770
  138OSM    O1315008   1.731   3.449   6.021 -0.4654 -0.4312 -0.3260
  138OSM    O1415009   1.647   3.692   6.008  0.1979  0.5858  0.0367
  138OSM    O1115010   1.608   3.551   6.215  0.0441 -0.1779  0.3839
  138OSM    O1215011   1.494   3.498   5.994 -0.4171 -0.0158 -0.1644
  138OSM    C1S15012   1.551   3.444   6.294  0.7466  0.0246 -0.0370
  138OSM    H1S15013   1.582   3.348   6.246 -0.9582 -0.1648 -0.7866
  138OSM    H1T15014   1.440   3.451   6.293  0.7906  0.7558 -0.6899
  138OSM     NF15015   1.538   3.348   6.515  0.2710  0.3227 -0.1273
  138OSM    HNF15016   1.462   3.377   6.572  0.1834  2.2665 -1.1961
  138OSM    C2S15017   1.590   3.457   6.442 -0.2727 -0.1890 -0.3682
  138OSM    H2S15018   1.701   3.455   6.442 -0.2714 -0.2165 -0.8120
  138OSM    C3S15019   1.533   3.595   6.494 -0.2904 -0.3941  0.0796
  138OSM    H3S15020   1.425   3.575   6.508 -0.3412 -1.0837 -1.2094
  138OSM     O315021   1.545   3.713   6.410 -0.4535  0.0307  0.4356
  138OSM    HO315022   1.590   3.681   6.331  1.8365  0.5183  1.4917
  138OSM    C4S15023   1.606   3.621   6.620 -0.3810 -0.0158  0.3514
  138OSM    H4S15024   1.706   3.662   6.604  0.5043 -1.1709  2.7005
  138OSM    C5S15025   1.563   3.605   6.746 -0.0015 -0.1186 -0.6061
  138OSM    H5S15026   1.468   3.561   6.779  0.1855  1.2355  1.8388
  138OSM    C6S15027   1.667   3.639   6.851  0.3687  0.3362 -0.0739
  138OSM    H6S15028   1.759   3.585   6.819 -1.1709 -1.0569 -2.3714
  138OSM    H6T15029   1.629   3.597   6.947 -2.8474 -0.0821 -1.4390
  138OSM    C7S15030   1.690   3.793   6.867 -0.1868 -0.3206  0.0257
  138OSM    H7S15031   1.593   3.839   6.897  0.0252 -0.6911  1.3271
  138OSM    H7T15032   1.711   3.828   6.764 -0.0428  0.9736  0.4819
  138OSM    C8S15033   1.802   3.833   6.958 -0.1431 -0.1354  0.0914
  138OSM    H8S15034   1.808   3.943   6.968  1.5140 -0.1670 -0.3811
  138OSM    H8T15035   1.898   3.783   6.933 -0.7453 -0.9452 -0.6366
  138OSM    C9S15036   1.781   3.785   7.109  0.2676  0.0455  0.0431
  138OSM    H9S15037   1.795   3.675   7.111  1.2504  0.1852  2.5589
  138OSM    H9T15038   1.679   3.809   7.144  0.2994  1.4097 -0.7386
  138OSM   C10S15039   1.875   3.847   7.205  0.0937  0.2520 -0.0114
  138OSM   H10S15040   1.846   3.953   7.220  0.7097  0.6279 -1.4139
  138OSM   H10T15041   1.980   3.855   7.170  0.1431  0.6049  0.2114
  138OSM   C11S15042   1.885   3.775   7.339 -0.0031  0.7275  0.4162
  138OSM   H11S15043   1.783   3.732   7.351  0.7608 -1.7106 -1.5171
  138OSM   H11T15044   1.907   3.846   7.422  1.8310 -1.1495  1.5999
  138OSM   C12S15045   1.986   3.666   7.352 -0.0637 -0.0181 -0.2243
  138OSM   H12S15046   2.084   3.706   7.320  1.0451 -3.0915 -0.9104
  138OSM   H12T15047   1.974   3.592   7.269 -2.6442  0.0069  0.0776
  138OSM   C13S15048   2.005   3.605   7.492  0.4713 -0.0573  0.2174
  138OSM   H13S15049   2.074   3.518   7.486  0.6577  0.1733 -1.3243
  138OSM   H13T15050   1.904   3.578   7.528 -0.4724 -0.0239 -2.2622
  138OSM   C14S15051   2.057   3.699   7.599 -0.7012 -0.0307 -0.4870
  138OSM   H14S15052   2.012   3.801   7.594 -0.7254  0.0856  1.5793
  138OSM   H14T15053   2.166   3.709   7.581 -0.8116  2.9233  0.1915
  138OSM   C15S15054   2.029   3.659   7.746 -0.6780  0.1575  0.4694
  138OSM   H15S15055   2.072   3.560   7.773  3.1251  1.2374 -1.2532
  138OSM   H15T15056   1.919   3.652   7.759 -0.4065 -0.2940  2.7620
  138OSM   C16S15057   2.094   3.758   7.853  0.4779  1.1713  0.0590
  138OSM   H16S15058   2.074   3.708   7.950 -1.3771  1.2587 -0.2718
  138OSM   H16T15059   2.026   3.845   7.858  0.2165  0.9694  0.0292
  138OSM   C17S15060   2.233   3.809   7.827  0.3913 -0.3371  0.3828
  138OSM   H17S15061   2.215   3.872   7.737  1.0345  1.7154  1.6558
  138OSM   H17T15062   2.312   3.736   7.800  1.6827  1.4188 -0.7435
  138OSM   C18S15063   2.284   3.896   7.937  0.6186  0.1879 -0.6297
  138OSM   H18S15064   2.272   3.847   8.036 -2.3266  1.7988 -0.1501
  138OSM   H18T15065   2.232   3.994   7.940 -1.8487 -1.1608  1.5317
  138OSM   H18U15066   2.388   3.913   7.901  0.9452 -1.8283 -0.6575
  138OSM    C1F15067   1.594   3.226   6.500  0.3352 -0.3693 -0.3367
  138OSM     OF15068   1.698   3.213   6.441  0.3816 -0.0720  0.8162
  138OSM    C2F15069   1.538   3.116   6.588 -0.2536  0.4836 -0.0240
  138OSM    H2F15070   1.590   3.025   6.555 -1.1055 -0.1713  0.4112
  138OSM    H2G15071   1.428   3.107   6.578 -0.2222  0.1144 -0.0247
  138OSM    C3F15072   1.562   3.142   6.743 -0.1439 -0.2887  0.6456
  138OSM    H3F15073   1.516   3.057   6.797 -1.1044 -0.0107  0.2723
  138OSM    H3G15074   1.501   3.230   6.772 -1.9562 -1.5025  0.5823
  138OSM    C4F15075   1.707   3.150   6.788 -0.4855 -0.5453  0.6124
  138OSM    H4F15076   1.758   3.239   6.745 -1.5976  0.4904  1.3760
  138OSM    H4G15077   1.755   3.055   6.757  0.6138 -0.0013  0.6038
  138OSM    C5F15078   1.718   3.176   6.943 -0.0468  0.0046  0.1935
  138OSM    H5F15079   1.827   3.187   6.959  0.3240  0.4022 -2.4636
  138OSM    H5G15080   1.672   3.095   7.003 -0.5638 -0.3881 -0.7238
  138OSM    C6F15081   1.651   3.299   7.004  0.4842  0.3829  0.4770
  138OSM    H6F15082   1.543   3.289   7.026  0.2881  2.5158  0.5879
  138OSM    H6G15083   1.649   3.383   6.932  2.2509 -0.9845 -1.2279
  138OSM    C7F15084   1.724   3.336   7.133 -0.2468 -0.3320  0.0742
  138OSM    H7F15085   1.689   3.434   7.174 -1.5431 -0.9716  0.5387
  138OSM    H7G15086   1.825   3.360   7.096  0.0849 -0.0169  1.1625
  138OSM    C8F15087   1.708   3.231   7.256 -0.7379  0.6243 -0.2552
  138OSM    H8F15088   1.740   3.134   7.213  0.7114  0.3232  1.4472
  138OSM    H8G15089   1.600   3.225   7.282 -0.9347  0.6221 -1.0559
  138OSM    C9F15090   1.794   3.271   7.373 -0.8078 -0.4066  0.8796
  138OSM    H9F15091   1.899   3.292   7.346 -0.1230 -2.1819  2.0564
  138OSM   C10F15092   1.764   3.271   7.504  0.6572 -0.1970  0.0690
  138OSM   H10F15093   1.841   3.280   7.582  1.6808 -0.7088 -0.8646
  138OSM   C11F15094   1.632   3.223   7.558 -0.4672 -0.1217  0.2665
  138OSM   H11F15095   1.630   3.114   7.539 -1.6729 -0.2126  0.8991
  138OSM   H11G15096   1.544   3.267   7.507  0.8536  2.1957 -0.0892
  138OSM   C12F15097   1.620   3.241   7.714 -0.0900  0.6056  0.3448
  138OSM   H12F15098   1.625   3.346   7.750 -1.2109  0.9157 -0.4062
  138OSM   H12G15099   1.714   3.192   7.748  0.3829  0.8177 -0.6409
  138OSM   C13F15100   1.503   3.160   7.766 -0.1533  0.0756 -0.0154
  138OSM   H13F15101   1.509   3.057   7.726 -1.6317 -0.2489  0.5637
  138OSM   H13G15102   1.411   3.212   7.730 -1.1985 -2.8592 -1.7212
  138OSM   C14F15103   1.505   3.157   7.914 -0.3931 -0.2765 -0.7800
  138OSM   H14F15104   1.451   3.246   7.953 -0.2730  0.4547 -2.2447
  138OSM   H14G15105   1.608   3.151   7.956 -0.2736 -0.4315 -1.0934
  138OSM   C15F15106   1.435   3.028   7.970 -0.0235  0.0495 -0.3470
  138OSM   H15F15107   1.339   3.011   7.916 -0.9951  2.6669  0.4734
  138OSM   H15G15108   1.426   3.037   8.080 -3.8489  1.5169 -0.6929
  138OSM   C16F15109   1.525   2.909   7.939  0.2891 -0.1023  0.1328
  138OSM   H16F15110   1.608   2.905   8.013 -2.2542  0.8048  3.1616
  138OSM   H16G15111   1.565   2.907   7.836 -0.4943  0.8319 -0.2010
  138OSM   C17F15112   1.455   2.771   7.957 -0.1913 -0.2023  0.5075
  138OSM   H17F15113   1.541   2.708   7.925  0.4793 -0.1353  2.1037
  138OSM   H17G15114   1.383   2.761   7.874 -2.5493 -1.5611  2.6447
  138OSM   C18F15115   1.386   2.736   8.090 -0.3795  0.8848  0.5739
  138OSM   H18F15116   1.321   2.819   8.125 -2.2333  0.3991 -1.6093
  138OSM   H18G15117   1.458   2.722   8.174 -1.0369 -1.5619  0.7651
  138OSM   H18H15118   1.313   2.653   8.082 -1.6506  2.0741 -0.6151
  139OSM      N15119   6.773   4.343   6.039 -0.0893  0.4865 -0.7937
  139OSM    C1515120   6.664   4.422   5.971 -0.4665 -0.1135  0.1739
  139OSM   H15A15121   6.608   4.471   6.050  0.2736  0.9549  0.0442
  139OSM   H15B15122   6.605   4.360   5.905 -1.0641  0.4148  0.2047
  139OSM   H15C15123   6.710   4.502   5.915  0.1538 -0.2178  0.5281
  139OSM    C1415124   6.715   4.223   6.088  0.6092  0.2420 -0.0031
  139OSM   H14A15125   6.655   4.229   6.178  0.6594 -3.4952  0.3643
  139OSM   H14B15126   6.796   4.156   6.113  0.4153  0.9190  2.5975
  139OSM   H14C15127   6.652   4.167   6.019  3.2403 -0.4373 -1.9160
  139OSM    C1315128   6.876   4.299   5.930  0.2504  0.3979  0.1280
  139OSM   H13A15129   6.822   4.281   5.839  0.3080  0.8194  0.0090
  139OSM   H13B15130   6.921   4.205   5.958 -0.4152 -0.2101 -0.8361
  139OSM   H13C15131   6.936   4.387   5.911 -2.1479  1.2880 -3.8561
  139OSM    C1215132   6.836   4.420   6.151  0.0539 -0.1455 -1.0749
  139OSM   H12A15133   6.764   4.430   6.230  1.3935  3.1673 -0.1725
  139OSM   H12B15134   6.863   4.523   6.131  0.6949 -0.0196  0.3844
  139OSM    C1115135   6.961   4.366   6.222 -0.3023  0.1244  0.2616
  139OSM   H11A15136   6.933   4.274   6.276  0.9077 -0.7659 -0.5996
  139OSM   H11B15137   6.986   4.430   6.310 -1.3906  1.2227 -0.2066
  139OSM      P15138   7.177   4.248   6.159 -0.0728  0.0478  0.4238
  139OSM    O1315139   7.117   4.123   6.109 -0.6258  0.2684  0.2545
  139OSM    O1415140   7.317   4.282   6.119  0.1790 -0.1872  0.0642
  139OSM    O1115141   7.180   4.242   6.316  0.2775  0.4555  0.2313
  139OSM    O1215142   7.073   4.367   6.131 -0.4171 -0.6599 -0.0637
  139OSM    C1S15143   7.291   4.282   6.392 -0.3617  0.7433 -0.3688
  139OSM    H1S15144   7.325   4.386   6.373  1.2386  0.1879 -0.6340
  139OSM    H1T15145   7.375   4.211   6.380  1.2698  2.4688  0.5917
  139OSM     NF15146   7.355   4.318   6.633  0.3886  0.0734 -0.4901
  139OSM    HNF15147   7.428   4.262   6.673  0.3172  0.6947  0.5251
  139OSM    C2S15148   7.256   4.255   6.543  0.5363  0.2145 -0.4471
  139OSM    H2S15149   7.161   4.309   6.563 -1.0868 -2.4029 -0.7943
  139OSM    C3S15150   7.242   4.097   6.569  0.9191  0.0543  0.7824
  139OSM    H3S15151   7.342   4.056   6.546  0.5680 -0.1113 -0.4962
  139OSM     O315152   7.147   4.039   6.481  0.7073  0.0924 -0.0065
  139OSM    HO315153   7.119   4.112   6.425  2.1381  0.1770 -0.6284
  139OSM    C4S15154   7.220   4.059   6.714  0.2779 -0.2903 -0.1302
  139OSM    H4S15155   7.314   4.043   6.770 -0.7029 -0.6385  1.4307
  139OSM    C5S15156   7.101   4.055   6.771  0.2360  0.0583 -0.8583
  139OSM    H5S15157   7.016   4.098   6.715 -2.5663 -1.6986  1.8579
  139OSM    C6S15158   7.067   4.018   6.915  0.0010 -0.0042 -0.1073
  139OSM    H6S15159   7.032   3.913   6.930 -0.4763 -0.1104 -1.8773
  139OSM    H6T15160   6.990   4.086   6.957 -0.7156  0.0965 -1.5789
  139OSM    C7S15161   7.193   4.034   7.013  0.1853  0.3239  0.3569
  139OSM    H7S15162   7.238   4.134   6.997  1.1660 -0.0431  0.7780
  139OSM    H7T15163   7.278   3.964   6.997  0.6499  1.1368 -0.8013
  139OSM    C8S15164   7.149   4.028   7.160  0.2372 -0.5348 -0.1342
  139OSM    H8S15165   7.117   3.922   7.165  0.9931 -0.7237  1.1342
  139OSM    H8T15166   7.062   4.097   7.166  1.0625  0.6801 -1.7886
  139OSM    C9S15167   7.263   4.060   7.262  0.4649 -1.1427 -0.0383
  139OSM    H9S15168   7.300   4.162   7.237 -1.9172 -0.7425 -2.1486
  139OSM    H9T15169   7.337   3.979   7.244 -0.0808 -1.4794 -0.8010
  139OSM   C10S15170   7.212   4.062   7.409 -0.7448  0.4951  0.5278
  139OSM   H10S15171   7.171   3.964   7.442  0.5980 -0.8771 -1.7487
  139OSM   H10T15172   7.123   4.127   7.419 -0.5175  1.0691 -0.9709
  139OSM   C11S15173   7.317   4.097   7.508 -0.1874  0.2187 -0.1084
  139OSM   H11S15174   7.358   4.198   7.488  0.7255  0.1759  1.4876
  139OSM   H11T15175   7.410   4.036   7.495 -0.2687  0.0945 -0.1076
  139OSM   C12S15176   7.272   4.091   7.655 -0.3109 -0.5831  0.0848
  139OSM   H12S15177   7.224   3.993   7.676 -0.3994 -0.6949 -0.6238
  139OSM   H12T15178   7.201   4.175   7.677  0.9713  1.0487 -1.8644
  139OSM   C13S15179   7.394   4.104   7.752  0.1356 -0.2794 -0.0347
  139OSM   H13S15180   7.443   4.200   7.725 -0.1697  0.3212  1.5176
  139OSM   H13T15181   7.471   4.027   7.729 -0.2435  0.0278 -2.4321
  139OSM   C14S15182   7.364   4.125   7.900 -0.0278  0.7385  0.0462
  139OSM   H14S15183   7.304   4.218   7.896  0.5166  1.1723  1.6502
  139OSM   H14T15184   7.452   4.148   7.964  0.9284  0.7080 -1.2345
  139OSM   C15S15185   7.284   4.011   7.963 -0.2059 -0.1467  0.5523
  139OSM   H15S15186   7.197   3.985   7.898  1.3760  0.0631 -1.7014
  139OSM   H15T15187   7.243   4.039   8.063  0.9873  0.0854  0.9828
  139OSM   C16S15188   7.365   3.885   7.997 -0.5316  0.1151  0.0158
  139OSM   H16S15189   7.452   3.920   8.057 -3.5969  1.7171  3.7966
  139OSM   H16T15190   7.398   3.839   7.902 -2.2900  1.0947 -1.1091
  139OSM   C17S15191   7.282   3.782   8.075 -0.0070 -0.0946 -0.2233
  139OSM   H17S15192   7.310   3.681   8.039 -0.6982 -0.2947 -0.2044
  139OSM   H17T15193   7.175   3.807   8.062 -0.8487 -1.4108  3.5130
  139OSM   C18S15194   7.323   3.792   8.219  0.3613  0.0671  0.4973
  139OSM   H18S15195   7.318   3.899   8.249  1.6496 -0.0941  1.3359
  139OSM   H18T15196   7.418   3.744   8.249  0.1129  1.3607  3.5453
  139OSM   H18U15197   7.242   3.739   8.275 -0.2477 -0.1217 -0.5443
  139OSM    C1F15198   7.373   4.445   6.623 -0.2424  0.5178  0.1649
  139OSM     OF15199   7.290   4.517   6.568  0.1589  0.2994  0.9097
  139OSM    C2F15200   7.508   4.483   6.659 -0.2213 -0.3804 -0.8040
  139OSM    H2F15201   7.559   4.544   6.582 -1.1823  1.4224 -0.0436
  139OSM    H2G15202   7.569   4.393   6.678  1.8388  0.7922 -1.7035
  139OSM    C3F15203   7.513   4.571   6.783 -0.2952 -0.4425 -0.5148
  139OSM    H3F15204   7.468   4.665   6.745 -0.8037 -1.0636 -1.4576
  139OSM    H3G15205   7.617   4.594   6.815 -0.2156 -1.7356  0.1897
  139OSM    C4F15206   7.438   4.521   6.906  0.1996  0.1464  0.7551
  139OSM    H4F15207   7.457   4.411   6.911 -0.0081  0.1586  1.9020
  139OSM    H4G15208   7.331   4.535   6.878  0.6813  1.4065 -0.4624
  139OSM    C5F15209   7.466   4.596   7.039  0.9065 -0.5894  0.3846
  139OSM    H5F15210   7.575   4.586   7.058  0.6873 -1.1925  1.3275
  139OSM    H5G15211   7.411   4.549   7.123  1.1916  0.5062  1.2077
  139OSM    C6F15212   7.435   4.745   7.035 -0.6048 -0.0891 -0.7436
  139OSM    H6F15213   7.338   4.769   6.986 -0.2137  0.8111 -1.1097
  139OSM    H6G15214   7.512   4.782   6.963  2.1114 -0.3037  1.9406
  139OSM    C7F15215   7.467   4.823   7.168 -0.4047  0.1391  0.1217
  139OSM    H7F15216   7.393   4.789   7.244 -0.3932 -0.5741 -0.1796
  139OSM    H7G15217   7.439   4.928   7.145 -2.0950 -0.6751 -1.7492
  139OSM    C8F15218   7.614   4.818   7.216 -0.5784 -0.6455  0.0826
  139OSM    H8F15219   7.678   4.851   7.132  1.2144 -0.1609  1.6174
  139OSM    H8G15220   7.651   4.713   7.226 -0.3680 -0.6381 -0.6209
  139OSM    C9F15221   7.627   4.919   7.332  0.4213  0.2428  0.5466
  139OSM    H9F15222   7.598   5.021   7.304 -0.2342  0.0371  0.4585
  139OSM   C10F15223   7.656   4.884   7.457  0.6090 -0.1673  0.1083
  139OSM   H10F15224   7.668   4.962   7.533  0.8606  0.0997 -0.2039
  139OSM   C11F15225   7.689   4.737   7.502 -0.0245 -0.0025  0.0763
  139OSM   H11F15226   7.746   4.700   7.415  1.2656  2.1866 -0.0464
  139OSM   H11G15227   7.597   4.680   7.528 -0.0238  0.2676  0.6817
  139OSM   C12F15228   7.774   4.738   7.628 -0.1579 -0.1420  0.0243
  139OSM   H12F15229   7.731   4.802   7.709  1.8988  0.1794  0.8910
  139OSM   H12G15230   7.871   4.792   7.616 -0.1306  0.3302  2.1366
  139OSM   C13F15231   7.795   4.603   7.704  0.0021 -0.4446  0.3758
  139OSM   H13F15232   7.901   4.611   7.737  0.2342 -0.5478 -0.3219
  139OSM   H13G15233   7.799   4.516   7.635  1.1801  0.2981 -0.5285
  139OSM   C14F15234   7.688   4.570   7.808  0.1789 -0.4612 -0.1837
  139OSM   H14F15235   7.598   4.530   7.756  1.4865 -2.0246 -1.3064
  139OSM   H14G15236   7.661   4.657   7.872  1.3172 -1.6319  1.9319
  139OSM   C15F15237   7.735   4.467   7.907 -0.3228  0.5542  0.1923
  139OSM   H15F15238   7.837   4.492   7.943 -0.4409 -0.0581  0.9637
  139OSM   H15G15239   7.759   4.377   7.847 -2.4453  0.7814 -1.0458
  139OSM   C16F15240   7.630   4.416   8.013 -0.0594  0.3326 -0.6222
  139OSM   H16F15241   7.685   4.377   8.101  0.4080  1.3524 -0.4648
  139OSM   H16G15242   7.580   4.325   7.971  2.1728 -2.0091  1.5825
  139OSM   C17F15243   7.526   4.520   8.049  0.6880 -0.7450  0.2163
  139OSM   H17F15244   7.464   4.539   7.959 -1.2406 -0.4054  1.5825
  139OSM   H17G15245   7.574   4.613   8.084 -0.1263  0.4010 -1.6585
  139OSM   C18F15246   7.430   4.482   8.162 -0.7821 -0.5082 -0.1125
  139OSM   H18F15247   7.486   4.446   8.250  0.6558 -0.8669 -1.1515
  139OSM   H18G15248   7.370   4.394   8.130 -1.2803 -0.0279 -0.5359
  139OSM   H18H15249   7.353   4.560   8.177 -0.4789 -0.3089  0.3936
  140OSM      N15250   0.227   6.248   6.066 -0.3814 -0.0883 -0.2135
  140OSM    C1515251   0.153   6.118   6.055  0.1461  0.2184 -0.3074
  140OSM   H15A15252   0.115   6.079   6.149  1.1792  1.1363  0.5003
  140OSM   H15B15253   0.221   6.045   6.015  0.5581  0.5897 -0.2845
  140OSM   H15C15254   0.059   6.116   6.002  0.8152 -2.5978 -1.4806
  140OSM    C1415255   0.299   6.269   5.928  0.6611 -0.6142  0.2576
  140OSM   H14A15256   0.336   6.173   5.896  1.4356 -0.0956 -0.4323
  140OSM   H14B15257   0.380   6.341   5.920  1.9568 -2.1917 -1.4152
  140OSM   H14C15258   0.231   6.296   5.848  1.1167  1.3154  0.4841
  140OSM    C1315259   0.131   6.357   6.078  0.0837  0.1426  0.7285
  140OSM   H13A15260   0.169   6.451   6.117 -1.9047  1.6522 -0.8973
  140OSM   H13B15261   0.058   6.329   6.152 -1.7368  2.7642  0.0054
  140OSM   H13C15262   0.080   6.378   5.986  0.0940 -0.9727  0.4659
  140OSM    C1215263   0.319   6.240   6.184 -0.2497  0.2781 -0.1551
  140OSM   H12A15264   0.268   6.197   6.269  0.8749  0.0074  0.3849
  140OSM   H12B15265   0.337   6.344   6.209 -0.4213  0.6689 -1.5978
  140OSM    C1115266   0.454   6.169   6.169  0.8062  0.2035 -0.4792
  140OSM   H11A15267   0.514   6.191   6.260  0.1858 -0.3862  0.0800
  140OSM   H11B15268   0.509   6.219   6.087  1.7300  0.5148  0.3170
  140OSM      P15269   0.436   5.920   6.257 -0.0679 -0.0719 -0.2077
  140OSM    O1315270   0.294   5.892   6.294 -0.1115 -0.3313 -0.1376
  140OSM    O1415271   0.519   5.795   6.219 -0.2238  0.4677  0.2896
  140OSM    O1115272   0.497   5.978   6.388  0.0448  0.1365  0.0345
  140OSM    O1215273   0.445   6.030   6.141  0.4661 -0.6211  0.0957
  140OSM    C1S15274   0.614   5.923   6.447  0.0568 -0.4166 -0.0382
  140OSM    H1S15275   0.708   5.958   6.398 -0.8600 -0.9646 -2.2499
  140OSM    H1T15276   0.605   5.812   6.447 -2.2389 -0.2624  1.9188
  140OSM     NF15277   0.756   5.949   6.640  0.3838 -0.1019 -0.3077
  140OSM    HNF15278   0.798   5.866   6.675  1.5704  1.4016  1.9291
  140OSM    C2S15279   0.618   5.951   6.598 -0.4003 -0.6336  0.2379
  140OSM    H2S15280   0.574   6.051   6.618  1.2872  0.2377 -0.3219
  140OSM    C3S15281   0.528   5.846   6.675  0.1042 -0.3127  0.6856
  140OSM    H3S15282   0.559   5.749   6.631  0.0925  0.2645 -0.6184
  140OSM     O315283   0.393   5.862   6.651 -0.2542 -0.5996 -0.1085
  140OSM    HO315284   0.387   5.934   6.587 -0.9320 -0.0465  0.5643
  140OSM    C4S15285   0.567   5.856   6.822  0.6220 -0.2260 -0.7636
  140OSM    H4S15286   0.650   5.792   6.857 -0.7829 -1.7929 -0.2134
  140OSM    C5S15287   0.508   5.936   6.912 -0.0886  0.3211 -0.6376
  140OSM    H5S15288   0.417   5.994   6.890 -1.0433 -0.9560 -0.1067
  140OSM    C6S15289   0.555   5.933   7.055 -0.7560 -0.1897 -0.2615
  140OSM    H6S15290   0.569   6.032   7.103 -1.2533 -0.6442  0.8363
  140OSM    H6T15291   0.651   5.877   7.062 -1.5952 -1.8649 -1.7166
  140OSM    C7S15292   0.460   5.852   7.144 -0.4073  0.9709 -0.3092
  140OSM    H7S15293   0.475   5.743   7.127  1.3656  1.1535 -0.0441
  140OSM    H7T15294   0.353   5.866   7.121 -0.6331  0.1370  0.1869
  140OSM    C8S15295   0.479   5.887   7.299 -0.2103  0.9378  0.0004
  140OSM    H8S15296   0.587   5.882   7.327 -0.6756 -2.1786  1.4733
  140OSM    H8T15297   0.417   5.807   7.345 -0.0564  0.6162 -0.3501
  140OSM    C9S15298   0.421   6.028   7.339 -0.8784  0.1184  0.1126
  140OSM    H9S15299   0.342   6.043   7.262  0.7988 -0.8283 -1.8512
  140OSM    H9T15300   0.505   6.099   7.326  0.4599 -1.3910  0.3881
  140OSM   C10S15301   0.369   6.031   7.483 -0.2914 -0.4427 -0.5715
  140OSM   H10S15302   0.299   5.951   7.516  0.5612 -0.3363  1.5573
  140OSM   H10T15303   0.317   6.128   7.493 -1.0542 -0.8101 -0.8968
  140OSM   C11S15304   0.481   6.029   7.582  0.5209 -0.0501 -0.5228
  140OSM   H11S15305   0.547   5.943   7.559  1.0924  0.3119 -0.2311
  140OSM   H11T15306   0.439   6.016   7.684  0.6427  0.7383 -0.3709
  140OSM   C12S15307   0.567   6.155   7.592 -0.7558 -0.5818  0.9293
  140OSM   H12S15308   0.494   6.236   7.612 -0.9240 -0.3860 -0.4727
  140OSM   H12T15309   0.596   6.177   7.488 -1.1784 -0.4804  0.8313
  140OSM   C13S15310   0.682   6.155   7.692  0.1059  0.0590  0.2064
  140OSM   H13S15311   0.742   6.065   7.666 -0.8631 -0.1886 -1.2519
  140OSM   H13T15312   0.668   6.149   7.802 -0.3109 -1.4230  0.0837
  140OSM   C14S15313   0.774   6.284   7.671  0.2178 -0.7640  0.2976
  140OSM   H14S15314   0.732   6.373   7.724  1.7533 -0.4830  1.0570
  140OSM   H14T15315   0.780   6.311   7.564 -2.7018 -2.8954 -0.4546
  140OSM   C15S15316   0.925   6.268   7.722 -0.3856 -0.5996 -0.1148
  140OSM   H15S15317   0.982   6.361   7.701  0.2353 -0.1985  3.0223
  140OSM   H15T15318   0.971   6.182   7.670  0.7958 -2.1063  3.2772
  140OSM   C16S15319   0.939   6.245   7.878 -0.2949 -0.0075 -0.3130
  140OSM   H16S15320   1.048   6.229   7.888 -0.0658  2.4878  1.3648
  140OSM   H16T15321   0.886   6.149   7.895  2.9008 -2.0391 -1.3566
  140OSM   C17S15322   0.895   6.368   7.956  0.4544 -0.2525 -0.6469
  140OSM   H17S15323   0.787   6.391   7.945  0.4720 -0.1123 -0.5431
  140OSM   H17T15324   0.955   6.456   7.922 -0.4632  0.0854 -1.4151
  140OSM   C18S15325   0.918   6.337   8.109 -0.0117 -0.1091 -0.4748
  140OSM   H18S15326   0.853   6.248   8.121 -1.4740  1.0454  0.2603
  140OSM   H18T15327   0.899   6.425   8.175  2.4622  0.1287 -0.0180
  140OSM   H18U15328   1.025   6.308   8.116 -0.4908 -2.3554 -2.0159
  140OSM    C1F15329   0.840   6.047   6.609 -0.3120 -0.2513 -0.0069
  140OSM     OF15330   0.792   6.150   6.560  0.1577 -0.5210 -0.5718
  140OSM    C2F15331   0.985   6.018   6.638 -0.3713 -0.5349 -0.3798
  140OSM    H2F15332   1.049   6.063   6.560  2.2886 -0.7335  1.6312
  140OSM    H2G15333   0.995   5.908   6.648  0.5389 -0.5594 -1.5322
  140OSM    C3F15334   1.023   6.084   6.773 -0.0769  0.1409 -0.3454
  140OSM    H3F15335   1.012   6.194   6.781  2.2249  0.3305  0.7604
  140OSM    H3G15336   1.127   6.050   6.792 -0.5331 -1.3283 -0.4299
  140OSM    C4F15337   0.954   6.012   6.893 -0.0909 -0.0609 -0.2233
  140OSM    H4F15338   0.961   5.902   6.889 -2.1512 -0.2724  1.0157
  140OSM    H4G15339   0.845   6.033   6.887  0.0906  1.1190  0.3798
  140OSM    C5F15340   1.015   6.060   7.023 -0.8687  0.2649 -0.0031
  140OSM    H5F15341   1.009   6.171   7.029  1.3633  0.3494  1.1629
  140OSM    H5G15342   1.120   6.026   7.038 -0.9718 -0.7043 -1.4296
  140OSM    C6F15343   0.935   6.000   7.144  0.3208  0.0434  0.3594
  140OSM    H6F15344   0.950   5.890   7.146  0.3183  0.0540  1.4078
  140OSM    H6G15345   0.826   6.020   7.137  0.2733 -0.8165 -1.6493
  140OSM    C7F15346   0.995   6.045   7.275 -0.7808  0.4065 -0.1582
  140OSM    H7F15347   0.968   6.153   7.278  0.9142  0.8077  1.1228
  140OSM    H7G15348   1.105   6.040   7.269 -0.4965  3.8563  0.8884
  140OSM    C8F15349   0.944   5.975   7.404 -0.6270  0.5899 -0.1490
  140OSM    H8F15350   0.834   5.988   7.404 -0.4050  2.6026 -0.1363
  140OSM    H8G15351   0.993   6.039   7.480 -1.1225 -0.8515  1.4000
  140OSM    C9F15352   0.997   5.836   7.413  0.2939  0.4936  0.3065
  140OSM    H9F15353   0.970   5.764   7.334  1.2035  0.7007 -0.2025
  140OSM   C10F15354   1.086   5.793   7.510  0.6652  0.0547  0.2970
  140OSM   H10F15355   1.111   5.686   7.520  1.1570  0.1359 -0.0467
  140OSM   C11F15356   1.156   5.854   7.626  0.7404 -0.3813  0.6391
  140OSM   H11F15357   1.154   5.965   7.616  2.7348 -0.4225 -0.4004
  140OSM   H11G15358   1.265   5.829   7.626  0.9163  0.3910 -0.3633
  140OSM   C12F15359   1.114   5.816   7.779  0.7979  0.2719  0.2395
  140OSM   H12F15360   1.157   5.716   7.805 -0.7273 -0.9596 -1.8920
  140OSM   H12G15361   1.005   5.833   7.771  0.8413  0.3056 -0.2797
  140OSM   C13F15362   1.147   5.931   7.885  0.8719  0.9259  0.3095
  140OSM   H13F15363   1.097   6.020   7.842 -0.8660  0.7229  1.8122
  140OSM   H13G15364   1.257   5.942   7.876  1.1305 -2.0266 -0.8575
  140OSM   C14F15365   1.109   5.894   8.030  0.2862  1.0502 -0.4847
  140OSM   H14F15366   1.150   5.792   8.043  0.6888  1.3338  0.4993
  140OSM   H14G15367   0.998   5.901   8.038  0.4256  1.7620  1.0889
  140OSM   C15F15368   1.181   5.992   8.123 -0.7098  1.1760 -0.0755
  140OSM   H15F15369   1.128   6.090   8.123 -1.2176  0.9200  1.2067
  140OSM   H15G15370   1.288   6.011   8.100 -0.1293  0.4799  1.8770
  140OSM   C16F15371   1.200   5.936   8.272 -0.0914  0.5162  0.3054
  140OSM   H16F15372   1.269   5.849   8.264 -1.2951 -0.4905  0.8186
  140OSM   H16G15373   1.097   5.912   8.306 -0.7544 -1.3799 -2.8372
  140OSM   C17F15374   1.265   6.044   8.355  0.5340  0.0944 -0.4216
  140OSM   H17F15375   1.335   6.102   8.291  0.0135  0.6928 -0.4519
  140OSM   H17G15376   1.328   5.992   8.431  0.5453 -0.8200 -1.0489
  140OSM   C18F15377   1.160   6.139   8.411  0.1863  0.0321 -0.1477
  140OSM   H18F15378   1.107   6.083   8.491  1.2147  1.2693  1.4310
  140OSM   H18G15379   1.081   6.176   8.343  0.5493 -1.9422 -1.7072
  140OSM   H18H15380   1.197   6.231   8.461 -0.3904 -0.3608  1.0346
  141OSM      N15381   6.283   0.803   6.094 -0.2879 -0.0543  0.2018
  141OSM    C1515382   6.276   0.946   6.050  0.4899  0.1471 -0.5289
  141OSM   H15A15383   6.205   0.992   6.117 -0.7268 -0.9841 -0.9934
  141OSM   H15B15384   6.231   0.951   5.952  1.5054 -3.1238 -1.2202
  141OSM   H15C15385   6.367   1.004   6.052  0.2584  0.4786  0.2950
  141OSM    C1415386   6.158   0.729   6.059  0.2885 -0.0268  0.1570
  141OSM   H14A15387   6.136   0.742   5.954 -0.8482 -2.8936  0.0143
  141OSM   H14B15388   6.075   0.770   6.116  1.2766 -0.3695  1.8691
  141OSM   H14C15389   6.171   0.626   6.086 -0.0736  0.0094  0.4751
  141OSM    C1315390   6.406   0.749   6.020  0.0499  0.6790 -0.2003
  141OSM   H13A15391   6.496   0.809   6.022  1.5884 -1.5620 -0.6798
  141OSM   H13B15392   6.376   0.730   5.919 -1.2533 -1.3291  0.5425
  141OSM   H13C15393   6.436   0.655   6.063 -1.0684 -0.6648 -2.2840
  141OSM    C1215394   6.308   0.790   6.240  0.3146  0.5072  0.2694
  141OSM   H12A15395   6.319   0.685   6.260  0.3556  0.5609  0.5394
  141OSM   H12B15396   6.219   0.821   6.292 -0.3701  0.2846 -0.7567
  141OSM    C1115397   6.436   0.856   6.304  0.0212  0.9842  0.3230
  141OSM   H11A15398   6.522   0.806   6.255  0.3460  0.4275  1.4365
  141OSM   H11B15399   6.434   0.825   6.411 -0.3520  1.5492  0.4839
  141OSM      P15400   6.339   1.096   6.370 -0.0139 -0.1260 -0.0765
  141OSM    O1315401   6.338   1.220   6.290 -0.0979 -0.2102  0.4937
  141OSM    O1415402   6.204   1.035   6.383  0.4205 -0.3658 -0.2674
  141OSM    O1115403   6.408   1.123   6.516  0.0599 -0.2487 -0.2793
  141OSM    O1215404   6.436   0.996   6.291 -0.0032 -0.6027  0.0468
  141OSM    C1S15405   6.550   1.108   6.521  0.2691  0.1536  0.3768
  141OSM    H1S15406   6.598   1.193   6.469  0.9688 -0.1075  0.5912
  141OSM    H1T15407   6.594   1.020   6.470 -1.7724 -0.8090  0.2080
  141OSM     NF15408   6.754   1.118   6.657 -0.5051  0.0905  0.1285
  141OSM    HNF15409   6.803   1.033   6.674  2.6203  2.2440  2.4940
  141OSM    C2S15410   6.610   1.117   6.663 -0.0190  0.8926  0.0485
  141OSM    H2S15411   6.580   1.209   6.718  1.4793  1.3453  0.1238
  141OSM    C3S15412   6.563   0.988   6.747  0.4951 -1.0871 -0.4387
  141OSM    H3S15413   6.608   0.904   6.690  0.1990 -1.1396 -0.5971
  141OSM     O315414   6.417   0.970   6.752 -0.9918  0.4531 -0.6979
  141OSM    HO315415   6.388   1.019   6.674 -1.1453  1.6431  0.0897
  141OSM    C4S15416   6.618   0.994   6.892  0.1282  0.4938  0.3204
  141OSM    H4S15417   6.726   0.977   6.889  0.4926  2.8697 -0.7130
  141OSM    C5S15418   6.546   0.996   7.006 -0.9287  0.0243 -0.3346
  141OSM    H5S15419   6.438   0.981   7.000 -0.9106  0.2500 -1.3272
  141OSM    C6S15420   6.594   1.005   7.148  0.5797 -0.3039  0.7287
  141OSM    H6S15421   6.581   0.911   7.205  2.0060 -1.2064 -0.3856
  141OSM    H6T15422   6.529   1.083   7.191  2.1456  0.8816  1.0075
  141OSM    C7S15423   6.729   1.055   7.181  0.5920 -0.3644 -0.3499
  141OSM    H7S15424   6.727   1.158   7.138 -0.8141  0.3216  1.3135
  141OSM    H7T15425   6.811   0.996   7.135 -0.6761 -2.6842  0.2894
  141OSM    C8S15426   6.752   1.068   7.334  0.4783  0.1508  0.2421
  141OSM    H8S15427   6.847   1.125   7.344  0.9093 -0.3149 -1.1810
  141OSM    H8T15428   6.775   0.962   7.357  1.5015  0.4989  0.8539
  141OSM    C9S15429   6.649   1.127   7.427  0.1759  0.3820 -0.2243
  141OSM    H9S15430   6.550   1.085   7.401 -0.1320  0.9293  0.0631
  141OSM    H9T15431   6.646   1.238   7.427  0.1578  0.3922 -1.4169
  141OSM   C10S15432   6.680   1.096   7.577  0.6602  0.0008  0.1348
  141OSM   H10S15433   6.772   1.147   7.613  1.8436 -0.8279 -1.6058
  141OSM   H10T15434   6.692   0.986   7.588 -0.9795 -0.4156 -1.8646
  141OSM   C11S15435   6.560   1.128   7.669  0.6887 -0.4434  0.5278
  141OSM   H11S15436   6.477   1.059   7.642 -0.2632  1.1180 -0.6479
  141OSM   H11T15437   6.534   1.236   7.664  0.7320 -0.4595 -0.0718
  141OSM   C12S15438   6.594   1.099   7.814 -0.1375  0.1313 -0.3956
  141OSM   H12S15439   6.688   1.154   7.836  0.3571 -0.2238 -1.6232
  141OSM   H12T15440   6.615   0.992   7.835 -0.0517  0.4126  1.0452
  141OSM   C13S15441   6.492   1.152   7.921 -0.8671 -0.0302  0.2892
  141OSM   H13S15442   6.394   1.099   7.917 -0.6720 -0.3065 -1.1995
  141OSM   H13T15443   6.483   1.263   7.918 -1.8630 -0.0056  2.9149
  141OSM   C14S15444   6.544   1.110   8.059 -0.1599 -0.1921 -0.3946
  141OSM   H14S15445   6.645   1.158   8.064 -1.1692  1.8157  1.3542
  141OSM   H14T15446   6.559   1.000   8.070  1.3113 -0.1180 -1.4823
  141OSM   C15S15447   6.472   1.177   8.175  0.2920 -0.0005  0.0441
  141OSM   H15S15448   6.369   1.135   8.172 -0.1936  1.2134 -0.8365
  141OSM   H15T15449   6.481   1.287   8.161  0.4271 -0.4012 -3.3584
  141OSM   C16S15450   6.519   1.137   8.318 -0.2598 -0.1178 -0.5433
  141OSM   H16S15451   6.556   1.033   8.301  0.7651  0.4315 -1.7528
  141OSM   H16T15452   6.437   1.143   8.393 -0.1838  1.9715 -0.6018
  141OSM   C17S15453   6.631   1.235   8.354 -0.1249  0.0009  0.2946
  141OSM   H17S15454   6.585   1.335   8.365 -0.7828 -0.2937  0.2358
  141OSM   H17T15455   6.695   1.246   8.264 -0.4650 -0.7115 -0.0416
  141OSM   C18S15456   6.716   1.187   8.470  0.4826  0.1177 -0.2785
  141OSM   H18S15457   6.758   1.092   8.432 -0.3151 -0.4231  0.1850
  141OSM   H18T15458   6.656   1.163   8.560 -1.5033  1.2304 -1.2836
  141OSM   H18U15459   6.792   1.265   8.493  0.6162  0.2825 -1.2439
  141OSM    C1F15460   6.822   1.229   6.616 -0.0608 -0.2505 -0.1015
  141OSM     OF15461   6.763   1.329   6.586 -0.0289  0.2347 -0.2518
  141OSM    C2F15462   6.972   1.211   6.618 -0.1046  0.2745 -0.1680
  141OSM    H2F15463   7.008   1.241   6.517 -1.0154 -1.0143 -0.8924
  141OSM    H2G15464   6.997   1.104   6.633  0.8461  0.5358  0.1453
  141OSM    C3F15465   7.053   1.292   6.728  0.1487  0.4038  0.0665
  141OSM    H3F15466   7.030   1.400   6.717  0.7074  0.3957 -1.2098
  141OSM    H3G15467   7.162   1.280   6.710  0.6202  1.9416  1.7379
  141OSM    C4F15468   7.018   1.248   6.874 -0.5734  0.1151 -1.1250
  141OSM    H4F15469   7.020   1.137   6.880  3.1095  0.2011 -0.1645
  141OSM    H4G15470   6.921   1.295   6.901  0.3519  1.9196 -0.9322
  141OSM    C5F15471   7.110   1.292   6.982 -0.2914 -0.0144  0.5283
  141OSM    H5F15472   7.123   1.403   6.986 -1.2291  0.1849 -1.4809
  141OSM    H5G15473   7.205   1.238   6.962  0.3433  0.7518  1.4078
  141OSM    C6F15474   7.072   1.254   7.128 -0.0978 -0.2307 -0.3044
  141OSM    H6F15475   7.008   1.163   7.130 -2.8018  1.5639 -0.8110
  141OSM    H6G15476   7.015   1.338   7.175  1.1789  0.9236 -0.8126
  141OSM    C7F15477   7.194   1.237   7.220  0.2033 -0.2869 -0.0656
  141OSM    H7F15478   7.252   1.331   7.235 -1.6786  0.8568  0.1218
  141OSM    H7G15479   7.268   1.173   7.167  0.5413 -0.5486  0.7157
  141OSM    C8F15480   7.168   1.170   7.359 -0.1173  0.5650  0.4801
  141OSM    H8F15481   7.267   1.140   7.399 -1.0098 -1.3104  1.3217
  141OSM    H8G15482   7.111   1.076   7.346  0.8397 -0.0705  0.8528
  141OSM    C9F15483   7.079   1.257   7.446  0.5625  0.1242 -0.2765
  141OSM    H9F15484   6.989   1.293   7.394 -0.4532 -0.7650  0.8388
  141OSM   C10F15485   7.095   1.282   7.576 -0.1611 -0.0377  0.2803
  141OSM   H10F15486   7.029   1.354   7.628  0.4414 -0.2900  1.4129
  141OSM   C11F15487   7.208   1.247   7.670  0.3755  0.2943 -0.1313
  141OSM   H11F15488   7.300   1.300   7.635 -0.7667  2.2457 -0.2542
  141OSM   H11G15489   7.225   1.139   7.685  1.5600  0.2347 -1.7391
  141OSM   C12F15490   7.197   1.307   7.817 -0.2402  0.6785  0.0460
  141OSM   H12F15491   7.170   1.412   7.795 -1.7902 -0.3025 -3.0655
  141OSM   H12G15492   7.292   1.303   7.875 -2.2080 -0.6994  3.2796
  141OSM   C13F15493   7.097   1.249   7.908 -0.3275  0.5998 -0.2467
  141OSM   H13F15494   7.094   1.138   7.907 -0.4583  0.6024 -0.1796
  141OSM   H13G15495   6.994   1.286   7.884 -0.4325  1.5308  1.5507
  141OSM   C14F15496   7.128   1.280   8.058  0.1025 -0.0484 -0.8619
  141OSM   H14F15497   7.122   1.390   8.065  1.9716 -0.0559  1.8739
  141OSM   H14G15498   7.223   1.245   8.105  0.1116  1.2790  0.1433
  141OSM   C15F15499   7.027   1.216   8.163 -1.4121  0.2614  0.1780
  141OSM   H15F15500   7.048   1.107   8.162 -1.1699  0.3032  1.1298
  141OSM   H15G15501   6.925   1.236   8.123 -1.7704 -2.3432 -0.3098
  141OSM   C16F15502   7.044   1.280   8.304  1.3924 -0.2225  0.5273
  141OSM   H16F15503   6.976   1.214   8.362 -2.6208  0.5914 -2.9885
  141OSM   H16G15504   7.014   1.387   8.306 -1.0614 -0.8986  3.4994
  141OSM   C17F15505   7.192   1.262   8.351  0.9124  1.0537  0.2089
  141OSM   H17F15506   7.255   1.339   8.300  1.0602  0.9127  0.1815
  141OSM   H17G15507   7.216   1.162   8.311  1.2128  1.2114 -0.0118
  141OSM   C18F15508   7.206   1.262   8.504  0.4196 -0.2129 -0.2948
  141OSM   H18F15509   7.166   1.355   8.550  1.7431 -0.0921  0.6464
  141OSM   H18G15510   7.310   1.247   8.538  0.0479 -3.0713 -0.3517
  141OSM   H18H15511   7.155   1.171   8.542 -0.4486  0.6547  0.6814
  142OSM      N15512   1.065   2.573   6.262  0.5656 -0.4787  0.1525
  142OSM    C1515513   1.034   2.562   6.407 -0.1578 -0.6087 -0.4742
  142OSM   H15A15514   0.997   2.659   6.439  0.6409 -1.2536  2.6332
  142OSM   H15B15515   1.117   2.548   6.475  0.0404 -0.9051 -0.7764
  142OSM   H15C15516   0.951   2.497   6.432 -1.4507  1.2495  0.1515
  142OSM    C1415517   1.186   2.662   6.242  0.5761  0.2909 -0.4233
  142OSM   H14A15518   1.211   2.671   6.137  0.7919  0.5039 -0.3512
  142OSM   H14B15519   1.268   2.609   6.288 -0.0866 -0.6794 -0.3374
  142OSM   H14C15520   1.152   2.755   6.283 -1.7592 -0.1284 -1.3396
  142OSM    C1315521   1.100   2.439   6.208  0.3609  0.1893  0.3140
  142OSM   H13A15522   1.144   2.455   6.111 -3.0771  0.2674 -1.2967
  142OSM   H13B15523   1.016   2.372   6.207 -0.1862  0.8534  1.0332
  142OSM   H13C15524   1.182   2.400   6.267  0.8942 -0.2989 -0.7343
  142OSM    C1215525   0.942   2.625   6.187 -0.9620 -0.5129  0.3490
  142OSM   H12A15526   0.859   2.558   6.205 -1.2132 -0.8531 -1.9533
  142OSM   H12B15527   0.956   2.623   6.080  2.3276  2.7698  0.6264
  142OSM    C1115528   0.892   2.768   6.207 -0.1148 -0.1604  0.2301
  142OSM   H11A15529   0.829   2.802   6.121 -0.6739  1.5027  1.2790
  142OSM   H11B15530   0.979   2.837   6.207 -0.5698  0.4477 -1.2378
  142OSM      P15531   0.692   2.722   6.365  0.1773  0.2561 -0.5912
  142OSM    O1315532   0.575   2.780   6.301 -0.9064 -0.3144 -0.1825
  142OSM    O1415533   0.703   2.576   6.348 -0.6817  0.5146 -0.5126
  142OSM    O1115534   0.683   2.750   6.520  0.1232  0.7308  0.0243
  142OSM    O1215535   0.820   2.785   6.330 -0.1678  0.2080  0.2461
  142OSM    C1S15536   0.725   2.861   6.592 -0.0653 -0.5844 -0.2521
  142OSM    H1S15537   0.659   2.947   6.567 -0.2553 -1.0730 -1.4207
  142OSM    H1T15538   0.830   2.892   6.574  0.4599 -2.0255  0.2063
  142OSM     NF15539   0.754   2.965   6.808  0.1257 -0.2020 -0.5811
  142OSM    HNF15540   0.847   2.983   6.839 -0.0950 -1.7618  1.0602
  142OSM    C2S15541   0.714   2.844   6.744  0.7628 -0.3883 -0.0175
  142OSM    H2S15542   0.607   2.829   6.768  0.4887  0.2171 -0.8564
  142OSM    C3S15543   0.792   2.720   6.796 -0.1715 -0.7435  0.1845
  142OSM    H3S15544   0.900   2.735   6.773 -0.3971 -0.7920 -0.9283
  142OSM     O315545   0.768   2.593   6.731  0.3186 -0.2272 -0.8824
  142OSM    HO315546   0.703   2.613   6.663  0.0128 -1.3651 -0.9248
  142OSM    C4S15547   0.784   2.702   6.949 -0.0969 -0.5090  0.4169
  142OSM    H4S15548   0.879   2.731   6.995  0.4132  0.8830 -1.4539
  142OSM    C5S15549   0.687   2.646   7.022 -0.4520  0.2054 -0.0848
  142OSM    H5S15550   0.595   2.610   6.974  0.6330 -0.8474 -1.4179
  142OSM    C6S15551   0.704   2.635   7.175  0.5719  0.4520  0.0560
  142OSM    H6S15552   0.777   2.554   7.198  0.7111  0.4760 -0.2981
  142OSM    H6T15553   0.601   2.617   7.213 -0.4255  2.4344 -1.6003
  142OSM    C7S15554   0.771   2.752   7.254 -1.1530 -0.0396 -0.4354
  142OSM    H7S15555   0.706   2.842   7.253 -0.0963  0.7651  0.8664
  142OSM    H7T15556   0.873   2.778   7.220 -0.8920  2.0769  1.8096
  142OSM    C8S15557   0.804   2.726   7.398  0.2266 -0.4890  0.6592
  142OSM    H8S15558   0.875   2.802   7.438  0.0964  0.0287 -0.0670
  142OSM    H8T15559   0.853   2.628   7.414 -0.3946 -0.6284  1.7813
  142OSM    C9S15560   0.684   2.740   7.498  0.4049  0.0105  0.1258
  142OSM    H9S15561   0.616   2.658   7.466 -0.8258  1.3980 -0.8593
  142OSM    H9T15562   0.627   2.835   7.492  0.7582  0.2335  0.2684
  142OSM   C10S15563   0.729   2.735   7.648 -0.4762  0.7044  0.2152
  142OSM   H10S15564   0.787   2.819   7.691  2.4457 -1.4120  0.5173
  142OSM   H10T15565   0.801   2.653   7.668  0.5828  1.4682 -0.4732
  142OSM   C11S15566   0.600   2.721   7.739  0.4353  0.4658 -0.0542
  142OSM   H11S15567   0.546   2.625   7.721 -0.0050  0.9010 -1.1030
  142OSM   H11T15568   0.525   2.797   7.708 -0.2346 -0.4843 -0.7919
  142OSM   C12S15569   0.627   2.712   7.889 -0.7158  0.1679  0.9748
  142OSM   H12S15570   0.687   2.802   7.915 -0.1691  0.3550 -0.8693
  142OSM   H12T15571   0.692   2.626   7.914  1.5558  0.7536 -2.4928
  142OSM   C13S15572   0.500   2.692   7.980  0.1121 -0.1977 -0.2164
  142OSM   H13S15573   0.457   2.592   7.964 -1.1735 -0.1885  2.7301
  142OSM   H13T15574   0.417   2.760   7.950 -0.8076 -0.8908  0.7351
  142OSM   C14S15575   0.521   2.691   8.133 -1.2738  0.1342 -0.3094
  142OSM   H14S15576   0.554   2.795   8.154 -3.0440  0.3171  1.8132
  142OSM   H14T15577   0.601   2.620   8.162  0.9447  2.4947 -0.4791
  142OSM   C15S15578   0.399   2.662   8.221 -0.3133 -0.1523  0.2004
  142OSM   H15S15579   0.360   2.561   8.196 -0.0024 -0.1979 -0.1107
  142OSM   H15T15580   0.315   2.727   8.188 -1.3320 -0.3348  2.3584
  142OSM   C16S15581   0.433   2.686   8.374  0.1201 -0.7295  0.0903
  142OSM   H16S15582   0.524   2.634   8.412 -0.1438 -0.6880  0.7738
  142OSM   H16T15583   0.353   2.641   8.436 -0.3814  1.7660  1.3099
  142OSM   C17S15584   0.451   2.837   8.409 -0.3446 -0.5396 -0.2676
  142OSM   H17S15585   0.382   2.890   8.341  0.9177  0.8485 -0.4992
  142OSM   H17T15586   0.559   2.855   8.388 -0.0833 -2.4009 -0.6520
  142OSM   C18S15587   0.416   2.868   8.549 -0.0006  0.4924  0.1906
  142OSM   H18S15588   0.477   2.807   8.619 -0.5920 -0.8980 -0.4771
  142OSM   H18T15589   0.306   2.871   8.562 -0.0699  0.1349 -0.2878
  142OSM   H18U15590   0.455   2.968   8.576 -0.0016 -0.8213  5.7393
  142OSM    C1F15591   0.683   3.075   6.805  0.2914 -0.4551 -0.0373
  142OSM     OF15592   0.571   3.066   6.749 -0.0961  0.2737 -0.5708
  142OSM    C2F15593   0.756   3.209   6.850  0.1775  0.7683  0.6418
  142OSM    H2F15594   0.691   3.289   6.808  0.6338  1.0213  0.4083
  142OSM    H2G15595   0.862   3.217   6.817 -0.5643  0.1707 -2.0350
  142OSM    C3F15596   0.731   3.245   7.002 -0.5838  0.3515 -0.6055
  142OSM    H3F15597   0.622   3.248   7.022 -0.5560  0.7559 -0.5039
  142OSM    H3G15598   0.771   3.348   7.011  0.4328 -0.2738  2.6094
  142OSM    C4F15599   0.799   3.170   7.112 -0.4915  0.3159  0.2122
  142OSM    H4F15600   0.909   3.168   7.095 -1.0109 -1.2387 -3.3199
  142OSM    H4G15601   0.754   3.069   7.120  1.2778 -0.7255 -2.3061
  142OSM    C5F15602   0.774   3.217   7.256 -0.2621  0.7171 -0.8983
  142OSM    H5F15603   0.670   3.205   7.295 -0.2504 -0.2664 -1.1557
  142OSM    H5G15604   0.792   3.326   7.267 -1.0938  0.7638  0.0707
  142OSM    C6F15605   0.854   3.132   7.360  0.8515 -0.0231  0.1797
  142OSM    H6F15606   0.964   3.128   7.345  0.6012 -3.0257 -1.2909
  142OSM    H6G15607   0.808   3.031   7.363 -0.6007  0.6524  1.0559
  142OSM    C7F15608   0.826   3.172   7.509 -0.5497 -0.1798  0.0361
  142OSM    H7F15609   0.718   3.160   7.532 -1.0258  0.6923 -1.6151
  142OSM    H7G15610   0.851   3.279   7.524  1.3579 -0.4159 -1.2401
  142OSM    C8F15611   0.916   3.087   7.604 -0.0048 -0.4216  0.3139
  142OSM    H8F15612   1.023   3.104   7.580  0.0161 -0.0824  0.6388
  142OSM    H8G15613   0.893   2.979   7.591 -0.1756 -0.2216 -1.0953
  142OSM    C9F15614   0.908   3.123   7.751 -0.3036  0.1352 -0.5039
  142OSM    H9F15615   0.887   3.229   7.773  1.3294  0.2205  0.7365
  142OSM   C10F15616   0.954   3.044   7.854  0.2960  0.2264  0.0761
  142OSM   H10F15617   0.965   3.092   7.953 -0.1297 -1.9197  1.2022
  142OSM   C11F15618   1.020   2.910   7.846 -0.5548 -0.0930  0.0233
  142OSM   H11F15619   1.129   2.926   7.854 -0.0280 -2.2493 -2.0845
  142OSM   H11G15620   1.016   2.861   7.746 -2.8191  0.7988 -0.3513
  142OSM   C12F15621   0.987   2.789   7.937  0.1666 -0.2464 -0.0702
  142OSM   H12F15622   1.070   2.716   7.922  1.1108  1.0066 -1.0454
  142OSM   H12G15623   0.887   2.749   7.910  0.6270 -1.6844  0.2539
  142OSM   C13F15624   0.978   2.833   8.088  0.4597  0.0010  0.4635
  142OSM   H13F15625   0.896   2.908   8.090 -0.9100 -1.4087 -1.0329
  142OSM   H13G15626   1.072   2.881   8.124  0.9207 -1.6799  1.5722
  142OSM   C14F15627   0.944   2.721   8.190  0.1885 -0.0288 -0.0296
  142OSM   H14F15628   1.009   2.634   8.167  0.5502  0.6709 -1.7207
  142OSM   H14G15629   0.837   2.694   8.175  0.0930 -0.5738  1.5338
  142OSM   C15F15630   0.954   2.767   8.333  0.2119  0.3495 -0.3478
  142OSM   H15F15631   0.871   2.840   8.344 -0.1836  0.0959 -1.5820
  142OSM   H15G15632   1.044   2.830   8.348  0.4740 -0.2073  0.4913
  142OSM   C16F15633   0.955   2.646   8.433 -0.8837  0.0785 -0.7533
  142OSM   H16F15634   1.025   2.680   8.512 -2.7213 -0.0693  1.0027
  142OSM   H16G15635   1.000   2.566   8.370 -0.2909  0.2637 -0.5626
  142OSM   C17F15636   0.821   2.587   8.488 -0.3444  0.8941  0.2041
  142OSM   H17F15637   0.836   2.486   8.531  0.0715  1.2295  0.8636
  142OSM   H17G15638   0.761   2.553   8.401  0.5847  0.2881 -0.1942
  142OSM   C18F15639   0.735   2.673   8.580 -0.1616 -0.1075  0.7089
  142OSM   H18F15640   0.785   2.701   8.675 -0.4052  3.3568 -0.1168
  142OSM   H18G15641   0.647   2.608   8.601  2.0435 -3.5425 -0.1106
  142OSM   H18H15642   0.700   2.762   8.524 -0.9211 -2.0849 -2.0961
  143OSM      N15643   2.124   5.562   5.886 -0.4026 -0.2507  0.2019
  143OSM    C1515644   2.120   5.589   5.740  0.3358  0.4654  0.2481
  143OSM   H15A15645   2.208   5.544   5.696 -0.7436  0.8038 -2.3447
  143OSM   H15B15646   2.120   5.695   5.719 -2.5241  0.3679 -0.4301
  143OSM   H15C15647   2.039   5.539   5.690  1.6902 -0.6263 -0.9271
  143OSM    C1415648   2.252   5.615   5.944 -0.5668  0.8843  0.2929
  143OSM   H14A15649   2.261   5.578   6.045 -1.9772 -0.0438  0.0870
  143OSM   H14B15650   2.260   5.723   5.938 -0.3667  0.8286 -0.4558
  143OSM   H14C15651   2.332   5.565   5.891 -0.2867  2.6117 -0.9661
  143OSM    C1315652   2.006   5.638   5.946  0.3656 -0.1110 -0.3543
  143OSM   H13A15653   1.919   5.636   5.882 -0.0355  1.4061  0.1370
  143OSM   H13B15654   2.045   5.736   5.968  0.9797 -0.3714 -0.2513
  143OSM   H13C15655   1.988   5.592   6.042 -0.8928 -1.3810 -1.1713
  143OSM    C1215656   2.113   5.415   5.920  0.6222  0.0047 -0.2459
  143OSM   H12A15657   2.193   5.363   5.868  0.0189 -1.2082  0.0095
  143OSM   H12B15658   2.017   5.374   5.893  2.5337 -2.2124 -4.2565
  143OSM    C1115659   2.133   5.364   6.065  0.0699 -0.4587 -0.0477
  143OSM   H11A15660   2.238   5.391   6.090 -0.4333  0.6255  0.9347
  143OSM   H11B15661   2.128   5.253   6.058  1.9173 -0.4226 -2.8340
  143OSM      P15662   1.906   5.385   6.194  0.0612 -0.2257 -0.4078
  143OSM    O1315663   1.828   5.504   6.237  0.0987  0.0504 -0.0926
  143OSM    O1415664   1.857   5.308   6.080  0.5171  0.4540  0.1011
  143OSM    O1115665   1.931   5.292   6.321 -0.0949  0.8699 -0.4921
  143OSM    O1215666   2.054   5.435   6.164  0.1722  0.3758  0.0693
  143OSM    C1S15667   1.998   5.349   6.436  0.5624  0.3527  0.0620
  143OSM    H1S15668   1.980   5.454   6.465  1.1761 -0.6378  4.4296
  143OSM    H1T15669   2.107   5.335   6.416  0.7623 -0.4370  1.6060
  143OSM     NF15670   2.026   5.322   6.680  0.1822 -1.2552  0.1194
  143OSM    HNF15671   2.107   5.278   6.719  1.4589  0.5953 -0.3816
  143OSM    C2S15672   1.970   5.260   6.560  0.3273  0.3351  0.5530
  143OSM    H2S15673   1.860   5.248   6.565  0.4326 -0.6348  0.7718
  143OSM    C3S15674   2.028   5.113   6.534  0.2105 -0.2534  0.5071
  143OSM    H3S15675   2.134   5.131   6.505  0.2977 -0.6960  0.5467
  143OSM     O315676   1.968   5.045   6.424  0.2295 -0.3597  0.1750
  143OSM    HO315677   1.912   5.114   6.388 -0.3750 -0.9377 -0.0038
  143OSM    C4S15678   2.011   5.022   6.655  0.1240 -1.4468  0.0070
  143OSM    H4S15679   1.908   5.005   6.691 -0.1765 -0.5481 -0.3976
  143OSM    C5S15680   2.103   4.970   6.734 -0.0844 -0.5231  0.5031
  143OSM    H5S15681   2.212   4.976   6.722  0.1815  0.0907  2.9644
  143OSM    C6S15682   2.064   4.887   6.851  0.4533  0.2662  0.5929
  143OSM    H6S15683   2.143   4.812   6.875  0.2688 -0.8558 -2.1185
  143OSM    H6T15684   1.970   4.833   6.827 -1.0507  3.4375 -1.0402
  143OSM    C7S15685   2.029   4.969   6.982  0.2623 -0.6861 -0.6076
  143OSM    H7S15686   1.936   5.024   6.957 -0.0282 -0.9142 -0.0358
  143OSM    H7T15687   2.105   5.046   7.007 -1.1913  0.2613  0.9275
  143OSM    C8S15688   2.021   4.875   7.112  0.1924  0.1755  0.1930
  143OSM    H8S15689   2.093   4.791   7.103 -1.1315 -0.7820 -1.9313
  143OSM    H8T15690   1.924   4.822   7.116 -0.6336  1.6511  0.1464
  143OSM    C9S15691   2.057   4.944   7.243 -0.1958 -0.5290 -0.3023
  143OSM    H9S15692   1.979   5.021   7.259  0.3773  0.3980 -1.8247
  143OSM    H9T15693   2.157   4.993   7.242 -0.1942 -0.5332 -0.4832
  143OSM   C10S15694   2.066   4.845   7.362 -0.1089 -0.0829  0.9649
  143OSM   H10S15695   2.167   4.802   7.343 -1.0430 -0.9986 -2.1585
  143OSM   H10T15696   1.980   4.776   7.353  1.7170 -2.4199  0.9054
  143OSM   C11S15697   2.061   4.911   7.495 -0.4107 -0.3261  0.2815
  143OSM   H11S15698   1.958   4.952   7.499 -1.0761 -2.0806  2.4907
  143OSM   H11T15699   2.135   4.991   7.512  1.1247 -1.9612  1.4680
  143OSM   C12S15700   2.083   4.805   7.610 -0.4619  0.1879  0.0602
  143OSM   H12S15701   2.055   4.703   7.576  1.6593 -0.2264 -0.4906
  143OSM   H12T15702   2.017   4.836   7.694  0.2992 -0.1502  0.7820
  143OSM   C13S15703   2.225   4.809   7.661 -0.5776 -0.3254 -0.6166
  143OSM   H13S15704   2.253   4.915   7.679 -2.8710 -0.0770  1.7832
  143OSM   H13T15705   2.292   4.768   7.582 -0.1114  0.6198 -0.7198
  143OSM   C14S15706   2.227   4.732   7.798  0.5844  0.0087 -0.3181
  143OSM   H14S15707   2.157   4.645   7.790 -0.2435  0.5303  1.0837
  143OSM   H14T15708   2.182   4.796   7.876  1.5617  1.6287 -1.0651
  143OSM   C15S15709   2.377   4.700   7.844 -0.3239  0.9489  0.0008
  143OSM   H15S15710   2.423   4.634   7.767 -0.9880 -0.4081  0.7608
  143OSM   H15T15711   2.363   4.637   7.934  1.0292  1.9612  0.9222
  143OSM   C16S15712   2.469   4.817   7.868  0.5730 -0.3088 -0.2831
  143OSM   H16S15713   2.423   4.892   7.936  1.4641 -0.9980  1.0777
  143OSM   H16T15714   2.493   4.862   7.769 -0.0895 -1.6403 -1.0582
  143OSM   C17S15715   2.611   4.784   7.924  0.5598  0.5318  0.0361
  143OSM   H17S15716   2.681   4.869   7.910  0.8869  0.0969 -1.0311
  143OSM   H17T15717   2.653   4.700   7.866  2.3727  0.5872  1.2449
  143OSM   C18S15718   2.622   4.756   8.072  0.3921  0.5399  0.2479
  143OSM   H18S15719   2.557   4.828   8.126 -1.4423  0.4930 -1.8683
  143OSM   H18T15720   2.731   4.761   8.094  0.4449  1.8122 -0.2822
  143OSM   H18U15721   2.591   4.650   8.085 -1.1083  0.7621 -1.3841
  143OSM    C1F15722   1.975   5.434   6.734  0.3176 -0.3359  0.0409
  143OSM     OF15723   1.871   5.482   6.692 -0.3333  0.5083  0.5992
  143OSM    C2F15724   2.050   5.511   6.831 -0.3341 -0.3710  0.0921
  143OSM    H2F15725   2.048   5.619   6.802 -0.5665  0.1751  2.1109
  143OSM    H2G15726   2.155   5.478   6.842 -0.3992 -0.5959  0.0404
  143OSM    C3F15727   1.984   5.495   6.976  0.4890 -0.0374  1.2218
  143OSM    H3F15728   1.962   5.387   6.992  1.3944 -0.5905 -1.0696
  143OSM    H3G15729   1.888   5.551   6.981 -0.0758 -0.9367  0.6765
  143OSM    C4F15730   2.075   5.546   7.091 -0.1102  0.1928  0.9305
  143OSM    H4F15731   2.110   5.648   7.065  1.4551 -0.4317  0.5437
  143OSM    H4G15732   2.159   5.475   7.105 -0.3746 -0.4867 -0.7231
  143OSM    C5F15733   1.992   5.543   7.216 -0.4569  0.0792  0.2566
  143OSM    H5F15734   1.942   5.444   7.212 -2.8020  1.2050  1.1903
  143OSM    H5G15735   1.916   5.623   7.218  0.6334  1.1995 -1.7958
  143OSM    C6F15736   2.079   5.548   7.338 -0.0215 -0.0694  0.3573
  143OSM    H6F15737   2.155   5.629   7.333 -0.9919  0.7843 -0.8460
  143OSM    H6G15738   2.144   5.457   7.335  0.5116  0.3338 -0.4848
  143OSM    C7F15739   2.013   5.548   7.475 -0.0467 -0.3549 -0.1232
  143OSM    H7F15740   1.953   5.454   7.476 -1.7131  0.7010  1.5376
  143OSM    H7G15741   1.949   5.638   7.470 -0.1325 -0.3221  1.4615
  143OSM    C8F15742   2.114   5.534   7.585 -0.6548 -0.6250  0.0875
  143OSM    H8F15743   2.185   5.619   7.574  0.9155 -1.9191  0.1187
  143OSM    H8G15744   2.167   5.440   7.558 -1.5764 -1.0341 -0.3142
  143OSM    C9F15745   2.052   5.533   7.725  0.0057  0.6279 -0.3756
  143OSM    H9F15746   2.002   5.627   7.756 -0.5689 -0.0095  0.6674
  143OSM   C10F15747   2.065   5.423   7.808 -0.5127 -0.1500  0.2993
  143OSM   H10F15748   2.004   5.423   7.900  0.9956  1.0841  1.3158
  143OSM   C11F15749   2.127   5.290   7.776  0.0197 -0.5242  0.0032
  143OSM   H11F15750   2.238   5.295   7.778  0.0034 -0.0609 -0.2394
  143OSM   H11G15751   2.096   5.256   7.675  1.0921 -1.6983  0.0688
  143OSM   C12F15752   2.094   5.200   7.894  0.2110 -0.0757  0.1252
  143OSM   H12F15753   2.126   5.235   7.995  1.5103 -0.1862 -0.2409
  143OSM   H12G15754   2.165   5.118   7.871  1.1172  0.7321  0.0311
  143OSM   C13F15755   1.944   5.158   7.899 -0.0779 -1.1597 -0.1709
  143OSM   H13F15756   1.917   5.132   7.795  2.2138 -0.3918 -1.0039
  143OSM   H13G15757   1.874   5.236   7.934  1.9279  0.5406  0.1550
  143OSM   C14F15758   1.924   5.037   7.984  0.1651  0.5526 -0.0451
  143OSM   H14F15759   1.949   5.062   8.089 -0.2683 -1.6162  0.6052
  143OSM   H14G15760   1.987   4.954   7.946 -0.1498  0.3338 -0.0990
  143OSM   C15F15761   1.775   4.988   7.992 -0.2147 -0.1059 -0.3126
  143OSM   H15F15762   1.723   4.973   7.895  0.1305  1.4044 -0.7415
  143OSM   H15G15763   1.715   5.066   8.044 -0.7548 -1.8765  1.7888
  143OSM   C16F15764   1.772   4.865   8.084 -0.5569  0.8756  0.0189
  143OSM   H16F15765   1.816   4.877   8.186  3.5120  0.3666 -1.5853
  143OSM   H16G15766   1.832   4.785   8.035 -0.4762 -0.8379  2.7587
  143OSM   C17F15767   1.628   4.822   8.104 -1.0023 -0.0698  0.0023
  143OSM   H17F15768   1.622   4.725   8.157 -0.4019 -0.3210 -0.3895
  143OSM   H17G15769   1.582   4.794   8.007  1.2731 -1.2981 -0.7626
  143OSM   C18F15770   1.542   4.908   8.193 -0.0197  0.6888  0.1310
  143OSM   H18F15771   1.441   4.862   8.201  1.3775 -2.3251  1.0699
  143OSM   H18G15772   1.543   5.009   8.146  1.0130  0.6500  0.0569
  143OSM   H18H15773   1.595   4.907   8.291 -0.3285 -2.0332  0.2868
  144OSM      N15774   0.544   4.862   6.349  0.2269 -0.3769  0.0808
  144OSM    C1515775   0.625   4.961   6.275 -0.6496  0.7219  0.2982
  144OSM   H15A15776   0.589   4.978   6.174  4.1494 -0.9417 -1.8420
  144OSM   H15B15777   0.728   4.931   6.262 -0.8079 -0.5354  1.8313
  144OSM   H15C15778   0.626   5.060   6.320  0.2284  0.7290  0.2790
  144OSM    C1415779   0.576   4.861   6.492  0.3556  0.4588 -0.1618
  144OSM   H14A15780   0.507   4.792   6.538  1.2567 -0.0444  0.4396
  144OSM   H14B15781   0.565   4.958   6.537  1.8002 -0.3581  2.0298
  144OSM   H14C15782   0.678   4.827   6.502  0.5928  1.5102  1.0713
  144OSM    C1315783   0.406   4.901   6.351  0.4347  0.0783  0.0710
  144OSM   H13A15784   0.337   4.853   6.420  0.0099  1.9031  0.9832
  144OSM   H13B15785   0.358   4.902   6.255 -0.8032  0.9659  0.6751
  144OSM   H13C15786   0.400   5.008   6.368  0.4424 -0.2072  2.1026
  144OSM    C1215787   0.566   4.724   6.285  0.5734  0.0595 -0.0995
  144OSM   H12A15788   0.541   4.730   6.180  1.6358  1.8947 -0.2619
  144OSM   H12B15789   0.498   4.656   6.334 -0.4386  1.2608  0.1908
  144OSM    C1115790   0.710   4.667   6.300  0.8348 -0.5381  0.3836
  144OSM   H11A15791   0.726   4.570   6.249 -1.8616  0.4721 -2.5843
  144OSM   H11B15792   0.719   4.650   6.409 -0.2281  0.1985  0.5928
  144OSM      P15793   0.962   4.738   6.299  0.3995  0.1571  0.2380
  144OSM    O1315794   1.008   4.600   6.268 -1.0208  0.0448 -0.1347
  144OSM    O1415795   1.034   4.852   6.241  0.0368  0.8348  0.0916
  144OSM    O1115796   0.961   4.752   6.453  0.5774  0.2994  0.6465
  144OSM    O1215797   0.813   4.755   6.252  0.4487  0.4053 -0.4589
  144OSM    C1S15798   0.964   4.874   6.527 -0.4294 -0.6239  0.0195
  144OSM    H1S15799   0.873   4.938   6.524  0.9540  1.3010 -3.0528
  144OSM    H1T15800   1.057   4.933   6.512 -1.8791  1.5073 -0.7088
  144OSM     NF15801   0.968   4.959   6.757  0.0986 -0.2651  0.3965
  144OSM    HNF15802   1.050   5.010   6.780 -0.3159 -0.4020  2.3346
  144OSM    C2S15803   0.986   4.837   6.683 -0.4218 -0.8393 -0.3508
  144OSM    H2S15804   0.902   4.773   6.717 -1.8168  0.4172 -1.3575
  144OSM    C3S15805   1.117   4.763   6.708 -0.1776 -0.1676 -0.0377
  144OSM    H3S15806   1.203   4.820   6.667 -0.3310  0.7331  0.8790
  144OSM     O315807   1.105   4.635   6.637 -0.4188 -0.6405 -0.5661
  144OSM    HO315808   1.087   4.661   6.547 -1.2358  0.3609 -0.1259
  144OSM    C4S15809   1.133   4.738   6.860 -0.5987  0.4013  0.5805
  144OSM    H4S15810   1.183   4.828   6.897  0.1854  0.8772 -1.5664
  144OSM    C5S15811   1.095   4.641   6.941 -0.1328  0.2236 -0.2075
  144OSM    H5S15812   1.042   4.558   6.891 -0.2631 -0.0513  0.3898
  144OSM    C6S15813   1.122   4.619   7.089  0.0343  0.5387  0.3633
  144OSM    H6S15814   1.151   4.515   7.116  1.3836  1.1610  1.3838
  144OSM    H6T15815   1.028   4.639   7.144 -1.7669 -1.3030 -1.9190
  144OSM    C7S15816   1.242   4.697   7.146  0.4442 -1.0205  0.1982
  144OSM    H7S15817   1.229   4.806   7.129  0.8740 -1.1625 -1.1262
  144OSM    H7T15818   1.339   4.667   7.100  0.0085 -1.4707 -0.4361
  144OSM    C8S15819   1.264   4.657   7.293  0.6715 -0.3043 -0.4459
  144OSM    H8S15820   1.262   4.548   7.313 -0.1356 -0.4468 -1.2561
  144OSM    H8T15821   1.196   4.713   7.361  1.1960 -1.3826  0.9882
  144OSM    C9S15822   1.399   4.711   7.337  0.2241 -0.5446 -0.5412
  144OSM    H9S15823   1.403   4.817   7.306  2.0042 -0.7843 -1.2037
  144OSM    H9T15824   1.484   4.661   7.285  0.4345 -1.9913  1.1643
  144OSM   C10S15825   1.406   4.730   7.492 -0.1372 -0.6784  0.8369
  144OSM   H10S15826   1.317   4.793   7.515 -0.8113 -1.7846  1.3084
  144OSM   H10T15827   1.497   4.784   7.525 -0.3365 -2.0531  3.8374
  144OSM   C11S15828   1.409   4.599   7.568 -0.1358 -0.1922 -0.0860
  144OSM   H11S15829   1.498   4.535   7.551  0.6237  0.6341  0.7422
  144OSM   H11T15830   1.320   4.534   7.550 -0.6850  0.0706  1.5222
  144OSM   C12S15831   1.419   4.608   7.727 -0.3375  0.0224 -0.2939
  144OSM   H12S15832   1.346   4.685   7.760 -0.0731  0.2532 -0.2480
  144OSM   H12T15833   1.513   4.654   7.765 -0.4427  1.0444 -1.2580
  144OSM   C13S15834   1.376   4.474   7.776  0.7382 -0.2244 -0.3534
  144OSM   H13S15835   1.444   4.395   7.738 -0.8271 -2.1971  0.8627
  144OSM   H13T15836   1.275   4.452   7.735  0.6007  0.8611 -0.6296
  144OSM   C14S15837   1.384   4.457   7.934  0.2214  0.5628  0.1134
  144OSM   H14S15838   1.321   4.535   7.981 -0.3619 -0.1469  0.5178
  144OSM   H14T15839   1.489   4.479   7.964 -0.1428 -0.3359  2.0655
  144OSM   C15S15840   1.356   4.312   7.977 -0.0487  0.1355 -0.3817
  144OSM   H15S15841   1.433   4.254   7.920 -1.2387 -1.8824  0.0091
  144OSM   H15T15842   1.252   4.278   7.961 -0.3873  1.4003 -0.9266
  144OSM   C16S15843   1.387   4.287   8.126  0.3446  0.4197 -0.6052
  144OSM   H16S15844   1.343   4.372   8.184  1.0666 -0.4924  1.3165
  144OSM   H16T15845   1.497   4.292   8.144  0.3455  0.4385 -0.6149
  144OSM   C17S15846   1.357   4.145   8.179 -0.3536 -0.5062 -0.7921
  144OSM   H17S15847   1.249   4.143   8.153 -0.0772  0.6235 -2.0587
  144OSM   H17T15848   1.369   4.150   8.290 -1.2663 -0.9028 -0.6680
  144OSM   C18S15849   1.442   4.032   8.116  0.4208 -0.5816 -0.0114
  144OSM   H18S15850   1.403   4.002   8.016 -1.7490 -3.3404  1.5790
  144OSM   H18T15851   1.434   3.940   8.178  0.2893 -0.8922 -0.4816
  144OSM   H18U15852   1.549   4.062   8.124  0.2607 -0.4725  1.8596
  144OSM    C1F15853   0.857   5.019   6.791  0.7331  0.3027 -0.5296
  144OSM     OF15854   0.751   4.968   6.756  0.2242 -0.5663  0.0515
  144OSM    C2F15855   0.872   5.140   6.881 -0.0201 -0.1029  0.0887
  144OSM    H2F15856   0.933   5.214   6.824 -3.0272  0.9161 -1.9311
  144OSM    H2G15857   0.906   5.106   6.981 -0.3140 -0.3148  0.1162
  144OSM    C3F15858   0.742   5.204   6.908 -0.3083  0.5322  1.0253
  144OSM    H3F15859   0.672   5.133   6.955 -0.2817 -0.0589  0.1767
  144OSM    H3G15860   0.695   5.245   6.816  1.6852  3.0999  1.0677
  144OSM    C4F15861   0.763   5.331   6.983  0.3410  0.4975 -0.0775
  144OSM    H4F15862   0.665   5.378   7.004  0.8889  1.4872  0.2970
  144OSM    H4G15863   0.827   5.409   6.936 -3.0753  1.9966 -2.3884
  144OSM    C5F15864   0.820   5.296   7.123 -0.0506 -0.4049  0.6026
  144OSM    H5F15865   0.921   5.251   7.117 -0.2551 -1.2036  2.6563
  144OSM    H5G15866   0.751   5.227   7.177  0.5328 -1.3532  0.1354
  144OSM    C6F15867   0.829   5.413   7.220 -0.1069  0.5417 -0.2133
  144OSM    H6F15868   0.746   5.484   7.201 -0.0712  0.8891  0.8954
  144OSM    H6G15869   0.916   5.475   7.192 -0.4712  1.2530  0.2074
  144OSM    C7F15870   0.821   5.370   7.363  0.2564  0.4057  0.1842
  144OSM    H7F15871   0.904   5.303   7.396 -0.1701 -0.6137 -0.7855
  144OSM    H7G15872   0.726   5.319   7.386 -0.0901  1.8099  1.9274
  144OSM    C8F15873   0.825   5.493   7.459  0.1675 -0.3349 -0.2544
  144OSM    H8F15874   0.920   5.547   7.443  1.9001 -3.1140  0.4380
  144OSM    H8G15875   0.833   5.446   7.559 -1.4135 -3.7156 -1.6469
  144OSM    C9F15876   0.710   5.591   7.452  0.2464 -0.3936 -0.3758
  144OSM    H9F15877   0.687   5.622   7.349 -0.3345 -2.2332 -0.8276
  144OSM   C10F15878   0.642   5.647   7.555  0.5943 -0.1587  0.0657
  144OSM   H10F15879   0.551   5.704   7.533 -0.5694 -2.0899 -0.2356
  144OSM   C11F15880   0.674   5.622   7.701  0.5028 -0.1099  0.2801
  144OSM   H11F15881   0.776   5.585   7.723  0.4228 -1.0757 -0.9289
  144OSM   H11G15882   0.606   5.544   7.741 -1.1837  0.7397 -0.8344
  144OSM   C12F15883   0.649   5.744   7.804 -0.3108  0.2505  0.2013
  144OSM   H12F15884   0.548   5.790   7.808  0.3141  1.6116  0.3941
  144OSM   H12G15885   0.719   5.818   7.762  0.8208 -1.1520 -0.4105
  144OSM   C13F15886   0.681   5.711   7.951 -0.6186  0.8561  0.1267
  144OSM   H13F15887   0.785   5.673   7.944 -1.9586 -2.8946 -0.2177
  144OSM   H13G15888   0.607   5.640   7.994 -0.9594  0.9344 -0.3351
  144OSM   C14F15889   0.662   5.847   8.031  0.0145 -0.3196  0.1658
  144OSM   H14F15890   0.555   5.873   8.031  0.7554  3.0974  2.4306
  144OSM   H14G15891   0.720   5.928   7.982 -1.7054  1.3882  0.9444
  144OSM   C15F15892   0.705   5.830   8.174 -0.6535  0.2578 -0.5002
  144OSM   H15F15893   0.812   5.800   8.172 -0.0528  2.4081 -1.2820
  144OSM   H15G15894   0.651   5.753   8.233  1.1136  0.1474  1.0126
  144OSM   C16F15895   0.702   5.966   8.244  0.1965  0.1454 -0.1116
  144OSM   H16F15896   0.602   6.008   8.223 -0.8037 -2.7938 -1.4733
  144OSM   H16G15897   0.772   6.037   8.194  0.4103  0.7493  1.0286
  144OSM   C17F15898   0.714   5.948   8.399 -0.8837 -0.4187  0.2351
  144OSM   H17F15899   0.804   5.884   8.416 -2.2549 -2.6548 -0.6626
  144OSM   H17G15900   0.633   5.877   8.429  0.0075 -1.1706  0.9059
  144OSM   C18F15901   0.710   6.084   8.472 -0.5212 -0.0219  0.1668
  144OSM   H18F15902   0.787   6.147   8.424 -1.2572  0.0830 -0.9018
  144OSM   H18G15903   0.717   6.077   8.583 -0.5787 -0.4944  0.1424
  144OSM   H18H15904   0.617   6.144   8.458  0.3333  1.9413  2.6423
  145SAPE     N15905   5.201   6.269  10.873  0.4641  0.1826  0.3812
  145SAPE   HN115906   5.190   6.189  10.937 -1.2246  0.3406  0.3145
  145SAPE   HN215907   5.231   6.355  10.923 -0.7497  2.1330 -2.1078
  145SAPE   HN315908   5.106   6.289  10.836  0.9020  1.2836 -0.1999
  145SAPE   C1215909   5.296   6.239  10.762  0.0679  0.2334  0.1253
  145SAPE  H12A15910   5.263   6.152  10.702 -0.9766  1.3924 -1.0317
  145SAPE  H12B15911   5.393   6.225  10.815  1.0555  0.9438 -1.4691
  145SAPE   C1115912   5.308   6.369  10.680  0.4795  0.4136  0.2122
  145SAPE  H11A15913   5.208   6.393  10.637 -0.1934 -0.0567  1.4825
  145SAPE  H11B15914   5.366   6.351  10.588 -0.5893 -1.3609 -0.1485
  145SAPE     P15915   5.510   6.520  10.776 -0.3467  0.2271 -0.0385
  145SAPE   O1315916   5.523   6.639  10.863 -0.1845 -0.4067  0.0383
  145SAPE   O1415917   5.586   6.399  10.809 -0.0897 -0.0790  0.4375
  145SAPE   O1215918   5.365   6.478  10.760 -0.3004  0.3052  0.1116
  145SAPE   O1115919   5.546   6.563  10.627 -0.0980  0.9117  0.2061
  145SAPE    C115920   5.528   6.700  10.590 -0.2383  0.4767  0.2420
  145SAPE    HA15921   5.480   6.774  10.657 -1.4056 -1.1305  1.1965
  145SAPE    HB15922   5.632   6.741  10.587  0.2591 -0.8711 -2.9201
  145SAPE    C215923   5.470   6.707  10.438 -0.2981 -0.4600  0.1142
  145SAPE    HS15924   5.522   6.621  10.391  0.1093 -1.4573  2.2890
  145SAPE   O2115925   5.495   6.837  10.380  0.6818  0.3565 -0.1477
  145SAPE   C2115926   5.606   6.860  10.322 -0.3426 -0.5744 -0.2027
  145SAPE   O2215927   5.697   6.783  10.295 -0.2800 -0.0615  0.3063
  145SAPE   C2215928   5.612   7.015  10.282  0.1681 -0.1866  0.8169
  145SAPE   H2R15929   5.509   7.037  10.244 -0.0769 -2.4319  0.1184
  145SAPE   H2S15930   5.627   7.063  10.381 -1.0823  1.3842  0.2788
  145SAPE    C315931   5.319   6.670  10.430 -0.0583  0.0593  0.0099
  145SAPE    HX15932   5.261   6.757  10.468  1.7819  0.7169  1.3657
  145SAPE    HY15933   5.299   6.585  10.498 -0.5143 -1.3492 -1.8566
  145SAPE   O3115934   5.286   6.622  10.298  0.0873 -0.2668  0.4785
  145SAPE   C3115935   5.268   6.719  10.202  0.0090  0.1574 -0.5983
  145SAPE   O3215936   5.268   6.838  10.218  0.3190  0.2998  0.2493
  145SAPE   C3215937   5.272   6.647  10.071  0.5342 -0.5750  0.0846
  145SAPE   H2X15938   5.372   6.598  10.064  1.6100  1.2485  2.0946
  145SAPE   H2Y15939   5.287   6.721   9.990  0.7325  1.3821  1.8756
  145SAPE   C2315940   5.719   7.061  10.180  0.5062 -0.6288 -0.4998
  145SAPE   H3R15941   5.814   7.011  10.212  1.0070  1.2850  1.0353
  145SAPE   H3S15942   5.739   7.169  10.192  1.2488 -1.0463  2.2773
  145SAPE   C2415943   5.689   7.036  10.026  0.2357  0.6194 -0.1201
  145SAPE   H4R15944   5.783   7.060   9.971  0.6823  1.7527  1.1299
  145SAPE   H4S15945   5.617   7.108   9.980 -1.3068 -1.1762 -0.5584
  145SAPE   C2515946   5.644   6.896   9.991 -0.2285  0.0228 -0.5985
  145SAPE   H5R15947   5.713   6.827  10.042 -1.0688  0.5042  1.2699
  145SAPE   C2615948   5.540   6.854   9.915 -0.4304  0.2036  0.5058
  145SAPE   H6R15949   5.513   6.749   9.900  2.5519 -0.5711  0.2878
  145SAPE   C2715950   5.447   6.950   9.851 -0.1969  0.5293  0.3960
  145SAPE   H7R15951   5.450   7.046   9.907 -2.5181  0.6652  0.3671
  145SAPE   H7S15952   5.343   6.919   9.875 -0.1394  0.6173  0.7701
  145SAPE   C2815953   5.495   6.968   9.710  0.2418  0.3441  0.7516
  145SAPE   H8R15954   5.590   7.023   9.699  0.6406 -0.4793  0.0612
  145SAPE   C2915955   5.431   6.936   9.598 -0.0076  0.2844 -0.0821
  145SAPE   H9R15956   5.488   6.940   9.504  0.1481 -0.6345 -0.0302
  145SAPE  C21015957   5.304   6.865   9.593 -0.1796 -0.0458 -0.0846
  145SAPE  H10R15958   5.269   6.888   9.490  1.5727  1.2029 -0.4342
  145SAPE  H10S15959   5.233   6.914   9.663 -1.2027 -2.3694  0.5395
  145SAPE  C21115960   5.292   6.715   9.626 -0.0537  0.1988 -0.3664
  145SAPE  H11R15961   5.295   6.692   9.734 -0.2462  1.0147 -0.1772
  145SAPE  C21215962   5.284   6.607   9.545  0.0949 -0.7408  0.4530
  145SAPE  H12R15963   5.259   6.504   9.574 -1.0452 -0.6517 -0.1749
  145SAPE  C21315964   5.296   6.618   9.398  0.6017  0.2807 -0.2649
  145SAPE  H13R15965   5.403   6.625   9.370  0.5817  1.1134 -0.1426
  145SAPE  H13S15966   5.251   6.712   9.359  1.0059  0.7170  0.3133
  145SAPE  C21415967   5.225   6.504   9.327 -0.4421  0.2898  0.3655
  145SAPE  H14R15968   5.137   6.461   9.377 -1.4239  0.4625 -1.1740
  145SAPE  C21515969   5.266   6.464   9.209 -0.0586 -0.4277 -0.3883
  145SAPE  H15R15970   5.216   6.373   9.171  2.0924 -1.0443 -1.8940
  145SAPE  C21615971   5.385   6.507   9.131 -0.4135 -0.7292  0.2157
  145SAPE  H16R15972   5.477   6.446   9.137  0.9684  1.2984  0.1897
  145SAPE  H16S15973   5.415   6.613   9.145 -0.7866 -0.6749  0.6009
  145SAPE  C21715974   5.378   6.509   8.971 -0.2427  0.1535  0.7304
  145SAPE  H17R15975   5.277   6.552   8.950  1.0881  2.8033 -0.5526
  145SAPE  H17S15976   5.390   6.403   8.941 -1.9909  0.4049 -0.9837
  145SAPE  C21815977   5.482   6.587   8.891 -0.1881  0.8059 -0.1938
  145SAPE  H18R15978   5.586   6.554   8.908 -0.8336 -0.8115  0.7909
  145SAPE  H18S15979   5.486   6.693   8.923 -0.3174  0.1796  2.0150
  145SAPE  C21915980   5.448   6.600   8.738 -0.2553 -0.3345  0.0056
  145SAPE  H19R15981   5.357   6.664   8.735  1.5540  2.3058 -2.3438
  145SAPE  H19S15982   5.428   6.497   8.702 -0.9502 -0.4262  0.6312
  145SAPE  C22015983   5.559   6.673   8.663 -0.0556 -0.3287  0.4239
  145SAPE  H20R15984   5.537   6.679   8.554 -0.0992  1.3988  0.5177
  145SAPE  H20S15985   5.652   6.614   8.680  1.0719  1.6130  1.0629
  145SAPE  H20T15986   5.559   6.776   8.704 -1.3079 -0.3482  0.4978
  145SAPE   C3315987   5.151   6.559  10.049  0.0598 -0.0963 -0.0373
  145SAPE   H3X15988   5.054   6.612  10.061  0.0511 -0.0111 -0.5004
  145SAPE   H3Y15989   5.156   6.483  10.131 -1.6151 -2.2497 -1.8735
  145SAPE   C3415990   5.146   6.486   9.915 -0.8898 -0.7765 -0.0166
  145SAPE   H4X15991   5.154   6.556   9.829 -0.1262 -1.6361 -0.6475
  145SAPE   H4Y15992   5.047   6.435   9.907 -0.4186 -2.2752  3.1184
  145SAPE   C3515993   5.255   6.377   9.909  0.0140 -0.2711  0.4914
  145SAPE   H5X15994   5.234   6.307   9.994  0.9980 -2.0895 -0.7430
  145SAPE   H5Y15995   5.357   6.419   9.908 -0.4822  0.9643  0.7080
  145SAPE   C3615996   5.254   6.296   9.789 -0.4697  0.4979 -0.0624
  145SAPE   H6X15997   5.272   6.350   9.694 -0.8627  1.4678  0.4075
  145SAPE   H6Y15998   5.151   6.257   9.778 -0.1260  0.1914 -2.3210
  145SAPE   C3715999   5.345   6.171   9.784 -0.3724 -1.1304  0.0461
  145SAPE   H7X16000   5.325   6.104   9.870  0.1614 -0.6633  0.5350
  145SAPE   H7Y16001   5.444   6.216   9.802 -1.0810  0.9189 -1.0430
  145SAPE   C3816002   5.332   6.105   9.648  0.0554  0.3901  0.8993
  145SAPE   H8X16003   5.229   6.075   9.619  0.4762 -1.6074  1.4547
  145SAPE   H8Y16004   5.396   6.015   9.642  1.0760  1.1654 -0.2870
  145SAPE   C3916005   5.407   6.189   9.539  0.1405 -0.1160  0.0501
  145SAPE   H9X16006   5.512   6.202   9.572  0.5996 -0.4296 -1.2455
  145SAPE   H9Y16007   5.371   6.294   9.539 -1.8175 -0.7654 -0.9573
  145SAPE  C31016008   5.416   6.128   9.395  0.1579  0.0896 -0.8848
  145SAPE  H10X16009   5.479   6.036   9.403  0.6332  0.6159  1.8692
  145SAPE  H10Y16010   5.477   6.206   9.344  1.0472  1.4794  2.1679
  145SAPE  C31116011   5.293   6.104   9.315  0.0888 -0.6659 -0.3131
  145SAPE  H11X16012   5.240   6.201   9.300  2.2394  0.7032  0.7494
  145SAPE  H11Y16013   5.229   6.031   9.370  0.7621 -0.3496  0.9063
  145SAPE  C31216014   5.313   6.052   9.163  0.3271 -0.2795  0.0728
  145SAPE  H12X16015   5.212   6.033   9.121  0.2152  2.0042 -0.7751
  145SAPE  H12Y16016   5.377   5.962   9.162 -2.0718 -2.0145 -0.6371
  145SAPE  C31316017   5.386   6.153   9.065  0.0953  0.4250 -0.1953
  145SAPE  H13X16018   5.464   6.211   9.119 -0.3623 -0.5734  1.5529
  145SAPE  H13Y16019   5.301   6.217   9.033  0.8028  0.3821 -2.2573
  145SAPE  C31416020   5.434   6.096   8.931  0.1679  0.0390 -0.5437
  145SAPE  H14X16021   5.510   6.018   8.950 -1.9046 -1.6795  1.0153
  145SAPE  H14Y16022   5.488   6.168   8.866 -1.0297  2.4378  1.0294
  145SAPE  C31516023   5.321   6.030   8.842  0.4157 -0.2923 -0.4916
  145SAPE  H15X16024   5.238   6.101   8.820 -0.9003 -2.0305 -1.1668
  145SAPE  H15Y16025   5.289   5.950   8.912 -0.8601  2.0944  1.7454
  145SAPE  C31616026   5.376   5.962   8.718  0.1633  0.6289  0.5350
  145SAPE  H16X16027   5.303   5.900   8.661  1.5080 -0.9624  0.4777
  145SAPE  H16Y16028   5.457   5.890   8.743 -0.0328 -1.1012 -3.3609
  145SAPE  C31716029   5.430   6.076   8.622  0.1333  0.1732 -0.1745
  145SAPE  H17X16030   5.526   6.109   8.667 -0.1978 -1.1753  1.6053
  145SAPE  H17Y16031   5.363   6.164   8.618  1.9160  1.5625 -0.1725
  145SAPE  C31816032   5.465   6.025   8.485 -0.1392  0.2999  0.1485
  145SAPE  H18X16033   5.476   6.113   8.418  0.9082 -0.4170 -0.6426
  145SAPE  H18Y16034   5.385   5.961   8.442  0.6836 -1.2294  0.8525
  145SAPE  H18Z16035   5.561   5.971   8.473 -0.0043  0.6957 -0.5490
  146SAPE     N16036   5.136   0.368  10.815  0.4636  0.3772  0.6730
  146SAPE   HN116037   5.054   0.338  10.872 -1.1422  1.8254 -0.8101
  146SAPE   HN216038   5.206   0.291  10.817  1.1454  1.0054  0.8787
  146SAPE   HN316039   5.190   0.436  10.871  1.0249  0.0441  0.5417
  146SAPE   C1216040   5.107   0.415  10.672 -0.1613 -0.2704  0.6279
  146SAPE  H12A16041   5.039   0.345  10.619  0.8512 -1.0088  0.2939
  146SAPE  H12B16042   5.205   0.419  10.620 -0.6952 -1.6395 -0.5309
  146SAPE   C1116043   5.060   0.565  10.680 -0.5119  0.5517  0.6561
  146SAPE  H11A16044   5.000   0.580  10.588  2.6050 -0.3286 -1.6110
  146SAPE  H11B16045   5.151   0.629  10.674 -0.7054  0.6677 -1.2620
  146SAPE     P16046   4.878   0.704  10.801 -0.0945 -0.1501 -0.1503
  146SAPE   O1316047   4.760   0.648  10.737  0.5786  0.5575 -0.1265
  146SAPE   O1416048   4.861   0.764  10.935  0.1103  0.1786 -0.5940
  146SAPE   O1216049   4.990   0.594  10.803 -0.0169 -0.3139 -0.2637
  146SAPE   O1116050   4.939   0.814  10.708  0.1809  0.2896  0.4964
  146SAPE    C116051   4.914   0.959  10.708  0.7282  0.2248 -0.3992
  146SAPE    HA16052   4.820   0.981  10.764  1.0512 -0.1906  0.3199
  146SAPE    HB16053   4.994   0.987  10.780  0.4380 -1.8611  0.8004
  146SAPE    C216054   4.918   1.021  10.566  0.1974  0.5559  0.6633
  146SAPE    HS16055   4.922   1.132  10.571  0.2337  0.7467 -2.5868
  146SAPE   O2116056   4.808   0.975  10.490  0.1856 -0.2204  0.0651
  146SAPE   C2116057   4.700   1.035  10.518  0.1011 -1.1336  0.2193
  146SAPE   O2216058   4.674   1.108  10.611  0.4184 -0.7033 -0.2815
  146SAPE   C2216059   4.593   0.994  10.418 -0.1713 -0.1867  0.0550
  146SAPE   H2R16060   4.585   0.885  10.438  2.2915 -0.2060  1.0695
  146SAPE   H2S16061   4.500   1.050  10.442 -0.7308 -0.6606 -0.9239
  146SAPE    C316062   5.049   0.968  10.496 -0.6598 -0.4744  0.0233
  146SAPE    HX16063   5.037   0.858  10.487 -0.1007 -0.6267  1.1001
  146SAPE    HY16064   5.139   0.991  10.556  0.2088  2.3167 -2.2358
  146SAPE   O3116065   5.062   1.017  10.360 -0.5460  0.1946  0.6472
  146SAPE   C3116066   5.102   1.142  10.347  0.6760 -0.2821 -0.2607
  146SAPE   O3216067   5.139   1.208  10.445 -0.1981  0.3325 -0.0052
  146SAPE   C3216068   5.114   1.180  10.196 -0.3787 -0.2152  0.0002
  146SAPE   H2X16069   5.160   1.091  10.147  2.0329  0.5353  0.8384
  146SAPE   H2Y16070   5.187   1.263  10.188 -0.0606 -0.5146 -0.2245
  146SAPE   C2316071   4.621   1.021  10.268  0.6669 -0.9658  0.7093
  146SAPE   H3R16072   4.545   0.963  10.211 -0.3774 -1.9519  3.0224
  146SAPE   H3S16073   4.724   0.985  10.250  0.5578  0.3624 -3.0166
  146SAPE   C2416074   4.634   1.173  10.233 -0.0336 -0.2257 -0.3564
  146SAPE   H4R16075   4.684   1.167  10.135  1.9547 -0.6788  0.6614
  146SAPE   H4S16076   4.701   1.230  10.302 -3.1217  2.5978  0.4564
  146SAPE   C2516077   4.498   1.232  10.215 -0.6124 -0.6367  0.4251
  146SAPE   H5R16078   4.439   1.251  10.306 -1.5516 -0.1238 -0.2824
  146SAPE   C2616079   4.437   1.267  10.098  0.4188 -0.4881 -0.6229
  146SAPE   H6R16080   4.334   1.305  10.095  0.0393 -0.8730  3.8566
  146SAPE   C2716081   4.494   1.257   9.957 -0.4926  0.2980 -0.7249
  146SAPE   H7R16082   4.501   1.147   9.943  2.1616  0.1757  1.1875
  146SAPE   H7S16083   4.598   1.293   9.947 -0.2502 -0.4366 -0.9193
  146SAPE   C2816084   4.410   1.323   9.847  0.4418  0.2304 -0.4622
  146SAPE   H8R16085   4.442   1.420   9.806  2.1302 -0.2094 -0.2273
  146SAPE   C2916086   4.296   1.277   9.802  0.0182  0.1882 -0.0492
  146SAPE   H9R16087   4.256   1.319   9.708  1.7841 -0.8205 -1.2774
  146SAPE  C21016088   4.230   1.149   9.847 -0.3428 -0.0580 -0.1829
  146SAPE  H10R16089   4.231   1.135   9.957  1.2411 -3.4719 -0.5696
  146SAPE  H10S16090   4.289   1.060   9.818 -1.9445 -0.5987 -1.9166
  146SAPE  C21116091   4.092   1.149   9.791  0.4161  0.0643  0.3398
  146SAPE  H11R16092   4.020   1.208   9.849 -1.0579  1.1883 -2.5395
  146SAPE  C21216093   4.035   1.069   9.695  0.6266  0.6043 -0.2054
  146SAPE  H12R16094   3.929   1.094   9.677  0.1043 -0.3048  1.4676
  146SAPE  C21316095   4.097   0.960   9.619  0.0953 -0.0646  0.5451
  146SAPE  H13R16096   4.024   0.880   9.595 -1.0003  1.2467 -0.5951
  146SAPE  H13S16097   4.163   0.906   9.690 -0.6396 -0.0768  1.2353
  146SAPE  C21416098   4.169   1.009   9.497 -0.2529 -0.8130  0.6516
  146SAPE  H14R16099   4.264   1.061   9.515 -2.2201  2.7628  1.1657
  146SAPE  C21516100   4.113   1.012   9.377 -0.0256  0.6426  0.1666
  146SAPE  H15R16101   4.169   1.037   9.285 -2.6905  1.4155 -1.2969
  146SAPE  C21616102   3.976   0.951   9.352 -0.7492  0.2085  0.4591
  146SAPE  H16R16103   3.911   0.982   9.437 -1.7431  1.2172 -0.6625
  146SAPE  H16S16104   3.984   0.840   9.351  1.7417  0.3191  2.6301
  146SAPE  C21716105   3.916   0.990   9.212 -0.2317  0.0530 -0.1158
  146SAPE  H17R16106   3.923   1.100   9.198  1.5178  0.1401  1.2536
  146SAPE  H17S16107   3.807   0.969   9.211 -0.5628  1.6586  1.1460
  146SAPE  C21816108   3.987   0.929   9.090 -0.1711 -0.7864 -0.0489
  146SAPE  H18R16109   4.096   0.947   9.096 -0.0743 -1.5952  0.6706
  146SAPE  H18S16110   3.960   0.984   8.998  1.8722 -1.4221 -1.0484
  146SAPE  C21916111   3.942   0.784   9.057 -0.3942  0.8247  0.4855
  146SAPE  H19R16112   3.831   0.786   9.051 -0.3306  4.7574 -1.5315
  146SAPE  H19S16113   3.973   0.710   9.133  0.4508  1.9351  1.2446
  146SAPE  C22016114   4.000   0.737   8.921  0.3114 -0.2586  0.8550
  146SAPE  H20R16115   4.111   0.737   8.918  0.2979 -0.6455  0.1367
  146SAPE  H20S16116   3.970   0.804   8.837 -0.1985  0.4414  1.5931
  146SAPE  H20T16117   3.981   0.630   8.897  0.4985 -0.5784  2.0876
  146SAPE   C3316118   4.981   1.223  10.141  0.3264  0.6417 -0.4982
  146SAPE   H3X16119   4.946   1.321  10.179 -1.0423  0.8786 -2.2759
  146SAPE   H3Y16120   4.902   1.146  10.154  0.2422  0.9325  0.7690
  146SAPE   C3416121   4.992   1.247   9.993 -0.2206 -0.4633 -0.4817
  146SAPE   H4X16122   5.022   1.149   9.950  0.0507  0.0028 -1.3499
  146SAPE   H4Y16123   5.070   1.322   9.966  0.8678 -2.2140 -2.3599
  146SAPE   C3516124   4.860   1.283   9.928 -0.1191  0.9759  0.0802
  146SAPE   H5X16125   4.801   1.363   9.978  0.2680  0.3706  1.5238
  146SAPE   H5Y16126   4.790   1.199   9.908 -1.1277  1.4270  1.6575
  146SAPE   C3616127   4.885   1.334   9.791 -0.0218 -0.5730  0.1240
  146SAPE   H6X16128   4.930   1.254   9.728 -1.8764 -0.2424 -1.6664
  146SAPE   H6Y16129   4.961   1.414   9.800 -2.0063  1.2654  0.9348
  146SAPE   C3716130   4.754   1.395   9.734 -0.5577  0.2184  0.6172
  146SAPE   H7X16131   4.708   1.455   9.815  1.5357  1.2378  1.0716
  146SAPE   H7Y16132   4.679   1.319   9.702  0.0335  0.1426 -0.6462
  146SAPE   C3816133   4.784   1.479   9.603  0.0655 -0.2118  0.7007
  146SAPE   H8X16134   4.816   1.408   9.524 -0.7664 -0.2705  0.4120
  146SAPE   H8Y16135   4.870   1.548   9.616  0.2678 -0.3709  0.2204
  146SAPE   C3916136   4.673   1.560   9.551  0.5303 -0.7582  0.1257
  146SAPE   H9X16137   4.661   1.638   9.629 -1.5231  0.2796 -1.1948
  146SAPE   H9Y16138   4.574   1.509   9.543 -0.2273  0.7441 -0.2565
  146SAPE  C31016139   4.701   1.635   9.418 -0.1805 -0.3307  0.2964
  146SAPE  H10X16140   4.805   1.674   9.414 -0.0509 -0.4300  2.3054
  146SAPE  H10Y16141   4.637   1.723   9.398  0.5481  0.0809 -0.2589
  146SAPE  C31116142   4.690   1.549   9.290 -0.4747  0.5974 -0.8042
  146SAPE  H11X16143   4.586   1.511   9.288 -0.0942 -0.4558 -0.7479
  146SAPE  H11Y16144   4.767   1.470   9.301 -1.0671  0.5270  3.2230
  146SAPE  C31216145   4.713   1.628   9.154 -0.6423  0.3824 -0.2919
  146SAPE  H12X16146   4.626   1.697   9.144  0.6979  2.1607 -0.0226
  146SAPE  H12Y16147   4.716   1.552   9.073  0.9979  0.3966 -0.2643
  146SAPE  C31316148   4.831   1.719   9.155  0.0917 -0.3725 -0.1497
  146SAPE  H13X16149   4.926   1.665   9.177 -0.4353 -0.5394  1.8384
  146SAPE  H13Y16150   4.819   1.800   9.231 -0.4175  1.5594 -2.2463
  146SAPE  C31416151   4.848   1.786   9.019  0.3001  0.5991  0.0845
  146SAPE  H14X16152   4.928   1.863   9.015  1.0484 -0.1904 -0.2838
  146SAPE  H14Y16153   4.757   1.846   8.997 -0.7879 -1.2835 -0.6579
  146SAPE  C31516154   4.872   1.689   8.899  0.6412  0.4031  0.1474
  146SAPE  H15X16155   4.882   1.582   8.929 -1.7231 -0.4344 -1.8862
  146SAPE  H15Y16156   4.975   1.707   8.862  1.0833  0.1340  1.2406
  146SAPE  C31616157   4.762   1.708   8.789 -0.5604 -0.0307  0.1351
  146SAPE  H16X16158   4.739   1.817   8.782 -0.1999 -0.0731 -1.8522
  146SAPE  H16Y16159   4.673   1.649   8.821 -1.3805  0.5083 -1.1159
  146SAPE  C31716160   4.820   1.666   8.652 -0.5412  0.2218 -0.2555
  146SAPE  H17X16161   4.921   1.711   8.644 -0.4448  0.0090 -0.2269
  146SAPE  H17Y16162   4.759   1.717   8.574 -0.5768  0.1231 -0.2938
  146SAPE  C31816163   4.825   1.521   8.602  0.3935  0.7446 -0.3459
  146SAPE  H18X16164   4.886   1.521   8.510  1.8633 -0.7038  0.6019
  146SAPE  H18Y16165   4.726   1.480   8.572  0.8871 -1.0142  0.3656
  146SAPE  H18Z16166   4.862   1.453   8.682 -2.2867  1.0653  1.2289
  147SAPE     N16167   6.219   2.972  10.915  0.1424  0.2207  0.1189
  147SAPE   HN116168   6.216   3.075  10.929 -0.4375  0.1969  0.1691
  147SAPE   HN216169   6.302   2.939  10.967  0.4714  0.6159 -0.1539
  147SAPE   HN316170   6.239   2.948  10.816  1.3154  0.6701  0.2424
  147SAPE   C1216171   6.084   2.916  10.964  0.3332  0.4678 -1.0061
  147SAPE  H12A16172   6.103   2.821  11.018  1.4510  1.1243 -0.2227
  147SAPE  H12B16173   6.026   2.896  10.871 -0.7064 -0.8924 -0.1021
  147SAPE   C1116174   6.027   3.014  11.073 -0.7183  0.4504  0.3930
  147SAPE  H11A16175   6.107   3.050  11.142 -0.3543  2.4062 -1.0179
  147SAPE  H11B16176   5.960   2.951  11.135 -0.2008  0.4043  0.9177
  147SAPE     P16177   6.014   3.250  10.966 -0.6598  0.0144  0.1121
  147SAPE   O1316178   5.958   3.360  11.041  0.4123 -0.5747  0.0116
  147SAPE   O1416179   6.156   3.229  10.962  0.0968 -0.5046 -0.8953
  147SAPE   O1216180   5.950   3.119  11.015 -0.2320  0.5630  0.1287
  147SAPE   O1116181   5.963   3.269  10.817 -0.5119  0.3146  0.4728
  147SAPE    C116182   5.828   3.216  10.780 -0.1869 -0.2954 -0.5746
  147SAPE    HA16183   5.758   3.207  10.865  0.2723 -1.7972 -0.3281
  147SAPE    HB16184   5.781   3.291  10.713  0.8796  1.4336  0.5873
  147SAPE    C216185   5.823   3.067  10.712  0.0804 -0.1080  0.6447
  147SAPE    HS16186   5.863   2.998  10.789  0.9584 -0.3694 -0.0362
  147SAPE   O2116187   5.901   3.069  10.588 -0.0813 -0.1093  0.1598
  147SAPE   C2116188   5.972   2.957  10.561 -0.3204  0.3836 -0.8105
  147SAPE   O2216189   5.994   2.867  10.639  0.0586 -0.6475 -0.7635
  147SAPE   C2216190   6.033   2.972  10.427 -0.0156 -0.8407 -0.0685
  147SAPE   H2R16191   5.960   3.032  10.368  1.1166  0.1039 -0.5390
  147SAPE   H2S16192   6.128   3.029  10.437  0.5303 -1.3586 -2.1145
  147SAPE    C316193   5.672   3.032  10.682 -0.2226  0.4685 -0.6439
  147SAPE    HX16194   5.628   3.107  10.613 -0.1963  2.3144  1.3190
  147SAPE    HY16195   5.624   3.040  10.781  1.7647 -0.2118  0.3999
  147SAPE   O3116196   5.661   2.897  10.632  0.0374  0.2866  0.3814
  147SAPE   C3116197   5.548   2.854  10.596  0.1059 -0.3386  1.2229
  147SAPE   O3216198   5.438   2.904  10.622  0.1550 -0.0036  0.0842
  147SAPE   C3216199   5.574   2.751  10.490 -0.6558 -0.2328  0.2415
  147SAPE   H2X16200   5.480   2.722  10.439 -0.3729  0.7380 -0.8467
  147SAPE   H2Y16201   5.628   2.671  10.546  1.9229  1.2799  0.0230
  147SAPE   C2316202   6.070   2.841  10.353 -0.2406 -0.2879 -0.3235
  147SAPE   H3R16203   5.986   2.768  10.361  0.9562 -2.0496 -2.8776
  147SAPE   H3S16204   6.160   2.787  10.391  0.6621  1.8746  0.6790
  147SAPE   C2416205   6.088   2.863  10.199  0.2666 -0.0526 -0.4453
  147SAPE   H4R16206   6.159   2.948  10.192  1.8257 -1.4106 -1.8404
  147SAPE   H4S16207   5.992   2.896  10.155  1.3337  3.4361 -0.3334
  147SAPE   C2516208   6.149   2.747  10.125  0.4115  0.3125 -0.5546
  147SAPE   H5R16209   6.200   2.662  10.173 -1.0280  0.7199  1.8329
  147SAPE   C2616210   6.145   2.745   9.991  0.0978 -0.3571 -0.1327
  147SAPE   H6R16211   6.166   2.650   9.940 -2.6126 -0.9010 -0.3019
  147SAPE   C2716212   6.089   2.847   9.887  0.0334 -0.0140 -0.4210
  147SAPE   H7R16213   6.163   2.920   9.846  0.0989 -0.1111 -0.4758
  147SAPE   H7S16214   6.019   2.917   9.939 -0.7121 -2.7872  2.4276
  147SAPE   C2816215   6.009   2.781   9.770 -1.2036 -0.6480 -0.4593
  147SAPE   H8R16216   5.932   2.709   9.802 -0.9154 -0.5663  0.4230
  147SAPE   C2916217   6.010   2.803   9.635 -0.0847 -0.1816 -0.0559
  147SAPE   H9R16218   5.932   2.761   9.569 -0.9926  1.5477 -0.1150
  147SAPE  C21016219   6.105   2.898   9.572 -0.8109 -0.3740 -0.4008
  147SAPE  H10R16220   6.185   2.934   9.640 -0.7474 -1.9332  0.3714
  147SAPE  H10S16221   6.062   2.994   9.537 -0.0692  0.1031 -0.0052
  147SAPE  C21116222   6.189   2.834   9.471 -0.1506 -0.0390 -0.3672
  147SAPE  H11R16223   6.277   2.781   9.509 -1.3762  0.4961  3.4309
  147SAPE  C21216224   6.184   2.858   9.340  0.4551 -0.5260 -0.0477
  147SAPE  H12R16225   6.260   2.807   9.278 -0.8964 -0.0536 -2.1341
  147SAPE  C21316226   6.089   2.946   9.264 -0.5110 -0.8632 -0.5274
  147SAPE  H13R16227   6.066   3.040   9.319  1.7777  0.0291 -1.0339
  147SAPE  H13S16228   5.996   2.890   9.240  0.3999 -4.4693  3.6108
  147SAPE  C21416229   6.151   2.996   9.135  0.5092 -0.3813  0.5991
  147SAPE  H14R16230   6.261   2.995   9.142  0.7326 -1.3753 -2.6364
  147SAPE  C21516231   6.090   3.042   9.016 -0.1502  0.5984 -0.6347
  147SAPE  H15R16232   6.139   3.059   8.919 -1.1814 -3.1286 -1.9006
  147SAPE  C21616233   5.946   3.062   9.007  0.4778  0.4026  0.4709
  147SAPE  H16R16234   5.925   3.166   9.039  1.6217  0.1752  2.0264
  147SAPE  H16S16235   5.896   2.999   9.084  2.5459  0.8036  2.1957
  147SAPE  C21716236   5.869   3.034   8.876  0.1420  0.3387 -0.0414
  147SAPE  H17R16237   5.761   3.018   8.896 -0.1192 -2.8305 -3.3401
  147SAPE  H17S16238   5.901   2.932   8.844  1.6918  0.2357  1.7039
  147SAPE  C21816239   5.886   3.135   8.774 -0.2457 -0.1846  0.4345
  147SAPE  H18R16240   5.992   3.168   8.765 -0.2884  0.0276  0.7125
  147SAPE  H18S16241   5.833   3.226   8.807  2.1399  1.8443 -1.1512
  147SAPE  C21916242   5.848   3.083   8.632 -0.2664  0.1382 -0.4491
  147SAPE  H19R16243   5.748   3.036   8.642  0.1599 -0.9726 -1.2907
  147SAPE  H19S16244   5.915   3.000   8.599 -0.8356  0.0037 -1.2889
  147SAPE  C22016245   5.849   3.191   8.527  0.3542 -0.2771 -0.4223
  147SAPE  H20R16246   5.814   3.147   8.431  4.6880 -1.5053 -1.5500
  147SAPE  H20S16247   5.953   3.228   8.522  0.1427  0.7436  2.0186
  147SAPE  H20T16248   5.787   3.277   8.561  2.0237  0.9874 -0.5173
  147SAPE   C3316249   5.660   2.813  10.378 -0.3732  0.0625  0.7750
  147SAPE   H3X16250   5.716   2.729  10.333 -1.1540 -0.2620  0.4007
  147SAPE   H3Y16251   5.742   2.880  10.413  0.3325  1.4759 -3.3352
  147SAPE   C3416252   5.576   2.900  10.277  0.0649  0.0148  0.0083
  147SAPE   H4X16253   5.527   2.984  10.330  1.5528  1.0739 -0.2509
  147SAPE   H4Y16254   5.498   2.837  10.231  0.0098 -1.6968  2.3828
  147SAPE   C3516255   5.681   2.956  10.176 -0.2007 -0.0794 -0.8349
  147SAPE   H5X16256   5.747   2.875  10.139  2.6507  1.7248  0.1899
  147SAPE   H5Y16257   5.752   3.017  10.235 -1.0805  0.3671 -0.2251
  147SAPE   C3616258   5.625   3.023  10.048 -0.3735 -0.1286 -0.1282
  147SAPE   H6X16259   5.580   3.123  10.068  0.4249 -0.0641  1.3652
  147SAPE   H6Y16260   5.542   2.960  10.011 -1.1739  0.7217  0.1973
  147SAPE   C3716261   5.724   3.042   9.939 -0.1666 -0.1846 -0.3784
  147SAPE   H7X16262   5.676   3.070   9.843 -1.4217  4.2466  1.4215
  147SAPE   H7Y16263   5.767   2.941   9.919 -1.0093 -0.4393 -0.9141
  147SAPE   C3816264   5.838   3.140   9.980  0.2782  0.1848 -0.0550
  147SAPE   H8X16265   5.897   3.094  10.062  0.4163  1.0254  0.3205
  147SAPE   H8Y16266   5.785   3.219  10.038 -1.6249 -1.5361  0.6165
  147SAPE   C3916267   5.921   3.191   9.870 -0.5312  0.2401  0.2731
  147SAPE   H9X16268   5.864   3.254   9.798  0.7483  2.2248  0.9564
  147SAPE   H9Y16269   5.954   3.111   9.800 -0.4274  1.3463 -0.9492
  147SAPE  C31016270   6.044   3.276   9.917  0.1489 -0.1465 -0.1863
  147SAPE  H10X16271   6.111   3.206   9.972  0.8340  1.6136  1.2592
  147SAPE  H10Y16272   6.003   3.352   9.987  0.2810 -1.0385  0.8726
  147SAPE  C31116273   6.124   3.355   9.810 -0.0686 -0.1709  0.6784
  147SAPE  H11X16274   6.204   3.418   9.854  2.2558 -3.3519  1.2371
  147SAPE  H11Y16275   6.056   3.429   9.763 -0.5664 -0.9312  0.1968
  147SAPE  C31216276   6.184   3.267   9.700  1.6836  0.8042 -0.2393
  147SAPE  H12X16277   6.097   3.217   9.652  0.2840  0.8908  2.1338
  147SAPE  H12Y16278   6.241   3.183   9.746 -0.9970 -1.1775 -0.4341
  147SAPE  C31316279   6.267   3.350   9.599  0.7376 -0.2468  0.2537
  147SAPE  H13X16280   6.318   3.431   9.654 -0.5681  1.9436 -1.6683
  147SAPE  H13Y16281   6.190   3.409   9.545  0.6623 -0.5163  0.0638
  147SAPE  C31416282   6.345   3.251   9.506  0.2801 -0.1620  0.1892
  147SAPE  H14X16283   6.277   3.170   9.474  1.6814 -2.5298  3.0640
  147SAPE  H14Y16284   6.417   3.203   9.575 -1.2982  0.8952  2.6063
  147SAPE  C31516285   6.426   3.312   9.394 -0.2313 -0.3571  0.5555
  147SAPE  H15X16286   6.509   3.244   9.365  0.0400 -0.4106  1.4593
  147SAPE  H15Y16287   6.473   3.405   9.433  0.6548 -0.0057 -1.3003
  147SAPE  C31616288   6.335   3.349   9.280 -0.2176  0.2617  0.1156
  147SAPE  H16X16289   6.245   3.406   9.313 -0.6571 -0.9024  0.9598
  147SAPE  H16Y16290   6.303   3.255   9.230  1.8861 -0.7414  0.6035
  147SAPE  C31716291   6.388   3.427   9.152  0.6323  0.0319 -0.3484
  147SAPE  H17X16292   6.450   3.516   9.175  0.3611  0.1445 -0.0447
  147SAPE  H17Y16293   6.306   3.469   9.090 -0.9034 -1.3465  0.6977
  147SAPE  C31816294   6.470   3.330   9.063 -0.7597 -0.4039  0.0203
  147SAPE  H18X16295   6.561   3.316   9.127 -0.3178  5.3777  0.9479
  147SAPE  H18Y16296   6.505   3.370   8.965 -0.9918  0.8393  0.4377
  147SAPE  H18Z16297   6.420   3.233   9.046 -0.5581 -0.3687 -0.7833
  148SAPE     N16298   0.981   5.422  10.654 -0.4926  0.1250  0.2372
  148SAPE   HN116299   0.943   5.470  10.738 -0.7470 -2.1208  1.4452
  148SAPE   HN216300   1.051   5.357  10.695 -0.2663  1.0371  1.3124
  148SAPE   HN316301   1.015   5.488  10.581 -1.0458 -0.3583 -0.4598
  148SAPE   C1216302   0.871   5.329  10.615  0.1498 -0.1892  0.5134
  148SAPE  H12A16303   0.839   5.278  10.709 -0.3221 -1.0740 -0.1136
  148SAPE  H12B16304   0.912   5.259  10.539 -1.9416  0.2590 -1.0681
  148SAPE   C1116305   0.751   5.405  10.562 -0.0087 -1.1496 -0.7376
  148SAPE  H11A16306   0.670   5.330  10.548 -0.4512 -1.0431  1.1107
  148SAPE  H11B16307   0.784   5.438  10.461 -0.9611  0.6564 -0.4625
  148SAPE     P16308   0.585   5.602  10.638  0.3658 -0.0308  0.0175
  148SAPE   O1316309   0.491   5.572  10.747  0.4875 -0.2342  0.4347
  148SAPE   O1416310   0.641   5.738  10.644  0.1277 -0.5629  0.3394
  148SAPE   O1216311   0.713   5.508  10.652 -0.1376 -0.0752 -0.2237
  148SAPE   O1116312   0.502   5.577  10.499 -0.4916  0.5000  0.1769
  148SAPE    C116313   0.410   5.472  10.500  0.5396 -0.3540 -0.3201
  148SAPE    HA16314   0.463   5.375  10.509  0.6739 -0.2296  0.2538
  148SAPE    HB16315   0.345   5.476  10.590  2.6681 -0.7667  1.2556
  148SAPE    C216316   0.307   5.464  10.381 -0.1014  0.2191  0.4693
  148SAPE    HS16317   0.260   5.364  10.381  0.2900 -0.0316 -2.9061
  148SAPE   O2116318   0.382   5.467  10.256 -0.4667 -0.1997  0.4308
  148SAPE   C2116319   0.472   5.376  10.234  0.6519 -0.0733  0.7210
  148SAPE   O2216320   0.506   5.283  10.304  0.4322 -0.0317  0.0404
  148SAPE   C2216321   0.528   5.387  10.085  0.4537  0.3089 -0.1458
  148SAPE   H2R16322   0.640   5.385  10.087  0.5373  1.7329 -2.1188
  148SAPE   H2S16323   0.489   5.300  10.029  2.2040 -1.7720  1.7651
  148SAPE    C316324   0.195   5.573  10.402  0.1049  0.4560 -1.0172
  148SAPE    HX16325   0.249   5.667  10.427  2.3513 -0.8698 -0.7874
  148SAPE    HY16326   0.138   5.548  10.494 -0.0671 -0.5952 -1.4081
  148SAPE   O3116327   0.108   5.597  10.288  0.4491  0.0961 -0.0261
  148SAPE   C3116328   0.036   5.490  10.255  0.9141 -0.0919  0.3382
  148SAPE   O3216329   0.037   5.381  10.307  0.6269 -0.0051 -0.3333
  148SAPE   C3216330  -0.067   5.525  10.143  0.2442 -0.2128  0.3872
  148SAPE   H2X16331  -0.141   5.584  10.202  0.2775  0.2948 -0.0666
  148SAPE   H2Y16332  -0.116   5.433  10.104  0.1539 -0.5625  1.3147
  148SAPE   C2316333   0.493   5.524  10.018 -0.0660  0.5221  0.0747
  148SAPE   H3R16334   0.528   5.601  10.090  1.1216 -0.3816  0.4836
  148SAPE   H3S16335   0.384   5.538  10.000  0.0520  1.6260  0.1954
  148SAPE   C2416336   0.571   5.566   9.886  0.1493 -0.4325 -0.2455
  148SAPE   H4R16337   0.679   5.571   9.913  0.1778  0.8308 -0.5472
  148SAPE   H4S16338   0.541   5.669   9.859  1.5722  0.0931  0.1217
  148SAPE   C2516339   0.561   5.451   9.797  0.0518 -0.5600  0.4333
  148SAPE   H5R16340   0.588   5.354   9.840  0.6135 -0.3751  0.5091
  148SAPE   C2616341   0.537   5.453   9.664  0.0801 -0.4490 -0.5948
  148SAPE   H6R16342   0.513   5.360   9.610 -2.4666 -0.4614  0.4904
  148SAPE   C2716343   0.515   5.579   9.590 -0.4402 -0.4834 -0.0416
  148SAPE   H7R16344   0.564   5.665   9.639 -2.2662  0.8062 -0.4256
  148SAPE   H7S16345   0.409   5.611   9.595 -1.1850 -2.8282  0.0313
  148SAPE   C2816346   0.578   5.566   9.453 -0.5857 -0.1208  0.3550
  148SAPE   H8R16347   0.682   5.532   9.453 -0.6153 -0.4016 -3.0135
  148SAPE   C2916348   0.517   5.569   9.332  0.1342 -0.4154 -0.1813
  148SAPE   H9R16349   0.571   5.525   9.248  0.2866  0.0498 -0.3301
  148SAPE  C21016350   0.380   5.607   9.297  0.3758  0.3035 -0.1958
  148SAPE  H10R16351   0.388   5.667   9.203 -0.3147 -1.0014 -1.0956
  148SAPE  H10S16352   0.337   5.685   9.363 -2.7363 -0.1228 -1.6302
  148SAPE  C21116353   0.279   5.493   9.276 -0.3178  0.1554  0.2357
  148SAPE  H11R16354   0.229   5.465   9.370  1.6452  1.9606  1.8718
  148SAPE  C21216355   0.245   5.432   9.165  0.1803  0.4805  0.4241
  148SAPE  H12R16356   0.179   5.346   9.184  0.1425  0.0089 -1.6693
  148SAPE  C21316357   0.302   5.455   9.026  0.8182 -0.7056  0.1442
  148SAPE  H13R16358   0.354   5.366   8.984  2.1118  1.1221 -2.3099
  148SAPE  H13S16359   0.378   5.535   9.033  0.9814 -0.9725  1.4384
  148SAPE  C21416360   0.195   5.517   8.930  0.3109  0.0736 -0.3274
  148SAPE  H14R16361   0.193   5.626   8.922 -0.9373 -0.0644 -2.0651
  148SAPE  C21516362   0.103   5.451   8.859 -0.1004  0.2894  0.6516
  148SAPE  H15R16363   0.030   5.511   8.801  0.7696 -0.9367 -1.7981
  148SAPE  C21616364   0.088   5.301   8.847  1.0432 -0.2994  0.6704
  148SAPE  H16R16365  -0.021   5.287   8.838  0.8732  0.8770  0.7781
  148SAPE  H16S16366   0.115   5.253   8.944  0.9085  1.4127  1.5714
  148SAPE  C21716367   0.161   5.228   8.736  0.7363  0.1949  0.0428
  148SAPE  H17R16368   0.270   5.244   8.741  0.3112  3.0888  1.0746
  148SAPE  H17S16369   0.135   5.269   8.636  0.6184  1.3000  0.5284
  148SAPE  C21816370   0.124   5.079   8.740 -0.0277 -0.2987  0.1761
  148SAPE  H18R16371   0.126   5.051   8.848 -3.6830  1.2355  0.7007
  148SAPE  H18S16372   0.208   5.027   8.690 -0.0557  0.2340 -0.4221
  148SAPE  C21916373  -0.001   5.051   8.666  0.6563 -0.4094  0.5584
  148SAPE  H19R16374   0.002   5.061   8.555 -0.8616  0.2093  0.5569
  148SAPE  H19S16375  -0.075   5.129   8.694  0.7379  0.6167 -1.9573
  148SAPE  C22016376  -0.053   4.911   8.703  0.4768 -0.3725 -0.5918
  148SAPE  H20R16377   0.024   4.831   8.705  1.0728  0.2129  0.3341
  148SAPE  H20S16378  -0.129   4.882   8.627  2.0698 -1.8708 -1.6777
  148SAPE  H20T16379  -0.109   4.905   8.798 -0.3667 -1.5395 -1.1503
  148SAPE   C3316380  -0.012   5.603  10.026 -0.2277 -0.2916 -0.4153
  148SAPE   H3X16381   0.038   5.699  10.052  0.3864 -0.3860 -1.2301
  148SAPE   H3Y16382  -0.101   5.624   9.963  1.8730 -0.1066 -3.4400
  148SAPE   C3416383   0.077   5.523   9.926 -0.1545  0.0057  0.4760
  148SAPE   H4X16384   0.032   5.428   9.890 -0.1793 -0.7434  2.4341
  148SAPE   H4Y16385   0.172   5.485   9.970 -0.1388 -1.4783 -0.7976
  148SAPE   C3516386   0.114   5.600   9.800  0.3276  0.0111 -0.1647
  148SAPE   H5X16387   0.192   5.540   9.747 -0.6729 -1.7011  0.2747
  148SAPE   H5Y16388   0.151   5.701   9.830  0.7631 -1.0143  2.8212
  148SAPE   C3616389   0.005   5.618   9.696 -0.1058 -0.4710  0.2112
  148SAPE   H6X16390  -0.068   5.692   9.735  1.4572  0.2245  1.8874
  148SAPE   H6Y16391  -0.048   5.524   9.667 -0.3949 -0.0576 -0.6035
  148SAPE   C3716392   0.053   5.675   9.558 -0.0791  0.1248 -0.6464
  148SAPE   H7X16393   0.107   5.591   9.509  0.5469  0.2565 -0.1937
  148SAPE   H7Y16394   0.112   5.768   9.567  0.2468 -0.1811  0.4172
  148SAPE   C3816395  -0.060   5.697   9.455 -0.8481  0.3442  0.5098
  148SAPE   H8X16396  -0.117   5.788   9.483 -0.2341  1.0318 -0.4632
  148SAPE   H8Y16397  -0.126   5.609   9.441 -1.0321  0.5961 -0.1960
  148SAPE   C3916398  -0.006   5.720   9.318 -0.0845 -0.3509  0.1010
  148SAPE   H9X16399   0.075   5.651   9.287  1.8002  0.5683  2.8567
  148SAPE   H9Y16400   0.054   5.813   9.332  2.7938 -2.0317 -0.6773
  148SAPE  C31016401  -0.112   5.725   9.206  0.6472 -0.2467 -0.2425
  148SAPE  H10X16402  -0.206   5.776   9.234 -1.0314 -0.5527 -4.8684
  148SAPE  H10Y16403  -0.138   5.619   9.186 -0.3700  0.2217 -1.4295
  148SAPE  C31116404  -0.073   5.791   9.083  0.3149  0.1949  0.6541
  148SAPE  H11X16405  -0.106   5.728   8.997  1.1486  1.5866 -0.7112
  148SAPE  H11Y16406   0.037   5.784   9.072  0.3775  3.2833 -1.2708
  148SAPE  C31216407  -0.123   5.930   9.063  0.0434 -0.3607  0.2744
  148SAPE  H12X16408  -0.160   5.975   9.158 -0.6066  0.5792 -0.4147
  148SAPE  H12Y16409  -0.208   5.932   8.991  0.6278  1.3343 -0.4039
  148SAPE  C31316410  -0.018   6.026   9.016 -0.1917  0.0029 -0.2232
  148SAPE  H13X16411   0.073   6.028   9.080 -0.1901  0.4649 -0.2347
  148SAPE  H13Y16412  -0.049   6.133   9.015 -4.5685 -1.1443  1.9951
  148SAPE  C31416413   0.033   6.004   8.867 -0.1284 -0.3114 -0.2371
  148SAPE  H14X16414  -0.052   6.010   8.796 -0.7142 -3.4393  0.1203
  148SAPE  H14Y16415   0.086   5.906   8.858 -0.9509 -1.0544  2.6255
  148SAPE  C31516416   0.129   6.111   8.819 -0.1309 -0.6965 -0.7889
  148SAPE  H15X16417   0.215   6.113   8.889 -0.7451  0.2022 -0.0620
  148SAPE  H15Y16418   0.092   6.215   8.832 -0.5416 -1.1682  1.9632
  148SAPE  C31616419   0.167   6.091   8.674  0.3623 -0.3835  0.7525
  148SAPE  H16X16420   0.078   6.063   8.614 -0.7809  0.3447  2.0791
  148SAPE  H16Y16421   0.235   6.004   8.658  0.4867  0.4068 -3.4828
  148SAPE  C31716422   0.231   6.214   8.602  0.0096  0.2777 -0.3931
  148SAPE  H17X16423   0.158   6.295   8.624 -1.0405 -1.4153  2.6908
  148SAPE  H17Y16424   0.254   6.197   8.495 -1.2253  2.3700 -1.0314
  148SAPE  C31816425   0.365   6.252   8.667  0.4630  0.0958  0.0258
  148SAPE  H18X16426   0.442   6.184   8.626  0.1447  1.4889 -2.9811
  148SAPE  H18Y16427   0.376   6.251   8.778  0.0365 -0.2718  0.0678
  148SAPE  H18Z16428   0.409   6.349   8.635 -0.5038  0.6661  0.3593
  149SAPE     N16429   3.775   1.338  10.996 -0.1736 -0.7539  0.7222
  149SAPE   HN116430   3.852   1.282  11.039  0.9253  0.2054  0.0281
  149SAPE   HN216431   3.790   1.439  11.012 -3.8317 -0.2891  1.6825
  149SAPE   HN316432   3.684   1.315  11.041 -1.6135  2.1757 -0.5241
  149SAPE   C1216433   3.772   1.313  10.849 -0.4832 -0.3825 -0.9421
  149SAPE  H12A16434   3.870   1.354  10.816 -0.6932  0.6371 -0.3386
  149SAPE  H12B16435   3.691   1.373  10.801  0.2195 -0.1723 -1.8735
  149SAPE   C1116436   3.765   1.164  10.831  0.3855  0.8385 -0.0904
  149SAPE  H11A16437   3.857   1.124  10.880  1.3459 -0.0872 -2.5906
  149SAPE  H11B16438   3.762   1.134  10.725  1.4032  1.6720 -0.3618
  149SAPE     P16439   3.506   1.140  10.870 -0.1922  0.0314 -0.4646
  149SAPE   O1316440   3.426   1.039  10.945  0.0046  0.1448 -0.0834
  149SAPE   O1416441   3.470   1.283  10.886 -0.0574  0.4848  0.3010
  149SAPE   O1216442   3.657   1.116  10.905 -0.2849  0.4148  0.8872
  149SAPE   O1116443   3.512   1.112  10.716  0.0890  0.3928  0.5430
  149SAPE    C116444   3.513   0.974  10.665 -0.4360  0.5393  0.5920
  149SAPE    HA16445   3.603   0.921  10.704  0.4666 -0.5840 -2.8723
  149SAPE    HB16446   3.417   0.928  10.696  0.0458 -1.9770 -1.5279
  149SAPE    C216447   3.535   0.979  10.513 -0.1207  0.6924  0.4586
  149SAPE    HS16448   3.474   1.065  10.479 -0.6551  0.5070  0.9553
  149SAPE   O2116449   3.511   0.855  10.443 -0.2274  0.1386  0.0955
  149SAPE   C2116450   3.390   0.812  10.443  0.4871 -0.0067  0.3216
  149SAPE   O2216451   3.290   0.870  10.480  0.2110 -0.3329  0.1099
  149SAPE   C2216452   3.373   0.680  10.360 -0.7840 -0.3295  0.0331
  149SAPE   H2R16453   3.438   0.613  10.421 -0.1928  0.1267 -0.0855
  149SAPE   H2S16454   3.268   0.647  10.371 -0.5155 -0.9839  0.7079
  149SAPE    C316455   3.681   1.035  10.483  1.2741  0.5908 -0.7043
  149SAPE    HX16456   3.762   0.989  10.543 -0.1669  1.8598  2.2823
  149SAPE    HY16457   3.680   1.142  10.514  0.1544  0.2572  0.4191
  149SAPE   O3116458   3.709   1.042  10.340  0.1674  0.1515 -0.4109
  149SAPE   C3116459   3.779   0.942  10.288  0.3923 -0.0277  0.5881
  149SAPE   O3216460   3.820   0.845  10.343  0.3113  0.1077  0.4487
  149SAPE   C3216461   3.790   0.961  10.139 -0.9014  0.4729  0.1311
  149SAPE   H2X16462   3.886   1.015  10.125 -0.9136  0.5786  0.4530
  149SAPE   H2Y16463   3.732   1.048  10.102  0.5736  1.7801  0.8087
  149SAPE   C2316464   3.420   0.683  10.213  0.1845 -0.1138 -0.4837
  149SAPE   H3R16465   3.522   0.729  10.212 -0.2900  0.9632 -2.6456
  149SAPE   H3S16466   3.363   0.751  10.146 -0.6901 -1.1660 -0.8254
  149SAPE   C2416467   3.418   0.548  10.147  0.1323  0.6127 -0.2224
  149SAPE   H4R16468   3.472   0.479  10.216 -0.2201  1.1927  0.6483
  149SAPE   H4S16469   3.481   0.528  10.058  1.0399  0.4120  0.4492
  149SAPE   C2516470   3.279   0.496  10.124  0.4513  0.1171  0.5368
  149SAPE   H5R16471   3.218   0.485  10.215  0.7367 -1.6282  0.5355
  149SAPE   C2616472   3.234   0.445  10.006 -0.2670  0.5360 -0.5638
  149SAPE   H6R16473   3.127   0.420   9.998 -0.5777  1.6807 -0.1706
  149SAPE   C2716474   3.294   0.441   9.870  0.0869 -0.4740 -0.0355
  149SAPE   H7R16475   3.405   0.431   9.867  0.1653 -0.0416  1.1696
  149SAPE   H7S16476   3.269   0.529   9.808  0.4299 -0.3343  0.0231
  149SAPE   C2816477   3.248   0.318   9.797 -0.2875 -0.1706  0.0136
  149SAPE   H8R16478   3.224   0.236   9.867 -1.9325 -0.9453 -1.4156
  149SAPE   C2916479   3.212   0.304   9.672  0.2851 -0.2327 -0.5189
  149SAPE   H9R16480   3.171   0.210   9.632  0.5465  0.1520 -1.7097
  149SAPE  C21016481   3.223   0.416   9.582  0.4609 -0.2246  0.5729
  149SAPE  H10R16482   3.269   0.388   9.484 -1.2281 -0.3782 -0.1795
  149SAPE  H10S16483   3.298   0.492   9.615 -0.4934  0.7175  0.6100
  149SAPE  C21116484   3.092   0.496   9.563 -0.6358 -0.7302  0.2882
  149SAPE  H11R16485   3.036   0.546   9.644  2.2888  0.5708  1.5528
  149SAPE  C21216486   3.026   0.511   9.446 -0.1126 -0.2144 -0.3204
  149SAPE  H12R16487   2.931   0.566   9.453  0.4471  0.6825  0.4088
  149SAPE  C21316488   3.073   0.452   9.314 -0.0647  0.6626 -0.3767
  149SAPE  H13R16489   3.114   0.353   9.341  1.3340  1.3729  0.1201
  149SAPE  H13S16490   3.163   0.508   9.281  0.3356 -0.0207 -0.4434
  149SAPE  C21416491   2.971   0.433   9.205 -0.4340 -0.1449 -0.8468
  149SAPE  H14R16492   2.877   0.386   9.238  0.0795 -0.4591  0.1778
  149SAPE  C21516493   2.986   0.457   9.078 -0.3485 -0.3215  1.0575
  149SAPE  H15R16494   2.895   0.455   9.016 -0.6328  1.8517  1.3626
  149SAPE  C21616495   3.114   0.501   9.018 -0.6304 -0.3496  0.3975
  149SAPE  H16R16496   3.130   0.430   8.935  0.7862  0.1441  0.2325
  149SAPE  H16S16497   3.208   0.496   9.079  2.7722 -3.0109 -4.7288
  149SAPE  C21716498   3.118   0.646   8.963  0.3429 -0.0850  0.6891
  149SAPE  H17R16499   3.221   0.672   8.930 -0.4072  2.4572  0.1808
  149SAPE  H17S16500   3.101   0.713   9.050  0.7569  0.3947  0.4052
  149SAPE  C21816501   3.019   0.681   8.851  0.3851 -0.1629 -0.6272
  149SAPE  H18R16502   2.931   0.615   8.865  0.8423 -0.6323  0.0986
  149SAPE  H18S16503   3.052   0.655   8.748 -0.6047  2.2847 -1.6105
  149SAPE  C21916504   2.969   0.828   8.858 -0.7306  0.6862  0.2144
  149SAPE  H19R16505   3.053   0.900   8.859 -0.6479  0.6800 -2.3779
  149SAPE  H19S16506   2.902   0.837   8.946 -0.2371 -2.7828  1.0253
  149SAPE  C22016507   2.894   0.858   8.728 -0.2545 -0.1945 -0.4989
  149SAPE  H20R16508   2.971   0.874   8.649 -0.5601 -0.9192 -0.9518
  149SAPE  H20S16509   2.832   0.950   8.734 -1.2556 -0.7305 -2.2230
  149SAPE  H20T16510   2.821   0.779   8.699  2.5632 -2.9667 -0.3888
  149SAPE   C3316511   3.779   0.833  10.057 -0.3397 -0.3731  0.2109
  149SAPE   H3X16512   3.677   0.795  10.078  0.2482 -1.1668  1.7281
  149SAPE   H3Y16513   3.863   0.763  10.076 -0.4447 -0.6179 -0.2058
  149SAPE   C3416514   3.778   0.851   9.902 -0.7618  0.0953 -0.4630
  149SAPE   H4X16515   3.850   0.930   9.871 -0.7889  0.1495 -0.3896
  149SAPE   H4Y16516   3.681   0.897   9.872 -0.4771  0.8777 -0.1975
  149SAPE   C3516517   3.794   0.727   9.817  0.3236 -0.4714 -0.8428
  149SAPE   H5X16518   3.760   0.639   9.877 -1.0742 -0.2733 -1.3097
  149SAPE   H5Y16519   3.901   0.716   9.791  0.8353  1.1071  0.5396
  149SAPE   C3616520   3.713   0.735   9.688 -0.4921  0.1222  0.1526
  149SAPE   H6X16521   3.722   0.840   9.650 -1.2212 -0.3388 -1.3542
  149SAPE   H6Y16522   3.603   0.721   9.694 -0.4564 -1.7969 -2.7531
  149SAPE   C3716523   3.773   0.652   9.577 -0.6668  0.1063 -0.3955
  149SAPE   H7X16524   3.756   0.544   9.600  0.8404 -0.0557  0.0033
  149SAPE   H7Y16525   3.883   0.661   9.567 -0.6157 -1.3302 -1.2920
  149SAPE   C3816526   3.704   0.686   9.448 -0.2276 -0.0624  0.0490
  149SAPE   H8X16527   3.738   0.786   9.413 -0.4071  0.5308  1.5464
  149SAPE   H8Y16528   3.596   0.700   9.473 -1.2797  0.0642 -4.0982
  149SAPE   C3916529   3.706   0.578   9.341 -0.4788  0.2535 -0.6822
  149SAPE   H9X16530   3.680   0.483   9.392 -1.5651  0.1875 -1.3386
  149SAPE   H9Y16531   3.812   0.559   9.311  0.3332 -0.4877  2.4527
  149SAPE  C31016532   3.618   0.618   9.228 -0.0240  0.3524 -0.4376
  149SAPE  H10X16533   3.627   0.727   9.204  0.3873  0.1762 -1.0912
  149SAPE  H10Y16534   3.508   0.615   9.245 -0.4034  0.0372 -2.8142
  149SAPE  C31116535   3.647   0.527   9.107 -0.0284 -0.3389 -0.2250
  149SAPE  H11X16536   3.685   0.427   9.136  0.0521 -0.4048 -0.5504
  149SAPE  H11Y16537   3.731   0.567   9.046  0.5867 -1.8721 -0.4092
  149SAPE  C31216538   3.529   0.522   9.014  0.3851 -0.3970  0.4783
  149SAPE  H12X16539   3.464   0.612   9.011  1.6203  0.4890 -0.1527
  149SAPE  H12Y16540   3.452   0.444   9.033  0.2863  0.2942  3.0517
  149SAPE  C31316541   3.574   0.520   8.861 -0.1762  0.0140 -0.0383
  149SAPE  H13X16542   3.626   0.422   8.853  3.2960  1.6991  0.7301
  149SAPE  H13Y16543   3.641   0.608   8.849  1.3111 -1.2666 -1.2667
  149SAPE  C31416544   3.464   0.536   8.747 -0.0474 -0.6090  0.4611
  149SAPE  H14X16545   3.514   0.552   8.649  2.2660 -1.0188  1.5408
  149SAPE  H14Y16546   3.404   0.628   8.768 -0.1401 -0.0468 -2.1076
  149SAPE  C31516547   3.379   0.409   8.723  0.0902  0.2563  0.4030
  149SAPE  H15X16548   3.288   0.431   8.664  0.6628  0.0936 -0.5536
  149SAPE  H15Y16549   3.330   0.381   8.819 -2.0165  1.2535 -0.3598
  149SAPE  C31616550   3.442   0.292   8.643  0.4550 -0.8226 -0.2759
  149SAPE  H16X16551   3.484   0.332   8.549 -0.3476 -3.8465 -1.9961
  149SAPE  H16Y16552   3.363   0.224   8.606 -1.1075  1.3701 -1.0799
  149SAPE  C31716553   3.549   0.213   8.717  0.0223 -0.7806  0.1715
  149SAPE  H17X16554   3.521   0.215   8.824  0.0177  0.1481  0.1572
  149SAPE  H17Y16555   3.649   0.261   8.709 -0.6780  0.9424  1.3648
  149SAPE  C31816556   3.570   0.071   8.679  0.2349  0.1804  0.4209
  149SAPE  H18X16557   3.645   0.027   8.748 -2.1356 -1.0885  2.2974
  149SAPE  H18Y16558   3.615   0.073   8.578 -2.3499  1.0921 -0.7725
  149SAPE  H18Z16559   3.473   0.017   8.683  0.8310 -0.9002  0.5144
  150SAPE     N16560   4.561   0.497  10.789  0.1244  0.4402 -0.5972
  150SAPE   HN116561   4.628   0.540  10.722  0.0373  2.3471  0.5116
  150SAPE   HN216562   4.539   0.585  10.839  1.4710  1.0937 -1.1243
  150SAPE   HN316563   4.602   0.431  10.859 -1.3641 -0.0913 -0.2172
  150SAPE   C1216564   4.437   0.442  10.721  0.1772  0.6512 -0.2747
  150SAPE  H12A16565   4.452   0.341  10.679 -4.1465 -0.1759 -0.0835
  150SAPE  H12B16566   4.413   0.519  10.644  0.2199 -1.2742 -2.2754
  150SAPE   C1116567   4.308   0.436  10.807  0.4935 -0.0942 -0.6014
  150SAPE  H11A16568   4.212   0.433  10.752 -0.7411  1.0314  1.4336
  150SAPE  H11B16569   4.292   0.525  10.871  0.2912 -1.0521  0.7129
  150SAPE     P16570   4.256   0.178  10.866  0.0112  0.0517 -0.1115
  150SAPE   O1316571   4.354   0.081  10.914  0.0243  0.2958 -0.2902
  150SAPE   O1416572   4.113   0.167  10.918 -0.0331  0.1765  0.0866
  150SAPE   O1216573   4.316   0.326  10.895  0.2102  0.0919  0.6335
  150SAPE   O1116574   4.254   0.168  10.709  0.1494 -0.3172  0.0993
  150SAPE    C116575   4.189   0.055  10.657  0.1986  0.0778  0.7628
  150SAPE    HA16576   4.247  -0.034  10.691  0.8186 -0.3561 -1.3290
  150SAPE    HB16577   4.085   0.059  10.695  0.2025  1.5254  0.6457
  150SAPE    C216578   4.188   0.048  10.500  0.1747  0.2469 -0.3058
  150SAPE    HS16579   4.107  -0.021  10.469 -0.5827  0.6960  0.6556
  150SAPE   O2116580   4.320  -0.007  10.459  0.2076  0.2271 -0.5788
  150SAPE   C2116581   4.332  -0.133  10.476  0.3570 -0.5146  0.8869
  150SAPE   O2216582   4.243  -0.204  10.514 -0.4347 -0.2527 -0.4534
  150SAPE   C2216583   4.469  -0.176  10.428  0.5342  0.1063  0.0609
  150SAPE   H2R16584   4.509  -0.103  10.354 -1.1656 -1.7020 -2.7211
  150SAPE   H2S16585   4.538  -0.171  10.515  2.4798  5.2720 -1.6207
  150SAPE    C316586   4.173   0.188  10.446 -0.1892  0.3476 -0.4495
  150SAPE    HX16587   4.254   0.250  10.489  1.1410  0.0927 -2.5302
  150SAPE    HY16588   4.073   0.234  10.463 -0.2938 -0.6100  1.7471
  150SAPE   O3116589   4.180   0.181  10.300  0.5218 -0.2791 -0.5631
  150SAPE   C3116590   4.291   0.238  10.247 -0.7741 -0.6230  0.5919
  150SAPE   O3216591   4.371   0.309  10.303 -0.1280  0.3554 -0.3106
  150SAPE   C3216592   4.289   0.215  10.096  0.8657  0.1869  0.2998
  150SAPE   H2X16593   4.228   0.288  10.039  3.3607  1.3387 -0.9434
  150SAPE   H2Y16594   4.251   0.114  10.066  2.3408 -0.2326 -0.1940
  150SAPE   C2316595   4.448  -0.309  10.357  0.0265 -0.2566 -0.2679
  150SAPE   H3R16596   4.408  -0.391  10.420  1.2049 -2.9464 -2.8756
  150SAPE   H3S16597   4.548  -0.353  10.333  0.7705  1.2076  0.1058
  150SAPE   C2416598   4.364  -0.306  10.227 -0.0384 -0.1541  0.2928
  150SAPE   H4R16599   4.256  -0.297  10.253 -0.0603  0.6687 -0.0676
  150SAPE   H4S16600   4.369  -0.410  10.189  0.1680  0.2407 -0.7643
  150SAPE   C2516601   4.389  -0.195  10.129 -0.3544 -0.3100 -0.1533
  150SAPE   H5R16602   4.359  -0.096  10.164  0.8586  0.1573 -0.4085
  150SAPE   C2616603   4.443  -0.206  10.008 -0.0163  0.0105  0.3714
  150SAPE   H6R16604   4.455  -0.115   9.947 -3.8392  0.2117 -0.2150
  150SAPE   C2716605   4.494  -0.329   9.939 -0.9826  0.7230 -0.8401
  150SAPE   H7R16606   4.466  -0.325   9.832 -1.9819 -3.5033 -0.8300
  150SAPE   H7S16607   4.424  -0.408   9.974 -0.9559  0.8562 -0.4839
  150SAPE   C2816608   4.635  -0.363   9.987  0.6445  0.8522 -0.0882
  150SAPE   H8R16609   4.649  -0.366  10.096 -0.3673  1.2977  0.0546
  150SAPE   C2916610   4.739  -0.384   9.910 -0.1927 -0.1369 -0.0167
  150SAPE   H9R16611   4.835  -0.400   9.961  0.1247  0.7193 -0.3357
  150SAPE  C21016612   4.738  -0.371   9.760 -0.5074  0.7866 -0.1198
  150SAPE  H10R16613   4.692  -0.272   9.740  1.2998  1.6784 -0.0515
  150SAPE  H10S16614   4.654  -0.435   9.727  1.1434 -2.7809  2.2989
  150SAPE  C21116615   4.851  -0.406   9.675 -0.4434  0.2358  1.3319
  150SAPE  H11R16616   4.905  -0.501   9.689 -1.6524 -0.8859 -1.2256
  150SAPE  C21216617   4.902  -0.321   9.585  0.0525 -0.8445 -0.1862
  150SAPE  H12R16618   4.993  -0.351   9.530 -0.1741 -1.5143 -0.1990
  150SAPE  C21316619   4.854  -0.176   9.557  0.0448 -0.2912  0.2827
  150SAPE  H13R16620   4.942  -0.120   9.518 -1.2252  1.2065 -0.4696
  150SAPE  H13S16621   4.825  -0.115   9.645  0.3699  2.4339 -1.4254
  150SAPE  C21416622   4.741  -0.171   9.461 -0.3915  0.4896 -0.3514
  150SAPE  H14R16623   4.665  -0.245   9.489  0.1934 -0.3070 -0.8179
  150SAPE  C21516624   4.717  -0.093   9.355  0.1744  0.2237  0.3986
  150SAPE  H15R16625   4.632  -0.127   9.294  0.4568 -2.2680  1.3331
  150SAPE  C21616626   4.812   0.022   9.313 -1.1293  0.7123  0.1666
  150SAPE  H16R16627   4.913   0.020   9.359 -0.7487 -3.8421 -0.6688
  150SAPE  H16S16628   4.774   0.124   9.338 -1.3555  0.6906 -0.0888
  150SAPE  C21716629   4.869   0.016   9.168 -0.2292 -0.6519 -0.6003
  150SAPE  H17R16630   4.943   0.098   9.157 -0.1465 -0.6040  0.3267
  150SAPE  H17S16631   4.789   0.049   9.098 -0.7609 -0.9717 -0.1427
  150SAPE  C21816632   4.939  -0.116   9.131  0.0953 -1.1589 -0.4059
  150SAPE  H18R16633   4.865  -0.196   9.111 -0.8873 -0.6888  1.2139
  150SAPE  H18S16634   5.004  -0.147   9.216 -0.9854  0.6140  1.1000
  150SAPE  C21916635   5.029  -0.092   9.011 -0.1509 -0.6031  0.2415
  150SAPE  H19R16636   5.088  -0.184   8.990 -1.4782 -1.6553  1.0707
  150SAPE  H19S16637   5.100  -0.013   9.042 -0.9162  0.2919 -0.2397
  150SAPE  C22016638   4.957  -0.061   8.875 -0.1236 -0.2188  0.2560
  150SAPE  H20R16639   4.886  -0.145   8.858 -0.9913  0.1500  1.9823
  150SAPE  H20S16640   5.032  -0.061   8.793 -1.7570  1.4787 -1.3045
  150SAPE  H20T16641   4.901   0.035   8.879  0.8070  0.4022 -1.0600
  150SAPE   C3316642   4.433   0.231  10.044  0.4654 -0.0835 -0.0920
  150SAPE   H3X16643   4.507   0.177  10.108 -0.3408  1.5015  2.2460
  150SAPE   H3Y16644   4.468   0.335  10.061  1.7766 -0.4534 -0.4257
  150SAPE   C3416645   4.436   0.212   9.901  0.1475  0.3112  0.5128
  150SAPE   H4X16646   4.341   0.236   9.848 -0.0500  0.1029  0.7723
  150SAPE   H4Y16647   4.452   0.104   9.879  2.5677  1.0834 -1.8368
  150SAPE   C3516648   4.553   0.289   9.824  0.3642 -0.3232  0.5641
  150SAPE   H5X16649   4.652   0.267   9.870  0.8345  1.5057  0.4685
  150SAPE   H5Y16650   4.542   0.397   9.846 -1.0732 -0.3234 -0.0824
  150SAPE   C3616651   4.552   0.255   9.668 -0.8199 -0.5216  0.7316
  150SAPE   H6X16652   4.445   0.246   9.639 -0.3859 -1.1316 -0.7300
  150SAPE   H6Y16653   4.589   0.152   9.645 -0.7580 -0.0683 -1.3041
  150SAPE   C3716654   4.608   0.371   9.584  0.1644  0.2642 -0.2681
  150SAPE   H7X16655   4.570   0.469   9.621 -1.9150 -0.7770  0.4099
  150SAPE   H7Y16656   4.575   0.351   9.480  1.2267  0.4932 -0.6514
  150SAPE   C3816657   4.768   0.362   9.589 -0.4363 -0.6235  0.7414
  150SAPE   H8X16658   4.803   0.270   9.538  0.7990  0.7842 -0.9757
  150SAPE   H8Y16659   4.804   0.358   9.694  0.9105 -0.7462  0.2797
  150SAPE   C3916660   4.839   0.490   9.536  0.0555 -1.1064  0.8405
  150SAPE   H9X16661   4.945   0.483   9.570  0.8370 -0.4753 -1.3654
  150SAPE   H9Y16662   4.795   0.575   9.592  1.6985 -0.6371  1.4735
  150SAPE  C31016663   4.834   0.521   9.388 -0.7986 -0.1596  0.8310
  150SAPE  H10X16664   4.874   0.621   9.360 -1.5380 -0.3687 -1.0215
  150SAPE  H10Y16665   4.728   0.532   9.356 -0.0793 -0.5311 -1.7230
  150SAPE  C31116666   4.904   0.411   9.315  0.2700 -0.0776 -0.5228
  150SAPE  H11X16667   4.873   0.403   9.209  0.3186  1.9955 -0.7148
  150SAPE  H11Y16668   4.881   0.309   9.353  1.3709 -0.6347 -1.3579
  150SAPE  C31216669   5.051   0.429   9.318  0.2948 -0.1513  0.1018
  150SAPE  H12X16670   5.090   0.430   9.422 -2.0241 -0.2962  0.9938
  150SAPE  H12Y16671   5.067   0.523   9.260 -0.8082 -0.1400 -0.1832
  150SAPE  C31316672   5.122   0.316   9.238  0.5427 -0.3381  0.1127
  150SAPE  H13X16673   5.083   0.335   9.136  0.6452  1.5255  0.3884
  150SAPE  H13Y16674   5.082   0.216   9.264  0.4343 -0.5538 -0.8708
  150SAPE  C31416675   5.273   0.342   9.248 -0.5111  0.2065  0.0931
  150SAPE  H14X16676   5.302   0.326   9.354 -0.5496 -3.9084 -0.4310
  150SAPE  H14Y16677   5.303   0.444   9.214  1.8214 -0.6163 -0.3986
  150SAPE  C31516678   5.352   0.247   9.162  0.0768  0.5583 -0.2531
  150SAPE  H15X16679   5.342   0.287   9.059 -0.3250 -0.5865 -0.6686
  150SAPE  H15Y16680   5.306   0.146   9.164  0.8194  0.2224  1.6606
  150SAPE  C31616681   5.497   0.234   9.199 -0.0393 -0.3000  0.5083
  150SAPE  H16X16682   5.515   0.210   9.306  1.3089  0.7488  0.5375
  150SAPE  H16Y16683   5.547   0.329   9.170 -1.7458  0.3147 -0.5046
  150SAPE  C31716684   5.564   0.134   9.099 -0.1537 -0.0281  0.6219
  150SAPE  H17X16685   5.526   0.166   9.000  1.7591 -0.8523 -0.4140
  150SAPE  H17Y16686   5.508   0.041   9.121  0.6268  0.0504  3.2193
  150SAPE  C31816687   5.711   0.091   9.096 -0.2746  0.1363  0.1387
  150SAPE  H18X16688   5.740   0.006   9.031 -2.1047 -0.4932  0.0883
  150SAPE  H18Y16689   5.767   0.077   9.191  2.6551 -0.5017 -1.6343
  150SAPE  H18Z16690   5.759   0.178   9.047  0.4747 -0.8535 -0.8966
  151SAPE     N16691   2.120   3.749  10.499  0.6242 -0.0530 -0.0347
  151SAPE   HN116692   2.140   3.766  10.399 -0.0684 -0.0678 -0.1825
  151SAPE   HN216693   2.174   3.664  10.525 -0.0077 -0.3672  0.2694
  151SAPE   HN316694   2.019   3.721  10.501  0.1678  1.3736 -2.0094
  151SAPE   C1216695   2.141   3.875  10.585 -1.4464 -0.2260  0.4286
  151SAPE  H12A16696   2.248   3.864  10.616 -0.0562  2.3546 -3.1084
  151SAPE  H12B16697   2.075   3.863  10.674 -0.2414 -0.6040  1.2960
  151SAPE   C1116698   2.109   4.002  10.515 -0.2070  0.3573 -0.0687
  151SAPE  H11A16699   2.186   4.009  10.435  0.0639  0.1490  0.1700
  151SAPE  H11B16700   2.114   4.094  10.577 -2.5164  0.9644 -0.7401
  151SAPE     P16701   1.856   4.053  10.498  0.7595  0.2697  0.3425
  151SAPE   O1316702   1.764   3.940  10.538  0.9169 -0.6965  0.1007
  151SAPE   O1416703   1.888   4.153  10.597 -0.2195  0.5846 -0.3300
  151SAPE   O1216704   1.984   3.982  10.449 -0.5541 -0.6173  0.2763
  151SAPE   O1116705   1.812   4.136  10.373 -0.1516  0.3471 -0.2157
  151SAPE    C116706   1.900   4.198  10.270 -0.2511  0.7590  0.8556
  151SAPE    HA16707   1.841   4.283  10.230  0.7826  1.5172  0.9287
  151SAPE    HB16708   1.997   4.226  10.318 -0.9393  0.3470  2.5372
  151SAPE    C216709   1.933   4.109  10.143  0.2639 -0.5579  0.3179
  151SAPE    HS16710   2.012   4.035  10.169  3.0527  1.8368 -1.0015
  151SAPE   O2116711   1.977   4.195  10.040  0.2860  0.0362 -0.0727
  151SAPE   C2116712   2.093   4.181   9.986 -0.6215  0.3231 -0.0849
  151SAPE   O2216713   2.176   4.098  10.018 -0.2020  0.2898  0.1176
  151SAPE   C2216714   2.110   4.282   9.874 -0.4932  0.1675  0.4704
  151SAPE   H2R16715   2.019   4.344   9.859 -0.8450 -0.9738 -2.5023
  151SAPE   H2S16716   2.188   4.349   9.917 -1.2149  0.4844  1.3118
  151SAPE    C316717   1.814   4.039  10.092  0.5185 -0.6672 -0.0351
  151SAPE    HX16718   1.729   4.103  10.057 -0.0596 -2.6763 -2.3922
  151SAPE    HY16719   1.770   3.980  10.175  0.0400 -0.6961 -0.3052
  151SAPE   O3116720   1.840   3.959   9.976 -0.0608  0.1644  0.5538
  151SAPE   C3116721   1.887   3.833   9.994  0.1865 -0.2289  0.2155
  151SAPE   O3216722   1.897   3.773  10.098 -0.2397 -0.1745  0.3486
  151SAPE   C3216723   1.931   3.780   9.859 -0.3958  0.2255  0.2451
  151SAPE   H2X16724   1.848   3.759   9.788 -0.2933 -0.5937  0.3576
  151SAPE   H2Y16725   1.987   3.684   9.871  0.1924  0.4234 -0.8948
  151SAPE   C2316726   2.177   4.235   9.739  0.6085 -0.2849 -0.3143
  151SAPE   H3R16727   2.102   4.180   9.679 -1.2931  1.2709  0.5678
  151SAPE   H3S16728   2.268   4.181   9.772 -0.1547 -0.1213  2.1822
  151SAPE   C2416729   2.237   4.349   9.666  0.1279 -0.4621  0.3610
  151SAPE   H4R16730   2.306   4.313   9.587 -1.7483  0.2638 -1.6666
  151SAPE   H4S16731   2.295   4.422   9.726  1.1182 -1.1754  0.2800
  151SAPE   C2516732   2.134   4.439   9.597  0.2228  0.5571  0.1208
  151SAPE   H5R16733   2.053   4.477   9.661  1.1254 -1.1771  2.3299
  151SAPE   C2616734   2.129   4.478   9.462  0.2358  0.5560 -0.3868
  151SAPE   H6R16735   2.057   4.556   9.432  1.4531  1.1390 -1.8764
  151SAPE   C2716736   2.227   4.449   9.350 -0.2758  0.6845 -0.0302
  151SAPE   H7R16737   2.327   4.470   9.393  0.0974 -1.1285  0.0207
  151SAPE   H7S16738   2.216   4.519   9.264  0.4870  1.0569  0.1707
  151SAPE   C2816739   2.218   4.306   9.297 -0.1011 -0.2051 -0.7262
  151SAPE   H8R16740   2.143   4.246   9.351 -0.6001  2.0865  1.2256
  151SAPE   C2916741   2.271   4.265   9.184  0.4225  0.2435 -0.0791
  151SAPE   H9R16742   2.262   4.161   9.149 -2.9073  1.0568 -1.8294
  151SAPE  C21016743   2.352   4.348   9.088  0.8052 -0.1371 -0.4016
  151SAPE  H10R16744   2.434   4.400   9.143 -0.5396 -0.6668  2.1582
  151SAPE  H10S16745   2.286   4.417   9.031 -1.4295 -2.7848 -1.0657
  151SAPE  C21116746   2.419   4.269   8.982  0.9807  0.0616  0.0819
  151SAPE  H11R16747   2.523   4.241   9.007  0.6919 -1.3357 -0.1932
  151SAPE  C21216748   2.363   4.236   8.864 -0.2252 -0.8705  0.3271
  151SAPE  H12R16749   2.427   4.175   8.799  1.0748 -0.7792  1.5001
  151SAPE  C21316750   2.227   4.256   8.807  0.7705 -0.6595  0.0487
  151SAPE  H13R16751   2.157   4.306   8.876 -1.0957 -0.4029 -1.9760
  151SAPE  H13S16752   2.182   4.155   8.795  1.4234 -1.0803  1.0068
  151SAPE  C21416753   2.230   4.332   8.674 -0.0257 -0.4871  0.2087
  151SAPE  H14R16754   2.222   4.441   8.681 -1.9616 -0.6584  1.1111
  151SAPE  C21516755   2.228   4.278   8.554  0.3033 -0.0807 -0.2178
  151SAPE  H15R16756   2.228   4.347   8.468 -1.2279  0.1486 -0.0410
  151SAPE  C21616757   2.223   4.124   8.529  0.2334 -0.0612 -0.1644
  151SAPE  H16R16758   2.185   4.109   8.426 -0.6040 -0.2284  0.1702
  151SAPE  H16S16759   2.156   4.077   8.603  0.2706  0.3019  0.1009
  151SAPE  C21716760   2.358   4.045   8.533 -0.2187  0.2899  0.6579
  151SAPE  H17R16761   2.326   3.941   8.511 -2.0665  0.7309  1.1381
  151SAPE  H17S16762   2.398   4.044   8.636  2.5414  0.1021 -0.3762
  151SAPE  C21816763   2.463   4.094   8.435 -0.1930 -0.3084  0.0848
  151SAPE  H18R16764   2.566   4.078   8.474 -0.9371  0.2132  2.2993
  151SAPE  H18S16765   2.453   4.194   8.388  1.0669  0.2983  1.0643
  151SAPE  C21916766   2.446   4.009   8.308 -0.2652 -0.5795 -0.8263
  151SAPE  H19R16767   2.491   4.062   8.221 -1.6419 -0.7332 -1.6564
  151SAPE  H19S16768   2.337   4.014   8.284 -0.3329  2.3041 -0.1374
  151SAPE  C22016769   2.490   3.859   8.308  0.1800 -0.3593 -0.4175
  151SAPE  H20R16770   2.463   3.805   8.401  0.8711  2.3261  1.3841
  151SAPE  H20S16771   2.601   3.862   8.312  0.1977 -2.4303  1.9503
  151SAPE  H20T16772   2.461   3.806   8.215 -0.7226  0.5114 -0.6293
  151SAPE   C3316773   2.029   3.880   9.777  0.1587  0.4694  0.3308
  151SAPE   H3X16774   2.112   3.908   9.845  0.1633  1.8891 -0.2291
  151SAPE   H3Y16775   1.983   3.977   9.746 -1.0839  0.0308  0.7964
  151SAPE   C3416776   2.097   3.804   9.660 -0.5473 -0.0874 -0.5685
  151SAPE   H4X16777   2.026   3.722   9.638 -0.7881 -0.0303 -0.0032
  151SAPE   H4Y16778   2.191   3.765   9.703 -1.5605 -0.8225  1.0105
  151SAPE   C3516779   2.139   3.891   9.542 -0.4440 -0.5793  0.1520
  151SAPE   H5X16780   2.167   3.993   9.577 -2.1501  0.2588 -0.8171
  151SAPE   H5Y16781   2.050   3.901   9.476  1.5658  0.6751 -2.4568
  151SAPE   C3616782   2.254   3.828   9.459  0.1201  0.0545 -0.1718
  151SAPE   H6X16783   2.345   3.827   9.522 -1.2982 -1.6840  1.9299
  151SAPE   H6Y16784   2.279   3.902   9.380  1.6309 -0.5059 -0.2278
  151SAPE   C3716785   2.225   3.693   9.391 -0.3889  0.5510 -0.0512
  151SAPE   H7X16786   2.124   3.704   9.347 -0.7290  0.8082  0.7855
  151SAPE   H7Y16787   2.211   3.605   9.457  2.0211  1.7472  2.1186
  151SAPE   C3816788   2.311   3.662   9.269  1.4580 -0.5466  0.6586
  151SAPE   H8X16789   2.402   3.606   9.298  1.3148 -0.9768  0.2778
  151SAPE   H8Y16790   2.351   3.754   9.221  2.2233 -1.7724 -1.1079
  151SAPE   C3916791   2.252   3.567   9.170 -0.7752  0.1440  0.0927
  151SAPE   H9X16792   2.333   3.553   9.095  1.4229  2.4645  1.9279
  151SAPE   H9Y16793   2.161   3.613   9.125  0.6929  1.0700 -2.0509
  151SAPE  C31016794   2.242   3.422   9.232  0.7328 -0.7297  0.4343
  151SAPE  H10X16795   2.153   3.419   9.299 -0.5227  3.3464 -0.8742
  151SAPE  H10Y16796   2.327   3.387   9.295 -0.9665 -0.4312  2.9696
  151SAPE  C31116797   2.203   3.306   9.127  0.5907  0.2851  0.0283
  151SAPE  H11X16798   2.113   3.341   9.073 -1.4209 -1.9052  1.8266
  151SAPE  H11Y16799   2.171   3.213   9.180  1.4630 -0.4732 -0.7743
  151SAPE  C31216800   2.317   3.264   9.036 -0.0747 -0.4209 -0.1114
  151SAPE  H12X16801   2.414   3.250   9.088  0.2557  1.3682 -0.2206
  151SAPE  H12Y16802   2.343   3.341   8.961  0.3655 -1.4123 -0.9903
  151SAPE  C31316803   2.293   3.119   8.984  0.2056 -0.2950  0.0661
  151SAPE  H13X16804   2.283   3.043   9.065  0.7027 -0.7322 -0.2769
  151SAPE  H13Y16805   2.382   3.085   8.928  0.4658  1.3342 -0.5321
  151SAPE  C31416806   2.179   3.117   8.886 -0.1304 -0.0038 -0.5986
  151SAPE  H14X16807   2.206   3.194   8.810  1.8796  0.1105  0.2058
  151SAPE  H14Y16808   2.080   3.139   8.932 -0.7101 -0.7107 -1.4892
  151SAPE  C31516809   2.179   2.981   8.805  0.2866 -0.0530  0.2171
  151SAPE  H15X16810   2.173   2.892   8.871 -1.1980  0.0344  0.2122
  151SAPE  H15Y16811   2.272   2.982   8.744  0.0596 -1.0726 -0.1589
  151SAPE  C31616812   2.060   3.006   8.708 -0.0462  0.3950 -0.2517
  151SAPE  H16X16813   2.085   3.090   8.640  2.6173 -0.8962 -0.9476
  151SAPE  H16Y16814   1.964   3.017   8.763  0.6646  1.3986  0.8032
  151SAPE  C31716815   2.040   2.883   8.611 -0.5594  0.2487  0.0298
  151SAPE  H17X16816   1.955   2.913   8.546 -0.5520 -0.6235 -0.3839
  151SAPE  H17Y16817   2.008   2.796   8.673 -0.1603  0.5334  0.6426
  151SAPE  C31816818   2.162   2.835   8.525 -0.0071 -0.3817 -0.1544
  151SAPE  H18X16819   2.121   2.747   8.472 -0.7363 -0.0935 -0.0681
  151SAPE  H18Y16820   2.247   2.808   8.590  0.3090  1.9131  0.4379
  151SAPE  H18Z16821   2.185   2.911   8.447 -1.1610  0.4301  0.2894
  152SAPE     N16822   3.920   4.002  10.528  0.5915 -0.8340 -0.3727
  152SAPE   HN116823   3.853   4.064  10.579  0.3356 -0.8437 -0.6997
  152SAPE   HN216824   4.010   4.053  10.516 -0.2239  0.7108 -0.1888
  152SAPE   HN316825   3.866   3.985  10.441 -0.9804 -0.0733  0.4129
  152SAPE   C1216826   3.940   3.877  10.608 -0.3075  0.5525 -0.7585
  152SAPE  H12A16827   3.967   3.912  10.710  1.3512 -0.2959 -0.8739
  152SAPE  H12B16828   4.036   3.829  10.578  0.7586  0.1189  3.0278
  152SAPE   C1116829   3.822   3.781  10.603 -0.0273 -0.3360  0.6992
  152SAPE  H11A16830   3.735   3.844  10.631  0.6734  0.2222  1.6493
  152SAPE  H11B16831   3.827   3.706  10.685  0.2770 -0.0525  0.9410
  152SAPE     P16832   3.705   3.615  10.449  0.4344  0.3355 -0.3790
  152SAPE   O1316833   3.753   3.480  10.491  0.5992 -0.7893  0.0843
  152SAPE   O1416834   3.587   3.661  10.514  0.2776 -0.6574  0.4013
  152SAPE   O1216835   3.815   3.722  10.471 -0.2490  0.1862  0.1995
  152SAPE   O1116836   3.685   3.611  10.293 -0.9596 -0.0766 -0.1876
  152SAPE    C116837   3.597   3.510  10.235 -0.1180  0.0243  0.3023
  152SAPE    HA16838   3.566   3.425  10.300 -0.2340 -1.4863 -1.6948
  152SAPE    HB16839   3.501   3.557  10.204  0.3841 -0.4073 -1.9905
  152SAPE    C216840   3.659   3.445  10.107  0.4808  0.2027  0.5383
  152SAPE    HS16841   3.766   3.434  10.133 -0.1156 -0.3487  2.9467
  152SAPE   O2116842   3.633   3.537   9.998 -0.1986  0.5588 -0.1623
  152SAPE   C2116843   3.747   3.566   9.932 -0.1194 -0.2745  0.4412
  152SAPE   O2216844   3.858   3.528   9.954 -0.0129  0.8941 -0.0721
  152SAPE   C2216845   3.703   3.677   9.826  0.4577  0.5831  0.8104
  152SAPE   H2R16846   3.601   3.644   9.795  0.2419  1.0642  0.9979
  152SAPE   H2S16847   3.700   3.778   9.873 -0.8778  1.8693 -1.9566
  152SAPE    C316848   3.590   3.307  10.082  0.3437 -0.1644 -0.2977
  152SAPE    HX16849   3.484   3.334  10.060  0.4364  0.4005 -0.0527
  152SAPE    HY16850   3.597   3.253  10.179 -0.2372  0.5399  0.1427
  152SAPE   O3116851   3.652   3.235   9.978  0.2850  0.2461 -0.5896
  152SAPE   C3116852   3.582   3.161   9.893 -0.7235 -0.0959  0.0871
  152SAPE   O3216853   3.458   3.155   9.890 -0.5726  0.4933  0.5733
  152SAPE   C3216854   3.664   3.076   9.799 -0.5460  0.0349 -0.5495
  152SAPE   H2X16855   3.650   2.970   9.829  1.0212 -0.0337 -0.0263
  152SAPE   H2Y16856   3.772   3.100   9.813 -0.2325 -0.2575 -2.2463
  152SAPE   C2316857   3.794   3.682   9.702  0.1194 -0.4466  0.1476
  152SAPE   H3R16858   3.780   3.590   9.641 -1.2952 -0.0261 -0.1775
  152SAPE   H3S16859   3.898   3.689   9.741  1.0094 -0.0390 -2.2053
  152SAPE   C2416860   3.767   3.798   9.612 -0.3499  0.3340 -0.0263
  152SAPE   H4R16861   3.665   3.798   9.567 -1.0496 -0.8167  1.5261
  152SAPE   H4S16862   3.842   3.792   9.530  1.5599  1.0612  1.6125
  152SAPE   C2516863   3.780   3.934   9.667 -0.3393 -0.4425 -0.8390
  152SAPE   H5R16864   3.797   3.941   9.775 -1.3577 -1.7271 -0.5736
  152SAPE   C2616865   3.769   4.049   9.590 -0.1881 -0.2445  0.0329
  152SAPE   H6R16866   3.779   4.148   9.638  2.6246  0.2061 -1.4169
  152SAPE   C2716867   3.737   4.048   9.441 -0.0199  0.1712  0.5887
  152SAPE   H7R16868   3.704   4.147   9.404 -0.0863  0.4535  1.3896
  152SAPE   H7S16869   3.662   3.969   9.416 -1.7008  2.7350 -2.9187
  152SAPE   C2816870   3.858   4.023   9.359  0.7382 -0.3543 -0.0551
  152SAPE   H8R16871   3.950   4.067   9.401  1.3887  1.5201 -3.2812
  152SAPE   C2916872   3.857   3.972   9.233 -0.0358  0.3646  0.2740
  152SAPE   H9R16873   3.949   3.992   9.175  0.0332  1.3097  0.6984
  152SAPE  C21016874   3.733   3.928   9.149 -0.2125 -0.0211 -0.1251
  152SAPE  H10R16875   3.684   3.844   9.203  1.5747 -2.3335 -1.9267
  152SAPE  H10S16876   3.778   3.886   9.056  1.7986 -2.6510  1.9388
  152SAPE  C21116877   3.624   4.029   9.118 -0.9820  0.5254 -1.0044
  152SAPE  H11R16878   3.596   4.097   9.200  2.0368 -0.2271  0.6925
  152SAPE  C21216879   3.548   4.021   9.007  0.1689 -0.1107  0.0002
  152SAPE  H12R16880   3.471   4.099   8.998  0.6300  0.5171  1.3324
  152SAPE  C21316881   3.552   3.920   8.894 -0.2158  0.6319  0.2199
  152SAPE  H13R16882   3.456   3.928   8.837 -0.2730 -0.8202  0.0915
  152SAPE  H13S16883   3.545   3.813   8.924 -0.3444  0.5031 -0.2498
  152SAPE  C21416884   3.665   3.910   8.797  0.4912 -0.1494 -0.4193
  152SAPE  H14R16885   3.755   3.863   8.838  0.0827  2.3390  3.6073
  152SAPE  C21516886   3.675   3.964   8.673 -0.5780  0.6360  0.4968
  152SAPE  H15R16887   3.758   3.955   8.601 -0.1227  2.5670  0.7499
  152SAPE  C21616888   3.557   4.026   8.605  0.3966  0.4151  0.0003
  152SAPE  H16R16889   3.497   4.101   8.661  0.7056  0.8596 -0.2639
  152SAPE  H16S16890   3.486   3.942   8.592 -0.2320  0.7354  1.2241
  152SAPE  C21716891   3.602   4.063   8.467  0.2019 -0.4813 -0.4310
  152SAPE  H17R16892   3.635   3.979   8.403  0.4734 -0.7425  0.0462
  152SAPE  H17S16893   3.686   4.135   8.481  0.2644 -0.4806 -0.8147
  152SAPE  C21816894   3.489   4.131   8.389  0.1334  0.1616  0.4820
  152SAPE  H18R16895   3.440   4.205   8.455 -1.4094  2.8089 -3.4463
  152SAPE  H18S16896   3.419   4.049   8.361  1.0589  0.2167 -2.0879
  152SAPE  C21916897   3.527   4.209   8.262 -0.1272 -0.9272 -0.0522
  152SAPE  H19R16898   3.540   4.141   8.175  1.2407  0.4231 -0.9213
  152SAPE  H19S16899   3.625   4.254   8.286 -0.6394 -0.5715  1.4250
  152SAPE  C22016900   3.429   4.319   8.235  0.3463 -0.4587  0.5554
  152SAPE  H20R16901   3.415   4.383   8.325 -0.3329  0.6268 -0.3067
  152SAPE  H20S16902   3.324   4.288   8.214  0.2056  0.9779 -0.9337
  152SAPE  H20T16903   3.478   4.377   8.154  1.2043  0.5766  1.8014
  152SAPE   C3316904   3.623   3.084   9.653 -0.1008  0.5417  0.8850
  152SAPE   H3X16905   3.516   3.054   9.648  0.3929 -1.0627 -0.2091
  152SAPE   H3Y16906   3.685   3.013   9.594 -1.8537 -0.5290  0.2907
  152SAPE   C3416907   3.644   3.226   9.587 -0.2627  0.1039  0.4935
  152SAPE   H4X16908   3.754   3.238   9.598 -0.3025  0.0045  1.0129
  152SAPE   H4Y16909   3.613   3.309   9.654  2.0566  0.4037  1.2680
  152SAPE   C3516910   3.600   3.251   9.447  0.1408 -0.0379  0.4518
  152SAPE   H5X16911   3.661   3.337   9.410  0.7368 -0.4253  0.5229
  152SAPE   H5Y16912   3.495   3.287   9.441 -0.0870 -0.4417  1.8334
  152SAPE   C3616913   3.613   3.132   9.342 -0.5543 -0.0585 -0.5722
  152SAPE   H6X16914   3.551   3.040   9.356 -2.2159  1.0450 -0.5643
  152SAPE   H6Y16915   3.719   3.098   9.354  0.0035  2.6407  2.8964
  152SAPE   C3716916   3.606   3.179   9.193  0.2108  0.1013  0.0694
  152SAPE   H7X16917   3.682   3.258   9.177  0.6580  0.0192  1.7215
  152SAPE   H7Y16918   3.508   3.222   9.165 -0.1027 -0.5117  0.2282
  152SAPE   C3816919   3.626   3.059   9.096  0.4279  0.2706 -0.2928
  152SAPE   H8X16920   3.535   2.996   9.100  1.1014 -0.8064 -1.5035
  152SAPE   H8Y16921   3.714   2.996   9.121 -0.1627 -1.1120 -1.6239
  152SAPE   C3916922   3.641   3.111   8.959 -0.2299 -0.4438 -0.5976
  152SAPE   H9X16923   3.732   3.174   8.955  0.6926 -1.5557  1.9310
  152SAPE   H9Y16924   3.551   3.174   8.942 -0.9895 -1.7576 -1.5914
  152SAPE  C31016925   3.645   3.004   8.849  0.0620  0.5073  0.0532
  152SAPE  H10X16926   3.555   2.938   8.850  0.8864 -0.6896 -1.7853
  152SAPE  H10Y16927   3.737   2.943   8.856 -0.1529  0.1522 -0.1770
  152SAPE  C31116928   3.628   3.062   8.706 -0.1287  0.4433  0.2832
  152SAPE  H11X16929   3.550   3.140   8.711 -0.2302  0.3207  0.6646
  152SAPE  H11Y16930   3.591   2.980   8.641  2.1210 -2.1482  2.1243
  152SAPE  C31216931   3.748   3.137   8.651  0.4076 -0.4178  0.0831
  152SAPE  H12X16932   3.828   3.067   8.622 -3.4833 -3.4458 -4.1241
  152SAPE  H12Y16933   3.774   3.213   8.727  1.3496 -1.3812  0.7311
  152SAPE  C31316934   3.711   3.233   8.532  0.4435  0.0483 -0.2198
  152SAPE  H13X16935   3.799   3.289   8.493  0.7574 -0.3798 -0.1372
  152SAPE  H13Y16936   3.635   3.308   8.563  0.0487 -0.9101  1.1758
  152SAPE  C31416937   3.657   3.137   8.414 -0.1012  0.2066 -0.1784
  152SAPE  H14X16938   3.562   3.093   8.450 -0.2300  0.8223  0.2533
  152SAPE  H14Y16939   3.737   3.065   8.387  0.1210  0.9487 -1.6063
  152SAPE  C31516940   3.616   3.204   8.289  0.4641  0.3898  0.5473
  152SAPE  H15X16941   3.698   3.247   8.228  0.1657  2.0135  1.2788
  152SAPE  H15Y16942   3.543   3.284   8.312 -1.4543 -0.7013 -1.5834
  152SAPE  C31616943   3.538   3.104   8.204 -0.5497 -0.7272  0.3555
  152SAPE  H16X16944   3.485   3.040   8.277 -0.2602 -0.2387  1.0048
  152SAPE  H16Y16945   3.607   3.040   8.145  0.0909 -0.0993  0.4114
  152SAPE  C31716946   3.437   3.183   8.112 -0.5702 -0.3008  0.0021
  152SAPE  H17X16947   3.496   3.269   8.074  2.5297 -1.5764  1.7349
  152SAPE  H17Y16948   3.366   3.228   8.185 -1.1081 -3.4164  1.4953
  152SAPE  C31816949   3.379   3.104   7.999 -0.2153 -0.6506 -0.5518
  152SAPE  H18X16950   3.342   3.008   8.040  2.1814 -1.9894 -1.4325
  152SAPE  H18Y16951   3.463   3.064   7.938  0.1148 -0.5348 -0.1766
  152SAPE  H18Z16952   3.306   3.158   7.935  1.2812  0.4109 -1.3992
  153SAPE     N16953   3.428   5.117  10.806 -0.4299 -0.2100 -0.5511
  153SAPE   HN116954   3.455   5.021  10.837 -3.0415 -0.2955  1.6481
  153SAPE   HN216955   3.506   5.151  10.747 -0.7396 -0.3976 -1.0712
  153SAPE   HN316956   3.427   5.173  10.894  3.5246 -0.2919 -0.3523
  153SAPE   C1216957   3.292   5.115  10.752 -0.1245  0.3634  0.5221
  153SAPE  H12A16958   3.308   5.115  10.642  0.8954 -0.3872  0.6671
  153SAPE  H12B16959   3.231   5.203  10.780  2.1244  1.7870  1.0771
  153SAPE   C1116960   3.216   4.989  10.790 -0.9617  0.2978  0.1020
  153SAPE  H11A16961   3.110   5.000  10.758 -0.8770  2.7875  0.5303
  153SAPE  H11B16962   3.216   4.986  10.901  0.4253  0.2503  0.1067
  153SAPE     P16963   3.361   4.774  10.817  0.0536 -0.3436 -0.3979
  153SAPE   O1316964   3.470   4.851  10.871  0.3425  0.1926 -0.1476
  153SAPE   O1416965   3.276   4.699  10.917  0.8306 -0.1792 -0.2047
  153SAPE   O1216966   3.274   4.867  10.730  0.2529  0.5964 -0.4711
  153SAPE   O1116967   3.408   4.677  10.707 -0.3582  0.0118  0.1583
  153SAPE    C116968   3.469   4.729  10.590  0.3680 -0.2643 -0.0915
  153SAPE    HA16969   3.483   4.839  10.589  0.1349 -0.2417 -2.0210
  153SAPE    HB16970   3.576   4.701  10.585  0.2832 -0.8531  1.2674
  153SAPE    C216971   3.402   4.680  10.461 -0.3886 -0.2459 -0.2662
  153SAPE    HS16972   3.466   4.714  10.377 -2.1056  0.2299 -1.4290
  153SAPE   O2116973   3.268   4.728  10.453 -0.1933  0.2271 -0.3222
  153SAPE   C2116974   3.258   4.862  10.443  0.7906  0.1665  0.7451
  153SAPE   O2216975   3.353   4.941  10.436 -0.8801  0.4983 -0.1257
  153SAPE   C2216976   3.112   4.903  10.452  0.3135 -0.6677  0.0038
  153SAPE   H2R16977   3.044   4.832  10.400 -2.3333  1.3456  0.5719
  153SAPE   H2S16978   3.085   4.892  10.560  0.6567 -1.1700  0.0362
  153SAPE    C316979   3.405   4.527  10.464 -0.0911 -0.6057  0.3542
  153SAPE    HX16980   3.318   4.503  10.527  0.6064 -0.3539  1.4313
  153SAPE    HY16981   3.505   4.498  10.504  0.3544  2.0358  1.2962
  153SAPE   O3116982   3.395   4.485  10.327 -0.6671 -0.1078  0.3816
  153SAPE   C3116983   3.398   4.355  10.333 -0.1982 -0.4375  0.4059
  153SAPE   O3216984   3.393   4.285  10.432  0.1433  0.4792  0.0723
  153SAPE   C3216985   3.426   4.294  10.194 -0.3583 -0.3445 -0.2437
  153SAPE   H2X16986   3.329   4.246  10.169 -1.0303  1.6628 -1.5994
  153SAPE   H2Y16987   3.510   4.222  10.202 -0.6015 -0.6956 -0.7850
  153SAPE   C2316988   3.077   5.047  10.409 -0.0190  0.2514  0.2503
  153SAPE   H3R16989   3.153   5.123  10.439 -0.6039  1.1670 -0.5829
  153SAPE   H3S16990   2.985   5.082  10.461  0.1407 -0.6291  1.1496
  153SAPE   C2416991   3.061   5.061  10.256 -0.2451 -0.6895 -0.3898
  153SAPE   H4R16992   3.164   5.065  10.217 -0.3332  1.4144 -0.4574
  153SAPE   H4S16993   3.020   5.163  10.241  1.0028  0.2959  2.5940
  153SAPE   C2516994   2.972   4.969  10.176 -0.2047 -0.0635 -0.4203
  153SAPE   H5R16995   2.875   4.954  10.226 -1.4580  1.6686 -2.2373
  153SAPE   C2616996   2.999   4.892  10.066  0.5794  0.3125 -0.1808
  153SAPE   H6R16997   2.922   4.829  10.020  1.9920 -1.1615 -0.5850
  153SAPE   C2716998   3.127   4.874   9.993 -0.4793 -0.1084 -0.1736
  153SAPE   H7R16999   3.132   4.767   9.964 -2.4238 -0.3871  0.4576
  153SAPE   H7S17000   3.206   4.879  10.071 -0.7414  2.9242 -0.0158
  153SAPE   C2817001   3.150   4.966   9.872  0.0069 -0.7474 -0.6565
  153SAPE   H8R17002   3.133   5.068   9.910 -3.3049 -0.8408 -1.7501
  153SAPE   C2917003   3.186   4.931   9.743 -0.0725  0.7407 -0.2518
  153SAPE   H9R17004   3.175   5.005   9.662  1.1944  0.0810 -1.0353
  153SAPE  C21017005   3.233   4.797   9.679 -0.2109 -0.2627 -1.7037
  153SAPE  H10R17006   3.139   4.756   9.636  0.6096 -3.9065 -0.2297
  153SAPE  H10S17007   3.267   4.724   9.756  1.2226  2.3438  0.2218
  153SAPE  C21117008   3.341   4.798   9.577  0.2561 -1.0303  0.5711
  153SAPE  H11R17009   3.439   4.779   9.624 -1.4409 -1.4292  4.1063
  153SAPE  C21217010   3.327   4.819   9.445 -0.7789 -0.2353 -0.2651
  153SAPE  H12R17011   3.419   4.819   9.385 -1.0431 -3.8195 -0.7877
  153SAPE  C21317012   3.198   4.855   9.378 -0.2528 -0.8116  0.5224
  153SAPE  H13R17013   3.197   4.965   9.361  1.2659 -0.8357  0.1580
  153SAPE  H13S17014   3.112   4.820   9.440 -0.8396  0.3951  0.4065
  153SAPE  C21417015   3.200   4.775   9.248  0.2360 -0.4655 -0.3661
  153SAPE  H14R17016   3.129   4.691   9.246 -0.2572 -0.1366  1.7272
  153SAPE  C21517017   3.250   4.805   9.125 -0.3585  0.1999 -0.7597
  153SAPE  H15R17018   3.221   4.735   9.045 -0.3743 -1.0066  0.2887
  153SAPE  C21617019   3.330   4.931   9.096 -0.1662  0.1435  0.7134
  153SAPE  H16R17020   3.416   4.923   9.027 -0.1912 -3.4681  1.0261
  153SAPE  H16S17021   3.366   4.985   9.186  1.6060 -0.2648  0.2617
  153SAPE  C21717022   3.234   5.031   9.031  0.5400  0.1849 -0.5704
  153SAPE  H17R17023   3.159   5.055   9.110  0.5185 -0.7455 -0.3018
  153SAPE  H17S17024   3.174   4.980   8.953  0.3995  0.8623 -0.9087
  153SAPE  C21817025   3.293   5.165   8.974 -0.1998 -0.2159  0.2953
  153SAPE  H18R17026   3.347   5.212   9.059 -0.0492 -2.4923  1.4913
  153SAPE  H18S17027   3.210   5.230   8.938 -0.5478 -0.4354  0.6930
  153SAPE  C21917028   3.380   5.149   8.855  0.4864 -0.8886  0.6265
  153SAPE  H19R17029   3.327   5.080   8.785 -0.0690 -0.4551  0.6190
  153SAPE  H19S17030   3.478   5.104   8.881  0.7413 -2.2657 -2.4826
  153SAPE  C22017031   3.401   5.279   8.775  0.1878  0.0868 -0.0617
  153SAPE  H20R17032   3.442   5.261   8.674 -0.0822 -0.2844 -0.1078
  153SAPE  H20S17033   3.474   5.340   8.833  0.4000 -0.2184 -0.0042
  153SAPE  H20T17034   3.308   5.338   8.765 -0.3259 -0.9610 -1.5299
  153SAPE   C3317035   3.447   4.404  10.082 -0.5027 -0.2113 -0.3855
  153SAPE   H3X17036   3.547   4.450  10.092  0.3402 -1.5493 -2.2678
  153SAPE   H3Y17037   3.367   4.480  10.092 -1.7697 -1.4853 -0.6598
  153SAPE   C3417038   3.443   4.345   9.939 -0.1795  0.1670 -0.4899
  153SAPE   H4X17039   3.339   4.315   9.917 -0.9865  1.8064  1.0276
  153SAPE   H4Y17040   3.507   4.256   9.918 -0.5021 -0.3002  0.4998
  153SAPE   C3517041   3.494   4.448   9.829  0.2299 -0.0520 -0.3845
  153SAPE   H5X17042   3.600   4.477   9.849  0.2373  0.6219 -1.4270
  153SAPE   H5Y17043   3.430   4.538   9.836  1.6149  0.8861  0.5594
  153SAPE   C3617044   3.494   4.376   9.691 -0.0683  0.0774 -0.1542
  153SAPE   H6X17045   3.403   4.313   9.687  2.0446 -3.1328  1.1187
  153SAPE   H6Y17046   3.586   4.313   9.694 -0.5131 -0.4988  1.3768
  153SAPE   C3717047   3.498   4.469   9.568 -0.0098 -0.0697 -0.1329
  153SAPE   H7X17048   3.567   4.547   9.607 -1.8436  0.2212  2.6747
  153SAPE   H7Y17049   3.398   4.515   9.557  0.9748  2.4752  1.0734
  153SAPE   C3817050   3.536   4.395   9.440  0.0442  0.5116 -0.7514
  153SAPE   H8X17051   3.501   4.289   9.444  0.1648  0.4891 -0.2807
  153SAPE   H8Y17052   3.644   4.407   9.416 -0.1987  3.7656 -0.3830
  153SAPE   C3917053   3.471   4.463   9.311 -0.2447 -0.0469 -0.6681
  153SAPE   H9X17054   3.542   4.546   9.291  0.3138  0.5400  3.4078
  153SAPE   H9Y17055   3.369   4.504   9.325  0.1230  0.4779  0.5388
  153SAPE  C31017056   3.470   4.367   9.194 -0.2885 -0.2051 -0.0968
  153SAPE  H10X17057   3.390   4.300   9.231 -2.3494 -0.1838 -4.1983
  153SAPE  H10Y17058   3.567   4.313   9.197 -1.2817 -1.9406  3.6735
  153SAPE  C31117059   3.440   4.433   9.056 -0.4087  0.2576 -0.5859
  153SAPE  H11X17060   3.407   4.538   9.074 -1.8997  0.1700 -2.6758
  153SAPE  H11Y17061   3.366   4.389   8.986 -0.0024  2.7624 -2.6896
  153SAPE  C31217062   3.568   4.431   8.971 -0.1829  0.1731  0.1764
  153SAPE  H12X17063   3.592   4.324   8.953 -0.6214 -0.3585  2.5466
  153SAPE  H12Y17064   3.648   4.470   9.037  1.6600 -1.8770 -0.7842
  153SAPE  C31317065   3.552   4.493   8.834 -1.2156  0.1961  0.3919
  153SAPE  H13X17066   3.557   4.603   8.839  2.1369  0.2660 -2.4855
  153SAPE  H13Y17067   3.460   4.455   8.783 -0.7445  0.6780 -0.8399
  153SAPE  C31417068   3.660   4.456   8.730 -0.5025  0.4528  0.8420
  153SAPE  H14X17069   3.647   4.353   8.692 -0.1996 -0.1389  2.3061
  153SAPE  H14Y17070   3.759   4.472   8.778  1.0649  0.2725 -2.2082
  153SAPE  C31517071   3.662   4.557   8.616  0.4050 -0.0068 -0.4630
  153SAPE  H15X17072   3.673   4.661   8.655 -1.4818  0.2430 -0.5442
  153SAPE  H15Y17073   3.565   4.542   8.565  0.1243  0.8352 -0.1863
  153SAPE  C31617074   3.772   4.529   8.511 -0.2800 -0.1616  0.0675
  153SAPE  H16X17075   3.754   4.436   8.451  1.5529  0.9504 -2.3064
  153SAPE  H16Y17076   3.875   4.515   8.550 -1.0949  1.0651  2.7296
  153SAPE  C31717077   3.777   4.634   8.392  0.3843 -0.0204  0.1146
  153SAPE  H17X17078   3.690   4.616   8.326 -1.0456 -1.9869  2.4413
  153SAPE  H17Y17079   3.864   4.593   8.336  1.8714  0.7860  1.7764
  153SAPE  C31817080   3.808   4.779   8.424 -0.0525  0.5436 -0.2746
  153SAPE  H18X17081   3.720   4.827   8.473  0.9196  0.7880  1.2870
  153SAPE  H18Y17082   3.828   4.825   8.325  0.1222 -0.7999 -0.8704
  153SAPE  H18Z17083   3.888   4.781   8.501 -0.3496  2.7065  0.0116
  154SAPE     N17084   4.787   4.497  10.823 -0.3229 -0.6281  0.2509
  154SAPE   HN117085   4.780   4.601  10.833 -0.8312 -0.8350  2.4346
  154SAPE   HN217086   4.727   4.447  10.891  0.9260 -1.8843  0.4420
  154SAPE   HN317087   4.885   4.467  10.837  0.8653  1.7624 -2.3691
  154SAPE   C1217088   4.748   4.465  10.681  0.1290 -0.3316 -0.5399
  154SAPE  H12A17089   4.814   4.522  10.612  0.4711 -1.8537 -1.5124
  154SAPE  H12B17090   4.645   4.498  10.657  0.4696  0.5484 -0.8104
  154SAPE   C1117091   4.760   4.315  10.644 -0.3533  0.0476  0.2294
  154SAPE  H11A17092   4.869   4.298  10.649 -0.6180 -1.4459  1.6078
  154SAPE  H11B17093   4.732   4.300  10.538 -0.3858 -1.1203  0.3914
  154SAPE     P17094   4.536   4.191  10.714  0.5147 -0.5264 -0.2472
  154SAPE   O1317095   4.542   4.054  10.667  0.2817 -0.2461  0.0610
  154SAPE   O1417096   4.464   4.225  10.845 -0.3974 -0.2016 -0.3282
  154SAPE   O1217097   4.687   4.235  10.738  0.1892 -0.4358 -0.1530
  154SAPE   O1117098   4.479   4.285  10.597 -0.2965 -0.8606  0.1011
  154SAPE    C117099   4.374   4.232  10.512  0.2387 -0.4503  0.5895
  154SAPE    HA17100   4.398   4.130  10.476 -0.8107 -0.1892 -0.8806
  154SAPE    HB17101   4.279   4.220  10.570 -1.6695 -0.5983 -2.4851
  154SAPE    C217102   4.360   4.320  10.378 -0.5732 -0.1438  0.5234
  154SAPE    HS17103   4.264   4.297  10.328  1.4043 -1.4916 -2.7938
  154SAPE   O2117104   4.473   4.283  10.288  0.6177  0.3287 -0.1396
  154SAPE   C2117105   4.430   4.234  10.172 -0.1621 -0.1629 -0.2171
  154SAPE   O2217106   4.322   4.228  10.132 -0.0977  0.4137  0.6150
  154SAPE   C2217107   4.554   4.201  10.082 -0.5781 -0.4067 -0.0817
  154SAPE   H2R17108   4.639   4.252  10.131  0.9465 -1.5757 -1.4159
  154SAPE   H2S17109   4.577   4.092  10.091 -0.6864 -0.2427  2.6269
  154SAPE    C317110   4.369   4.481  10.399  0.6004 -0.3265 -0.1531
  154SAPE    HX17111   4.461   4.503  10.457 -1.2878  0.8513  2.4812
  154SAPE    HY17112   4.291   4.511  10.472  1.7963  1.1458  0.5482
  154SAPE   O3117113   4.373   4.559  10.279 -0.0833  0.1492  0.1593
  154SAPE   C3117114   4.251   4.611  10.242  0.1004  0.7983 -0.0183
  154SAPE   O3217115   4.140   4.568  10.283 -0.2425 -0.0167  0.4207
  154SAPE   C3217116   4.264   4.739  10.167 -0.3335  0.5207  0.3220
  154SAPE   H2X17117   4.370   4.751  10.135 -0.9327  0.4700 -1.7542
  154SAPE   H2Y17118   4.248   4.827  10.233  0.0148  0.5988  0.3038
  154SAPE   C2317119   4.554   4.236   9.932  0.2340 -0.5150 -0.0848
  154SAPE   H3R17120   4.525   4.343   9.918 -2.2568 -1.2281 -0.6737
  154SAPE   H3S17121   4.478   4.173   9.880  0.3097 -0.1773 -0.6118
  154SAPE   C2417122   4.702   4.211   9.875 -0.0730  0.5664  0.4792
  154SAPE   H4R17123   4.774   4.247   9.950  1.4838 -1.3152 -0.0549
  154SAPE   H4S17124   4.723   4.265   9.780  0.6240 -0.6025 -0.0482
  154SAPE   C2517125   4.717   4.065   9.857  0.0403  0.3482  0.9414
  154SAPE   H5R17126   4.729   4.013   9.954 -1.4520  1.8044  1.9248
  154SAPE   C2617127   4.733   3.997   9.744  0.5492 -0.4759 -0.2778
  154SAPE   H6R17128   4.727   3.888   9.744  0.1802 -0.4673  1.6265
  154SAPE   C2717129   4.732   4.049   9.598  0.3790 -0.2874 -0.2895
  154SAPE   H7R17130   4.736   4.160   9.597 -1.9951 -0.1445  0.9566
  154SAPE   H7S17131   4.645   4.017   9.536  0.0670  1.0194 -0.5471
  154SAPE   C2817132   4.865   4.004   9.534  0.1180  0.7513  0.3931
  154SAPE   H8R17133   4.899   3.903   9.562  0.9505  0.3073 -2.1472
  154SAPE   C2917134   4.926   4.056   9.424 -0.2917 -0.1923  0.3860
  154SAPE   H9R17135   5.026   4.016   9.402  0.0136  2.0323 -2.4233
  154SAPE  C21017136   4.883   4.177   9.348 -1.4332 -0.2389 -0.0337
  154SAPE  H10R17137   4.968   4.244   9.319 -1.3692  1.3883  3.6466
  154SAPE  H10S17138   4.822   4.244   9.413 -1.8249 -1.3720  0.7739
  154SAPE  C21117139   4.823   4.146   9.210  0.5675  0.7169 -0.1103
  154SAPE  H11R17140   4.791   4.042   9.197  0.1717  0.6122  1.5971
  154SAPE  C21217141   4.796   4.236   9.112 -0.4344  0.6993 -0.0609
  154SAPE  H12R17142   4.746   4.211   9.017  0.0897  0.8119 -0.3744
  154SAPE  C21317143   4.821   4.384   9.126 -0.1283  0.5504  0.5589
  154SAPE  H13R17144   4.881   4.407   9.217  0.8527 -1.5178  0.4591
  154SAPE  H13S17145   4.722   4.433   9.133 -0.7131 -0.2630 -1.8282
  154SAPE  C21417146   4.894   4.444   9.009 -0.7133 -0.3510  0.2532
  154SAPE  H14R17147   4.994   4.481   9.037 -0.5907  0.0268 -0.6685
  154SAPE  C21517148   4.851   4.458   8.887  0.7693 -0.1872 -0.1384
  154SAPE  H15R17149   4.915   4.510   8.814  0.3337  1.2303  0.4682
  154SAPE  C21617150   4.717   4.410   8.834  0.1364  0.1600  0.4726
  154SAPE  H16R17151   4.648   4.363   8.908  0.8246 -2.6536 -0.5881
  154SAPE  H16S17152   4.724   4.327   8.760  2.5034  0.8823 -0.1634
  154SAPE  C21717153   4.628   4.525   8.791  0.0216 -0.3790 -0.1114
  154SAPE  H17R17154   4.616   4.604   8.868 -0.6190 -1.5229  0.9919
  154SAPE  H17S17155   4.526   4.484   8.775  0.1425 -0.5737 -0.4015
  154SAPE  C21817156   4.674   4.601   8.666 -0.3123  0.0586 -0.0222
  154SAPE  H18R17157   4.784   4.613   8.680 -0.4700  0.9469  0.4544
  154SAPE  H18S17158   4.617   4.696   8.669 -0.7837 -0.2761  1.5813
  154SAPE  C21917159   4.636   4.544   8.528  0.1309  0.2633 -0.3890
  154SAPE  H19R17160   4.528   4.519   8.536 -0.2980  1.2278 -3.0021
  154SAPE  H19S17161   4.692   4.448   8.516 -2.1693 -1.1092 -0.3963
  154SAPE  C22017162   4.670   4.636   8.411  0.5728  0.5016  0.6541
  154SAPE  H20R17163   4.778   4.660   8.414  1.3108 -2.2390 -2.0500
  154SAPE  H20S17164   4.614   4.731   8.423  0.0398  0.1641  0.8614
  154SAPE  H20T17165   4.642   4.592   8.313 -0.3183  0.9091  0.7089
  154SAPE   C3317166   4.176   4.747  10.045  0.5940 -0.7045  0.5331
  154SAPE   H3X17167   4.184   4.845   9.993 -2.7316 -2.2825 -3.2013
  154SAPE   H3Y17168   4.072   4.743  10.083 -0.0082 -1.0758 -1.1244
  154SAPE   C3417169   4.206   4.636   9.935  0.4916  0.1546  0.1928
  154SAPE   H4X17170   4.114   4.625   9.875  1.0643 -1.6744 -0.3786
  154SAPE   H4Y17171   4.221   4.540   9.989 -0.9555 -1.2718 -1.8987
  154SAPE   C3517172   4.321   4.682   9.847  0.1584  0.9094  0.8172
  154SAPE   H5X17173   4.414   4.691   9.906  0.3364  1.9529  0.3817
  154SAPE   H5Y17174   4.298   4.786   9.816 -0.0667  0.3854 -0.8785
  154SAPE   C3617175   4.341   4.602   9.715 -0.3124  0.7182 -0.4388
  154SAPE   H6X17176   4.245   4.610   9.660 -1.0391  0.8683  0.8426
  154SAPE   H6Y17177   4.370   4.495   9.723  0.5984  1.0443  0.7894
  154SAPE   C3717178   4.440   4.683   9.628  0.1352 -0.4573  0.2028
  154SAPE   H7X17179   4.529   4.701   9.692 -0.3854  0.1748  0.7485
  154SAPE   H7Y17180   4.389   4.780   9.611  0.4443 -0.2087  0.6986
  154SAPE   C3817181   4.476   4.622   9.485  0.3329  0.5944 -0.2488
  154SAPE   H8X17182   4.491   4.513   9.498 -0.8533  0.6052  1.4750
  154SAPE   H8Y17183   4.564   4.681   9.453  0.7688 -0.1232 -0.3675
  154SAPE   C3917184   4.381   4.644   9.358 -0.2754  0.5425 -0.4473
  154SAPE   H9X17185   4.350   4.750   9.345 -3.0560 -0.2228 -0.4717
  154SAPE   H9Y17186   4.287   4.585   9.367  1.0274 -1.1080  3.0826
  154SAPE  C31017187   4.453   4.599   9.234 -0.1284  0.4655  0.1000
  154SAPE  H10X17188   4.483   4.494   9.255  0.6127  0.7129  0.2940
  154SAPE  H10Y17189   4.539   4.661   9.203 -0.7643  0.0980 -2.5167
  154SAPE  C31117190   4.349   4.581   9.114 -0.5098 -0.8094 -0.1913
  154SAPE  H11X17191   4.260   4.527   9.153 -1.2221  0.0110 -0.6664
  154SAPE  H11Y17192   4.408   4.523   9.041 -0.1355  2.2406 -2.4053
  154SAPE  C31217193   4.306   4.714   9.052 -0.4056  0.0633 -0.4907
  154SAPE  H12X17194   4.397   4.759   9.006 -0.0413 -0.8834 -0.7147
  154SAPE  H12Y17195   4.265   4.778   9.133 -1.3905 -0.8302 -0.2767
  154SAPE  C31317196   4.197   4.696   8.941 -0.1858  1.0192 -0.8536
  154SAPE  H13X17197   4.135   4.787   8.922 -0.5347  0.6076 -1.6887
  154SAPE  H13Y17198   4.119   4.631   8.988  0.1229 -0.9600 -3.0427
  154SAPE  C31417199   4.255   4.641   8.809  1.0837  0.1152 -0.5076
  154SAPE  H14X17200   4.278   4.533   8.825  0.3865  0.3740  2.7369
  154SAPE  H14Y17201   4.353   4.685   8.786  0.5649  2.3849  1.4217
  154SAPE  C31517202   4.168   4.663   8.682  0.1759 -0.3439 -0.4490
  154SAPE  H15X17203   4.142   4.771   8.681  0.3765 -0.2468  1.6034
  154SAPE  H15Y17204   4.078   4.598   8.682 -0.5043  0.5840  0.2550
  154SAPE  C31617205   4.249   4.613   8.555  0.2159 -0.0879 -0.2118
  154SAPE  H16X17206   4.233   4.504   8.546 -0.3308 -0.0549  0.3053
  154SAPE  H16Y17207   4.355   4.640   8.570  0.3811 -0.4597 -0.7045
  154SAPE  C31717208   4.200   4.681   8.417 -0.0366 -0.1501  0.2732
  154SAPE  H17X17209   4.229   4.787   8.429  1.5269 -0.1672 -2.9604
  154SAPE  H17Y17210   4.091   4.678   8.398  0.4607 -3.8274 -2.6058
  154SAPE  C31817211   4.274   4.630   8.295  0.0792  0.5824  0.3673
  154SAPE  H18X17212   4.225   4.651   8.198 -0.6862 -2.0524  0.1405
  154SAPE  H18Y17213   4.271   4.519   8.303  2.3949  0.3903 -0.9492
  154SAPE  H18Z17214   4.373   4.680   8.298  0.7567 -0.4296 -2.7443
  155SAPE     N17215   5.674   5.462  10.950 -0.4608  0.2457  0.2558
  155SAPE   HN117216   5.687   5.377  10.892  1.9151 -1.7203  3.4779
  155SAPE   HN217217   5.744   5.534  10.920  0.6995 -1.5495 -1.4951
  155SAPE   HN317218   5.701   5.423  11.042  1.0552 -0.4313 -0.4481
  155SAPE   C1217219   5.530   5.520  10.980 -0.2679  0.1497  0.5876
  155SAPE  H12A17220   5.467   5.436  11.016  1.8157 -2.5163 -1.7384
  155SAPE  H12B17221   5.496   5.552  10.880  0.6105 -0.7009  0.0002
  155SAPE   C1117222   5.532   5.653  11.059  1.2840 -0.0196  0.1644
  155SAPE  H11A17223   5.576   5.637  11.160  0.5427 -1.3418  0.2870
  155SAPE  H11B17224   5.424   5.676  11.074  1.5490  0.9016  0.7093
  155SAPE     P17225   5.530   5.888  10.948  0.6656  0.4041 -0.2892
  155SAPE   O1317226   5.420   5.920  11.038  0.1522  0.2411  0.1648
  155SAPE   O1417227   5.622   5.998  10.918 -0.2095 -0.0100 -0.0431
  155SAPE   O1217228   5.609   5.758  10.998 -0.3753 -0.1035  0.4012
  155SAPE   O1117229   5.473   5.834  10.815 -0.0408 -0.3802 -0.7682
  155SAPE    C117230   5.562   5.779  10.719  0.2215  0.7283 -0.4278
  155SAPE    HA17231   5.649   5.844  10.695  1.5355 -0.0848  1.9109
  155SAPE    HB17232   5.607   5.684  10.755 -1.5110 -1.3355 -3.4544
  155SAPE    C217233   5.496   5.739  10.588 -0.0689  0.1128  0.1780
  155SAPE    HS17234   5.570   5.690  10.521  0.5563  1.5388 -0.2029
  155SAPE   O2117235   5.444   5.853  10.513  0.3800  0.0100  0.1283
  155SAPE   C2117236   5.536   5.925  10.448  0.5939 -0.4438 -0.9494
  155SAPE   O2217237   5.650   5.891  10.430 -0.5041 -0.1912 -0.6495
  155SAPE   C2217238   5.475   6.059  10.407 -0.3964 -0.6890 -0.2940
  155SAPE   H2R17239   5.368   6.075  10.433 -0.3198 -2.1594  1.0083
  155SAPE   H2S17240   5.530   6.135  10.466 -1.3853  0.1088 -0.3854
  155SAPE    C317241   5.385   5.632  10.602  0.2063 -0.1184  0.4550
  155SAPE    HX17242   5.295   5.674  10.653  0.1496 -1.1365  1.2006
  155SAPE    HY17243   5.429   5.564  10.677  0.0807 -1.8975 -1.0496
  155SAPE   O3117244   5.342   5.567  10.481 -0.3908 -0.3006  0.1821
  155SAPE   C3117245   5.249   5.628  10.415  0.3158 -0.3841 -0.3936
  155SAPE   O3217246   5.180   5.720  10.456  0.2501  0.4079  0.1621
  155SAPE   C3217247   5.231   5.567  10.274 -0.1734 -0.5123 -0.1805
  155SAPE   H2X17248   5.124   5.570  10.244 -0.0542 -1.2295 -0.6913
  155SAPE   H2Y17249   5.275   5.465  10.276  0.3142 -0.2997  0.0481
  155SAPE   C2317250   5.496   6.089  10.263  0.2238 -0.2431  0.0893
  155SAPE   H3R17251   5.447   6.008  10.206 -2.3213  0.1250  1.6875
  155SAPE   H3S17252   5.606   6.088  10.247  0.4695 -0.0006  1.6132
  155SAPE   C2417253   5.428   6.217  10.220 -0.5765 -0.1770  0.7712
  155SAPE   H4R17254   5.320   6.211  10.242 -0.6915 -0.8946  0.0514
  155SAPE   H4S17255   5.425   6.228  10.109  2.0317  1.6404  0.8515
  155SAPE   C2517256   5.507   6.338  10.269  0.2501 -0.9045 -0.0026
  155SAPE   H5R17257   5.506   6.362  10.376 -1.8807 -0.2148 -0.1539
  155SAPE   C2617258   5.575   6.424  10.191  0.1833  0.1955 -0.1875
  155SAPE   H6R17259   5.616   6.512  10.243  1.8309 -0.8033  0.2282
  155SAPE   C2717260   5.604   6.412  10.041  0.3153 -0.5315 -0.5501
  155SAPE   H7R17261   5.512   6.449   9.991  0.9786  0.6829 -0.8994
  155SAPE   H7S17262   5.622   6.307  10.010  0.7789 -0.2421 -1.2736
  155SAPE   C2817263   5.726   6.496  10.012  0.1370 -0.4117  0.6514
  155SAPE   H8R17264   5.779   6.552  10.090 -0.1593 -0.8012  1.1381
  155SAPE   C2917265   5.763   6.515   9.885 -0.3549  0.4124  0.0106
  155SAPE   H9R17266   5.856   6.573   9.873 -0.6910  0.4038 -3.2927
  155SAPE  C21017267   5.697   6.469   9.757  0.2545  0.0281 -0.2776
  155SAPE  H10R17268   5.613   6.401   9.782  0.6318  0.3626  1.9631
  155SAPE  H10S17269   5.767   6.403   9.701  1.0723  1.1256 -0.5637
  155SAPE  C21117270   5.656   6.584   9.668  0.8339  0.2127  0.2462
  155SAPE  H11R17271   5.618   6.677   9.712  1.5695  0.9962 -0.7486
  155SAPE  C21217272   5.666   6.584   9.531  0.5427  0.2368 -0.0220
  155SAPE  H12R17273   5.625   6.671   9.479  1.5646  1.4388  1.1648
  155SAPE  C21317274   5.717   6.470   9.454  0.0315  0.5875  0.3964
  155SAPE  H13R17275   5.664   6.378   9.487  1.0567  0.2156  1.0450
  155SAPE  H13S17276   5.825   6.452   9.474  0.8958  1.7100 -2.9517
  155SAPE  C21417277   5.689   6.492   9.306  0.0377 -0.3173 -0.4526
  155SAPE  H14R17278   5.590   6.529   9.276  0.7075 -0.9160 -3.6132
  155SAPE  C21517279   5.769   6.467   9.202 -0.0533  0.5071  0.2057
  155SAPE  H15R17280   5.727   6.486   9.102 -1.4378  1.0888  0.8794
  155SAPE  C21617281   5.902   6.408   9.204  0.4367 -0.3912 -0.4156
  155SAPE  H16R17282   5.961   6.429   9.295 -2.9103 -1.9817  2.2102
  155SAPE  H16S17283   5.965   6.460   9.127 -2.6733  2.7140 -1.0069
  155SAPE  C21717284   5.901   6.254   9.185  0.1032 -0.3764  0.2101
  155SAPE  H17R17285   5.850   6.189   9.258 -0.5705 -3.2280 -2.6484
  155SAPE  H17S17286   6.005   6.219   9.207  0.7951  2.5215  1.7464
  155SAPE  C21817287   5.832   6.215   9.051  0.5944  0.0141  0.5502
  155SAPE  H18R17288   5.727   6.253   9.049  0.4724 -0.3661 -0.8770
  155SAPE  H18S17289   5.827   6.104   9.042 -0.8213 -0.0229  1.5090
  155SAPE  C21917290   5.907   6.254   8.918  0.0996 -0.5672  0.1856
  155SAPE  H19R17291   6.014   6.226   8.926  0.2460 -0.3229 -0.8382
  155SAPE  H19S17292   5.933   6.362   8.913  1.4103 -0.8869 -0.1326
  155SAPE  C22017293   5.838   6.191   8.792  0.6567 -0.4170 -0.2640
  155SAPE  H20R17294   5.736   6.234   8.784  0.2665 -1.3344 -0.2458
  155SAPE  H20S17295   5.831   6.082   8.812 -2.9136 -0.2166 -0.1427
  155SAPE  H20T17296   5.895   6.219   8.701 -0.5488  2.5906 -0.1515
  155SAPE   C3317297   5.310   5.657  10.173  0.1055  0.0515 -0.3210
  155SAPE   H3X17298   5.412   5.667  10.217  0.4115  0.6041 -1.1315
  155SAPE   H3Y17299   5.267   5.757  10.155 -0.2801 -0.1517 -0.5324
  155SAPE   C3417300   5.326   5.579  10.047  0.2129 -0.6078 -0.3636
  155SAPE   H4X17301   5.223   5.558  10.011  0.1026 -1.9762  0.6912
  155SAPE   H4Y17302   5.371   5.479  10.063 -1.8678 -1.2490  1.7967
  155SAPE   C3517303   5.404   5.653   9.932  0.3292  0.4151  0.2669
  155SAPE   H5X17304   5.511   5.664   9.958  0.2753  1.4714  0.0545
  155SAPE   H5Y17305   5.364   5.756   9.923  0.9051  0.6395  0.2451
  155SAPE   C3617306   5.373   5.606   9.786 -0.2176 -0.2198  0.0304
  155SAPE   H6X17307   5.267   5.625   9.761  0.0866 -1.0483 -1.9740
  155SAPE   H6Y17308   5.370   5.495   9.778 -0.5467 -0.1661 -0.5991
  155SAPE   C3717309   5.459   5.664   9.671  0.3561  0.2557 -1.0279
  155SAPE   H7X17310   5.561   5.622   9.685  0.4233  0.4538 -0.9408
  155SAPE   H7Y17311   5.458   5.774   9.686 -1.2465  0.2869 -1.3103
  155SAPE   C3817312   5.398   5.636   9.530 -0.0048  0.2346  0.8145
  155SAPE   H8X17313   5.292   5.667   9.528  0.5616  2.2691  0.8396
  155SAPE   H8Y17314   5.402   5.526   9.517 -0.5513  0.6253 -3.1895
  155SAPE   C3917315   5.477   5.700   9.418 -0.3642 -0.1247 -0.5155
  155SAPE   H9X17316   5.578   5.656   9.435 -0.1102  0.3401 -0.8180
  155SAPE   H9Y17317   5.471   5.810   9.430  0.1376 -0.1168 -0.3110
  155SAPE  C31017318   5.420   5.664   9.276 -0.5228 -0.1958  0.2675
  155SAPE  H10X17319   5.356   5.754   9.263  0.1247  0.2345  0.0389
  155SAPE  H10Y17320   5.367   5.566   9.277  2.3046 -1.8273  2.8275
  155SAPE  C31117321   5.532   5.670   9.169  0.3180 -0.3843 -0.2602
  155SAPE  H11X17322   5.610   5.596   9.195  0.4507  0.0790  0.6665
  155SAPE  H11Y17323   5.582   5.769   9.170 -0.3182  0.0685 -4.0174
  155SAPE  C31217324   5.476   5.659   9.029  0.1433 -0.7769 -0.2797
  155SAPE  H12X17325   5.406   5.742   9.004  0.4565 -0.7761 -1.1771
  155SAPE  H12Y17326   5.410   5.570   9.030 -0.4410 -0.3723 -1.6650
  155SAPE  C31317327   5.578   5.668   8.920 -1.1644 -0.0621  0.3289
  155SAPE  H13X17328   5.664   5.601   8.936 -0.5259  0.5784 -0.3960
  155SAPE  H13Y17329   5.619   5.770   8.905 -1.2739 -0.1984 -0.9491
  155SAPE  C31417330   5.518   5.622   8.788  0.6002  0.1418 -0.3700
  155SAPE  H14X17331   5.431   5.688   8.768  0.2770  0.5122  2.1227
  155SAPE  H14Y17332   5.471   5.521   8.794  1.5330 -0.2620  0.2970
  155SAPE  C31517333   5.625   5.622   8.680  1.1582  0.0668  0.2809
  155SAPE  H15X17334   5.720   5.580   8.720  1.2974 -0.0313 -0.1536
  155SAPE  H15Y17335   5.644   5.728   8.655 -0.4064  1.0838  3.1219
  155SAPE  C31617336   5.578   5.535   8.556 -0.4642 -0.2013  0.2095
  155SAPE  H16X17337   5.468   5.545   8.546 -0.3318  1.5532  0.2915
  155SAPE  H16Y17338   5.619   5.436   8.586  2.8798  1.2925  0.8154
  155SAPE  C31717339   5.644   5.567   8.424  0.2245 -0.1104 -0.1440
  155SAPE  H17X17340   5.621   5.481   8.358  1.5053  0.0894 -0.8480
  155SAPE  H17Y17341   5.753   5.582   8.435  0.7262 -3.3801 -0.1198
  155SAPE  C31817342   5.581   5.701   8.366 -0.1217 -0.3595  0.1578
  155SAPE  H18X17343   5.471   5.701   8.380 -0.0166 -0.4005  0.9873
  155SAPE  H18Y17344   5.602   5.715   8.257 -0.8295  0.0496  0.0726
  155SAPE  H18Z17345   5.630   5.783   8.422 -1.1379  1.1000 -1.0327
  156SAPE     N17346   2.762   3.817  10.447 -0.1641  0.2956  0.6815
  156SAPE   HN117347   2.848   3.870  10.468 -0.7427  2.0380 -1.1664
  156SAPE   HN217348   2.777   3.715  10.465  0.7309  0.0100 -1.4944
  156SAPE   HN317349   2.738   3.832  10.346 -1.9660  1.2281  1.2294
  156SAPE   C1217350   2.641   3.873  10.522 -0.1337 -0.6432 -0.0922
  156SAPE  H12A17351   2.599   3.966  10.478 -3.3888 -2.1429 -0.3021
  156SAPE  H12B17352   2.657   3.884  10.631 -0.8694  0.6766 -0.1089
  156SAPE   C1117353   2.521   3.774  10.511 -0.5863  0.0018  0.8325
  156SAPE  H11A17354   2.488   3.794  10.407  1.0803 -0.4304  0.2033
  156SAPE  H11B17355   2.443   3.810  10.582  0.6432 -0.5223  2.4774
  156SAPE     P17356   2.448   3.533  10.519 -0.0612  0.1551 -0.0828
  156SAPE   O1317357   2.501   3.402  10.570 -0.4885  0.1035 -0.5039
  156SAPE   O1417358   2.321   3.588  10.577 -0.2968  0.0035  0.5901
  156SAPE   O1217359   2.563   3.639  10.539 -0.2498 -0.6292 -0.2364
  156SAPE   O1117360   2.425   3.527  10.364 -0.5214  1.0512  0.1644
  156SAPE    C117361   2.543   3.506  10.283 -0.1717 -0.2871  1.0123
  156SAPE    HA17362   2.639   3.547  10.319 -0.8743 -0.1929  2.8437
  156SAPE    HB17363   2.552   3.396  10.264  0.5361 -0.5079  2.5847
  156SAPE    C217364   2.515   3.570  10.143 -0.0149 -0.4231 -0.0278
  156SAPE    HS17365   2.452   3.660  10.164  1.9247  0.2714  3.2911
  156SAPE   O2117366   2.450   3.480  10.053 -0.9228  0.1777 -0.0234
  156SAPE   C2117367   2.377   3.535   9.964 -0.8864 -0.4091 -0.0720
  156SAPE   O2217368   2.351   3.652   9.954  0.8183  0.0244 -0.2339
  156SAPE   C2217369   2.322   3.435   9.860 -0.0538  0.2124 -0.0244
  156SAPE   H2R17370   2.392   3.349   9.860 -2.4289 -1.7570  0.6902
  156SAPE   H2S17371   2.218   3.407   9.884  0.4602  0.6697  2.9221
  156SAPE    C317372   2.646   3.627  10.076 -0.8079  0.2864  0.2448
  156SAPE    HX17373   2.687   3.710  10.137  0.6068  0.2796 -0.6607
  156SAPE    HY17374   2.621   3.671   9.977  1.3573  0.5001 -0.2295
  156SAPE   O3117375   2.746   3.525  10.042 -0.2653 -1.1647  0.1237
  156SAPE   C3117376   2.845   3.513  10.130 -0.4823  0.4504  0.1895
  156SAPE   O3217377   2.854   3.569  10.238  0.2742 -0.4553  0.1997
  156SAPE   C3217378   2.941   3.409  10.071  0.1856 -0.7237 -0.5407
  156SAPE   H2X17379   2.920   3.410   9.962  0.8987  1.4821 -0.6813
  156SAPE   H2Y17380   2.905   3.309  10.105  0.6276 -1.1827 -1.4064
  156SAPE   C2317381   2.319   3.498   9.716 -0.7428  0.0474  0.0165
  156SAPE   H3R17382   2.252   3.587   9.715  0.4652  0.9729 -1.1925
  156SAPE   H3S17383   2.287   3.415   9.650 -1.1479  0.4014 -0.2402
  156SAPE   C2417384   2.462   3.537   9.664  0.3097 -0.6826  0.3720
  156SAPE   H4R17385   2.487   3.620   9.733  1.5499 -0.4531 -0.3343
  156SAPE   H4S17386   2.464   3.574   9.559  1.5034  1.5797  1.1634
  156SAPE   C2517387   2.567   3.434   9.677  0.6048  0.4766 -0.3205
  156SAPE   H5R17388   2.641   3.457   9.755 -2.4839  3.3418  1.8935
  156SAPE   C2617389   2.591   3.318   9.613 -0.4252 -1.3821 -0.1590
  156SAPE   H6R17390   2.681   3.258   9.633  0.6064  0.5394  1.1261
  156SAPE   C2717391   2.521   3.269   9.493 -0.0887  0.1780 -0.3912
  156SAPE   H7R17392   2.438   3.337   9.461  0.7486  0.8517 -1.1799
  156SAPE   H7S17393   2.488   3.165   9.515  2.0838 -0.7477 -1.4231
  156SAPE   C2817394   2.613   3.273   9.375  0.7960  0.3563 -0.2526
  156SAPE   H8R17395   2.637   3.371   9.332 -1.2300  0.2792 -1.6277
  156SAPE   C2917396   2.665   3.165   9.309  0.5017 -0.2195 -0.9164
  156SAPE   H9R17397   2.714   3.190   9.214  0.0147 -1.7485 -1.5764
  156SAPE  C21017398   2.651   3.023   9.339  0.4034 -0.1096 -0.2436
  156SAPE  H10R17399   2.640   3.013   9.449  0.0052  1.8417 -0.0844
  156SAPE  H10S17400   2.736   2.957   9.312  0.8568 -0.5144  2.0856
  156SAPE  C21117401   2.526   2.976   9.266 -0.7389  0.1408  0.3888
  156SAPE  H11R17402   2.428   2.998   9.312 -1.9541  0.0571 -2.0995
  156SAPE  C21217403   2.533   2.930   9.143  0.0558 -0.3996 -0.0884
  156SAPE  H12R17404   2.435   2.918   9.094 -0.2904  2.0433 -0.0306
  156SAPE  C21317405   2.651   2.911   9.055  0.3638 -0.8882  0.0847
  156SAPE  H13R17406   2.746   2.939   9.106  0.3665 -0.9440  0.1094
  156SAPE  H13S17407   2.639   2.984   8.972  0.8162  1.1810  1.7821
  156SAPE  C21417408   2.666   2.765   9.016  0.3275 -0.2743  0.1183
  156SAPE  H14R17409   2.719   2.702   9.090  1.4944  1.7850  1.0977
  156SAPE  C21517410   2.621   2.713   8.898  0.0965  0.1353  0.0769
  156SAPE  H15R17411   2.635   2.605   8.883  0.5064  0.2848 -0.6215
  156SAPE  C21617412   2.545   2.792   8.794  0.3017  0.0735 -0.3972
  156SAPE  H16R17413   2.559   2.901   8.810 -1.3980  0.0034  1.7565
  156SAPE  H16S17414   2.439   2.760   8.803  0.4328 -0.6044 -1.2239
  156SAPE  C21717415   2.612   2.753   8.660 -0.8186  0.1902 -0.4670
  156SAPE  H17R17416   2.632   2.643   8.656  1.8479  0.6858 -1.5342
  156SAPE  H17S17417   2.713   2.799   8.656 -0.6656 -0.2527 -2.0038
  156SAPE  C21817418   2.526   2.795   8.539 -0.4156  0.1606  0.5967
  156SAPE  H18R17419   2.475   2.891   8.561 -0.9943 -0.0249  0.0730
  156SAPE  H18S17420   2.444   2.721   8.526 -0.3117  0.0515  0.5619
  156SAPE  C21917421   2.594   2.791   8.398 -0.5770  0.2215 -0.2911
  156SAPE  H19R17422   2.637   2.690   8.384 -3.5742 -1.4527  1.9939
  156SAPE  H19S17423   2.682   2.858   8.406  0.6091 -1.4366  0.6496
  156SAPE  C22017424   2.502   2.846   8.286 -0.3254 -0.3894 -0.3562
  156SAPE  H20R17425   2.557   2.855   8.190  0.5558  1.1760  0.2873
  156SAPE  H20S17426   2.460   2.948   8.301  2.2726  0.6280  0.1714
  156SAPE  H20T17427   2.419   2.772   8.281 -0.1793 -0.6357  0.7414
  156SAPE   C3317428   3.085   3.409  10.116 -0.8074 -0.4850  0.4843
  156SAPE   H3X17429   3.115   3.303  10.132  0.9663  0.0471  0.9164
  156SAPE   H3Y17430   3.091   3.436  10.224  0.0665 -0.1637  0.3604
  156SAPE   C3417431   3.177   3.498  10.027 -0.1859  0.5344 -0.0128
  156SAPE   H4X17432   3.283   3.502  10.060 -0.4370  1.6815  0.6975
  156SAPE   H4Y17433   3.139   3.602  10.015 -1.3984  0.0488 -0.4357
  156SAPE   C3517434   3.202   3.453   9.885  0.0450  0.0204  0.8308
  156SAPE   H5X17435   3.102   3.464   9.838 -0.3797 -2.8243  0.9788
  156SAPE   H5Y17436   3.234   3.349   9.864 -0.6018  0.0221 -0.2004
  156SAPE   C3617437   3.303   3.546   9.814 -0.2296  0.2367  0.4319
  156SAPE   H6X17438   3.403   3.528   9.858 -0.5269  2.9703  2.3773
  156SAPE   H6Y17439   3.282   3.652   9.840  2.8584  1.8581 -3.0533
  156SAPE   C3717440   3.306   3.526   9.663  0.1042  0.0650  0.3204
  156SAPE   H7X17441   3.207   3.551   9.617  0.9305 -1.2371 -2.2698
  156SAPE   H7Y17442   3.310   3.419   9.633 -0.8230  0.2019 -0.3318
  156SAPE   C3817443   3.418   3.585   9.579 -0.5861 -0.4241 -0.4513
  156SAPE   H8X17444   3.511   3.529   9.600 -1.2523 -0.6884  1.8739
  156SAPE   H8Y17445   3.445   3.689   9.609  3.4214 -1.1425 -1.4038
  156SAPE   C3917446   3.379   3.592   9.425 -0.1833  0.0753  0.3750
  156SAPE   H9X17447   3.294   3.662   9.408 -0.9286  0.2357  4.3926
  156SAPE   H9Y17448   3.353   3.488   9.397  0.6597  0.1372 -0.6862
  156SAPE  C31017449   3.488   3.624   9.322  0.2866 -0.4212 -0.1194
  156SAPE  H10X17450   3.558   3.539   9.336 -0.2249 -0.5653  1.6650
  156SAPE  H10Y17451   3.539   3.717   9.356  0.7826  0.3045 -2.7790
  156SAPE  C31117452   3.425   3.644   9.180 -0.4590 -0.3504  0.7114
  156SAPE  H11X17453   3.495   3.708   9.122 -2.4713  1.6098  0.4042
  156SAPE  H11Y17454   3.323   3.688   9.178 -0.1887  0.2543 -0.1225
  156SAPE  C31217455   3.418   3.513   9.103 -0.8087  0.5380 -0.1201
  156SAPE  H12X17456   3.349   3.441   9.151 -1.2467  0.5699 -0.6996
  156SAPE  H12Y17457   3.523   3.479   9.094 -0.5988  0.5065  2.0930
  156SAPE  C31317458   3.359   3.545   8.964 -0.4936  0.2950  0.5271
  156SAPE  H13X17459   3.434   3.591   8.895  0.7810 -2.1394  0.2206
  156SAPE  H13Y17460   3.275   3.615   8.978 -0.2011  1.2293 -2.0632
  156SAPE  C31417461   3.311   3.418   8.892 -0.6998  0.3075  0.4924
  156SAPE  H14X17462   3.233   3.379   8.961  0.1389  0.5398  1.5845
  156SAPE  H14Y17463   3.385   3.335   8.882 -0.9287  0.2858 -1.1132
  156SAPE  C31517464   3.270   3.448   8.745 -0.2218  0.4097  0.2760
  156SAPE  H15X17465   3.343   3.515   8.694  0.6879  0.3007  1.4109
  156SAPE  H15Y17466   3.165   3.486   8.744 -0.1313  0.7402  1.7646
  156SAPE  C31617467   3.260   3.319   8.656 -0.7531  0.0469  0.6141
  156SAPE  H16X17468   3.169   3.274   8.703  0.2903  0.7025  3.3798
  156SAPE  H16Y17469   3.345   3.248   8.665 -0.3710  0.4617  0.2872
  156SAPE  C31717470   3.245   3.347   8.511  0.3424 -0.5054 -0.0225
  156SAPE  H17X17471   3.340   3.390   8.474 -0.6107  0.1521 -1.7534
  156SAPE  H17Y17472   3.169   3.423   8.485  0.3609 -0.9298 -1.3653
  156SAPE  C31817473   3.214   3.221   8.425  0.3207 -0.2814  0.2324
  156SAPE  H18X17474   3.287   3.141   8.452  1.1439  0.6842  0.9216
  156SAPE  H18Y17475   3.224   3.253   8.319 -0.2843 -1.1481 -0.0904
  156SAPE  H18Z17476   3.111   3.188   8.446  0.2909 -1.0031 -0.9758
  157SAPE     N17477   1.514   3.914  10.650  0.5019 -0.0390  0.1386
  157SAPE   HN117478   1.501   4.006  10.699  1.4189 -0.9175  2.0978
  157SAPE   HN217479   1.520   3.856  10.736 -0.0849 -0.1759  0.0878
  157SAPE   HN317480   1.603   3.921  10.598 -0.3783  0.8846 -1.2824
  157SAPE   C1217481   1.403   3.873  10.575 -0.7001  0.7663  0.1660
  157SAPE  H12A17482   1.394   3.953  10.498  1.3894  2.0819  1.2419
  157SAPE  H12B17483   1.312   3.868  10.638 -0.5623 -0.0720  0.3047
  157SAPE   C1117484   1.429   3.732  10.506  0.4948 -0.1615  0.6611
  157SAPE  H11A17485   1.536   3.738  10.477  0.8866  2.2703  2.3769
  157SAPE  H11B17486   1.367   3.721  10.414  0.3150 -3.7027  1.1444
  157SAPE     P17487   1.319   3.514  10.584  0.4015 -0.1013 -0.0867
  157SAPE   O1317488   1.358   3.385  10.637 -0.2156  0.2215  0.2973
  157SAPE   O1417489   1.206   3.584  10.649  0.5925 -0.4561  0.4880
  157SAPE   O1217490   1.433   3.617  10.593  0.1619  0.2361  0.6557
  157SAPE   O1117491   1.286   3.501  10.426  0.3081 -0.2407  0.3433
  157SAPE    C117492   1.377   3.432  10.342 -0.1085 -0.2086  1.0749
  157SAPE    HA17493   1.456   3.502  10.310  0.9471 -1.4665  0.8940
  157SAPE    HB17494   1.430   3.350  10.396  0.0481 -1.5653 -1.0861
  157SAPE    C217495   1.306   3.370  10.218  0.3155  0.0697 -0.1465
  157SAPE    HS17496   1.377   3.338  10.138  1.3002 -0.6452  0.9989
  157SAPE   O2117497   1.220   3.470  10.165 -0.0467  0.1590 -0.2272
  157SAPE   C2117498   1.279   3.571  10.110 -0.8318  0.6636 -0.4195
  157SAPE   O2217499   1.392   3.586  10.067 -0.5595 -0.4435  0.0089
  157SAPE   C2217500   1.165   3.683  10.081  0.8039  0.3762 -0.3286
  157SAPE   H2R17501   1.084   3.637  10.142  0.7401 -0.9639 -1.4123
  157SAPE   H2S17502   1.196   3.779  10.128 -2.6478  0.9043  0.9963
  157SAPE    C317503   1.228   3.237  10.257 -0.1550  0.3724  0.5587
  157SAPE    HX17504   1.168   3.197  10.172  2.5141 -1.3827 -0.5414
  157SAPE    HY17505   1.155   3.274  10.332 -3.3522 -0.2008 -2.0900
  157SAPE   O3117506   1.311   3.129  10.319  0.2584 -0.0379  0.4537
  157SAPE   C3117507   1.388   3.053  10.242 -0.9174  0.2592 -0.3731
  157SAPE   O3217508   1.402   3.068  10.121 -0.0261 -0.0821 -0.3432
  157SAPE   C3217509   1.451   2.939  10.321  0.3472 -0.2734  0.2368
  157SAPE   H2X17510   1.432   2.950  10.429  2.5960  0.8336  0.5497
  157SAPE   H2Y17511   1.561   2.948  10.310  0.3178  0.0862  0.2511
  157SAPE   C2317512   1.124   3.693   9.934 -0.9050  0.0353 -0.6063
  157SAPE   H3R17513   1.024   3.741   9.936  0.0430  2.0394  1.9905
  157SAPE   H3S17514   1.107   3.588   9.903 -0.9806 -0.0169 -0.3913
  157SAPE   C2417515   1.230   3.758   9.843 -1.1938  0.5705  0.0874
  157SAPE   H4R17516   1.190   3.756   9.740  0.3853 -1.9507 -0.5309
  157SAPE   H4S17517   1.319   3.691   9.843 -0.1079  2.0106 -0.8482
  157SAPE   C2517518   1.270   3.903   9.885  0.3239 -0.0635  0.5286
  157SAPE   H5R17519   1.213   3.947   9.968  1.4327  1.9195  0.2753
  157SAPE   C2617520   1.362   3.983   9.827  0.2989 -0.3570  0.3166
  157SAPE   H6R17521   1.369   4.087   9.864 -1.7621 -0.0236 -0.1937
  157SAPE   C2717522   1.433   3.948   9.700  0.0924 -0.9100 -0.9798
  157SAPE   H7R17523   1.367   3.924   9.613 -0.7932 -2.1902  0.0312
  157SAPE   H7S17524   1.484   3.852   9.723  3.2424  1.3598  1.9511
  157SAPE   C2817525   1.542   4.052   9.669  0.6581 -0.4777 -0.2745
  157SAPE   H8R17526   1.615   4.074   9.748 -0.5431  1.1688  0.4133
  157SAPE   C2917527   1.553   4.116   9.553  0.3606  0.1008  0.4471
  157SAPE   H9R17528   1.643   4.176   9.531  1.6359 -1.8099  0.3134
  157SAPE  C21017529   1.462   4.096   9.431  0.4158  0.8482  0.0865
  157SAPE  H10R17530   1.364   4.143   9.449  0.0937 -0.5709  2.1206
  157SAPE  H10S17531   1.439   3.988   9.419 -3.2881  1.6966 -0.8355
  157SAPE  C21117532   1.512   4.134   9.292 -0.2992 -0.1827 -0.1974
  157SAPE  H11R17533   1.466   4.227   9.256  0.6821  0.2313 -0.3883
  157SAPE  C21217534   1.611   4.070   9.228 -1.0883 -0.2794  0.0851
  157SAPE  H12R17535   1.640   4.112   9.130  3.2484  0.3306  1.5129
  157SAPE  C21317536   1.693   3.952   9.269 -0.8263  0.4685 -0.1359
  157SAPE  H13R17537   1.683   3.881   9.184  0.3030 -2.6279  2.2130
  157SAPE  H13S17538   1.656   3.900   9.360  2.1530  2.5214  2.3576
  157SAPE  C21417539   1.829   3.997   9.285 -0.3682 -0.2546 -0.0460
  157SAPE  H14R17540   1.840   4.072   9.364 -0.0330 -0.8789  0.5042
  157SAPE  C21517541   1.940   3.953   9.221  0.1880  0.0822 -0.0283
  157SAPE  H15R17542   2.034   3.997   9.260  0.2167 -0.9102  1.0441
  157SAPE  C21617543   1.951   3.841   9.119 -0.0213 -0.0575  0.6273
  157SAPE  H16R17544   1.863   3.840   9.051  0.1946  0.5870  0.3392
  157SAPE  H16S17545   1.951   3.742   9.170 -3.1100 -0.2173  0.4216
  157SAPE  C21717546   2.076   3.845   9.025  0.1586  0.5038 -0.3391
  157SAPE  H17R17547   2.173   3.856   9.078 -0.2436 -0.5507  0.6089
  157SAPE  H17S17548   2.077   3.944   8.973 -2.3586  1.5503  1.5044
  157SAPE  C21817549   2.078   3.733   8.918  0.5700  0.0076  0.0499
  157SAPE  H18R17550   2.004   3.753   8.838 -0.7638 -1.2467  0.9281
  157SAPE  H18S17551   2.031   3.637   8.949 -0.1789  0.1930 -0.5062
  157SAPE  C21917552   2.213   3.725   8.848 -0.6250 -0.0686  0.3018
  157SAPE  H19R17553   2.294   3.706   8.922  0.7639 -0.3411 -1.2283
  157SAPE  H19S17554   2.227   3.820   8.791 -2.4924 -0.0626 -0.1710
  157SAPE  C22017555   2.211   3.602   8.758  0.5018  0.1360 -0.2262
  157SAPE  H20R17556   2.182   3.507   8.809  0.0116  1.5098  2.1426
  157SAPE  H20S17557   2.309   3.588   8.707  0.4186 -0.5379 -0.2078
  157SAPE  H20T17558   2.136   3.615   8.678  1.3164  1.1812 -0.8272
  157SAPE   C3317559   1.411   2.803  10.260 -0.2836 -0.5331  0.1536
  157SAPE   H3X17560   1.303   2.796  10.235  0.2196  0.6457 -2.6175
  157SAPE   H3Y17561   1.410   2.723  10.337  2.2928 -2.4810 -1.7634
  157SAPE   C3417562   1.498   2.766  10.141 -0.1184 -0.0499 -0.6793
  157SAPE   H4X17563   1.605   2.759  10.171 -0.5135  0.5525  0.9076
  157SAPE   H4Y17564   1.487   2.841  10.061  4.2743 -1.9800 -3.2956
  157SAPE   C3517565   1.462   2.625  10.086 -0.6261 -0.0485 -0.7313
  157SAPE   H5X17566   1.354   2.637  10.062 -1.2492  2.4455  2.8549
  157SAPE   H5Y17567   1.477   2.563  10.177  0.7229  1.3722  0.0377
  157SAPE   C3617568   1.543   2.578   9.964  0.1536 -0.0403  0.9245
  157SAPE   H6X17569   1.644   2.548  10.000  0.2060  1.3641  2.0045
  157SAPE   H6Y17570   1.556   2.671   9.905 -2.5699  0.1283  0.5545
  157SAPE   C3717571   1.478   2.483   9.865 -0.0471  0.1107  0.4714
  157SAPE   H7X17572   1.392   2.544   9.832  0.1804  0.8538  1.2448
  157SAPE   H7Y17573   1.462   2.383   9.911 -1.1809  0.0610 -0.0219
  157SAPE   C3817574   1.555   2.471   9.731 -0.0169  0.7078  0.3175
  157SAPE   H8X17575   1.618   2.380   9.736 -1.2344 -0.1540  0.3933
  157SAPE   H8Y17576   1.621   2.559   9.714  0.7749 -0.0230 -0.4323
  157SAPE   C3917577   1.456   2.461   9.612  0.3252  0.4278  0.0417
  157SAPE   H9X17578   1.514   2.448   9.518  0.5335  2.1386 -0.0977
  157SAPE   H9Y17579   1.394   2.553   9.603  1.1597  1.0772  0.8073
  157SAPE  C31017580   1.363   2.333   9.625 -0.2325 -0.7734  0.6514
  157SAPE  H10X17581   1.307   2.344   9.720 -0.0015  0.9600  0.6199
  157SAPE  H10Y17582   1.425   2.241   9.621 -0.1357 -0.6883  0.0387
  157SAPE  C31117583   1.256   2.326   9.511 -0.2149 -0.1032 -0.4711
  157SAPE  H11X17584   1.193   2.417   9.505 -1.2118 -0.8954 -2.5106
  157SAPE  H11Y17585   1.195   2.237   9.540  0.1658 -0.0543  0.5036
  157SAPE  C31217586   1.315   2.299   9.371  0.5913 -0.8601  0.2102
  157SAPE  H12X17587   1.368   2.202   9.374  2.1511 -0.0132  0.8708
  157SAPE  H12Y17588   1.378   2.385   9.340 -0.2775 -0.4804 -0.5246
  157SAPE  C31317589   1.197   2.297   9.273 -0.1930 -0.1485 -0.0716
  157SAPE  H13X17590   1.143   2.392   9.290  1.0523  0.5776 -0.1616
  157SAPE  H13Y17591   1.126   2.217   9.306 -1.7708  0.9665 -0.7565
  157SAPE  C31417592   1.242   2.283   9.128  0.7654 -0.8850  0.0301
  157SAPE  H14X17593   1.291   2.183   9.120 -2.3238 -2.5822  1.2142
  157SAPE  H14Y17594   1.321   2.356   9.102  0.4303 -0.1622  1.0259
  157SAPE  C31517595   1.131   2.284   9.025  0.1332 -0.0510 -0.0175
  157SAPE  H15X17596   1.097   2.387   8.998  0.9919 -0.0798 -1.3042
  157SAPE  H15Y17597   1.047   2.229   9.072 -0.5849 -0.0528 -1.2589
  157SAPE  C31617598   1.169   2.214   8.890  0.0419  0.4386  0.7996
  157SAPE  H16X17599   1.182   2.106   8.911  1.0485  0.2441 -0.7296
  157SAPE  H16Y17600   1.267   2.237   8.842 -0.6128 -2.2951 -2.0269
  157SAPE  C31717601   1.055   2.236   8.794  0.5278  0.9120 -0.2845
  157SAPE  H17X17602   0.955   2.244   8.842  0.2221 -0.3270 -0.7063
  157SAPE  H17Y17603   1.053   2.147   8.727  0.2991  0.5001  0.2688
  157SAPE  C31817604   1.063   2.356   8.704  0.6035  0.2030  0.6624
  157SAPE  H18X17605   1.155   2.360   8.642  0.0175 -0.8236 -0.2885
  157SAPE  H18Y17606   1.061   2.447   8.768 -1.1425  0.9003 -0.3316
  157SAPE  H18Z17607   0.977   2.358   8.634 -0.0120  0.5055  1.4179
  158SAPE     N17608   3.068   3.839  11.020  0.1861  0.1317 -0.0828
  158SAPE   HN117609   3.121   3.776  10.956  1.0456 -1.2331  1.9430
  158SAPE   HN217610   3.122   3.927  11.028  3.3640 -1.9330  2.9678
  158SAPE   HN317611   3.067   3.785  11.109 -2.8500 -0.3023 -0.3155
  158SAPE   C1217612   2.925   3.878  10.980 -0.1309  0.6535  0.1340
  158SAPE  H12A17613   2.898   3.977  11.021 -3.6186 -0.4787  0.7346
  158SAPE  H12B17614   2.848   3.801  11.003 -1.7733  1.7601 -1.6058
  158SAPE   C1117615   2.923   3.903  10.827 -0.7135 -0.2174 -0.4800
  158SAPE  H11A17616   2.816   3.926  10.811 -0.9335  1.5469  2.9267
  158SAPE  H11B17617   2.935   3.808  10.772  0.6399 -1.2112  1.4769
  158SAPE     P17618   2.970   4.069  10.636  0.0257  0.1410  0.3748
  158SAPE   O1317619   2.836   4.116  10.625  0.4911 -0.3586 -0.5371
  158SAPE   O1417620   3.077   4.162  10.596  0.0293 -0.1691 -0.3415
  158SAPE   O1217621   3.006   4.010  10.779 -0.5512  0.0241 -0.1793
  158SAPE   O1117622   2.976   3.940  10.552 -0.5325  0.0080  0.5499
  158SAPE    C117623   3.102   3.867  10.529  0.2167 -0.9504  0.0547
  158SAPE    HA17624   3.175   3.890  10.610 -0.2002  0.1867  0.1215
  158SAPE    HB17625   3.073   3.761  10.540 -2.5257 -0.0800  1.7033
  158SAPE    C217626   3.152   3.881  10.386  0.0677 -0.5754 -0.7753
  158SAPE    HS17627   3.215   3.972  10.385  0.2785 -0.6837  0.8100
  158SAPE   O2117628   3.047   3.888  10.298  0.3557  1.2066  0.6460
  158SAPE   C2117629   3.056   3.970  10.195 -0.8913 -0.0475  0.4503
  158SAPE   O2217630   3.130   4.066  10.185  0.5346 -0.2739 -0.0356
  158SAPE   C2217631   2.959   3.930  10.082  0.2565 -0.0699  0.2427
  158SAPE   H2R17632   2.939   3.821  10.085  0.6098 -0.1162  0.9853
  158SAPE   H2S17633   2.861   3.980  10.099  0.1009  0.9535 -3.2363
  158SAPE    C317634   3.257   3.768  10.355 -0.2254 -0.1993  0.5389
  158SAPE    HX17635   3.207   3.670  10.374 -0.6323  0.1289  1.1927
  158SAPE    HY17636   3.344   3.782  10.423 -0.9412  2.9410  0.9153
  158SAPE   O3117637   3.292   3.770  10.216 -0.3486  0.9566 -0.1586
  158SAPE   C3117638   3.387   3.854  10.175  0.1735  0.2200  0.2600
  158SAPE   O3217639   3.445   3.938  10.244  0.3478  0.2154  0.4174
  158SAPE   C3217640   3.397   3.841  10.025 -0.0764 -0.2675  0.5719
  158SAPE   H2X17641   3.303   3.835   9.966  1.4176 -3.1189 -1.6525
  158SAPE   H2Y17642   3.458   3.754   9.992  0.8808  0.6286 -0.0726
  158SAPE   C2317643   3.004   3.969   9.939  0.5663  0.2031 -0.1411
  158SAPE   H3R17644   3.091   3.908   9.906  0.7745  1.9349 -2.8755
  158SAPE   H3S17645   3.035   4.075   9.943 -0.3265  0.4281  1.3148
  158SAPE   C2417646   2.888   3.961   9.833 -1.6174  0.1902  0.5664
  158SAPE   H4R17647   2.943   3.985   9.739 -2.2099  0.5831  0.3158
  158SAPE   H4S17648   2.819   4.046   9.846 -2.3468 -0.3032 -0.0663
  158SAPE   C2517649   2.809   3.833   9.827 -0.3554  0.0431 -0.0785
  158SAPE   H5R17650   2.719   3.826   9.889 -0.8486 -1.0893 -0.9008
  158SAPE   C2617651   2.824   3.731   9.742 -0.6959  0.4690 -0.2544
  158SAPE   H6R17652   2.763   3.639   9.747 -0.6101  0.0664 -4.4922
  158SAPE   C2717653   2.933   3.731   9.640 -0.8154 -0.3364 -0.0406
  158SAPE   H7R17654   2.963   3.626   9.620  0.8304  0.1924 -0.4835
  158SAPE   H7S17655   3.027   3.758   9.693 -0.2505 -1.1673 -0.6119
  158SAPE   C2817656   2.913   3.813   9.511 -0.6725  0.2286 -0.1102
  158SAPE   H8R17657   2.934   3.920   9.524 -1.8619  0.3232  1.1883
  158SAPE   C2917658   2.901   3.755   9.392  0.2694  0.5954  0.0415
  158SAPE   H9R17659   2.892   3.821   9.304 -0.9350  0.9451  0.4170
  158SAPE  C21017660   2.891   3.607   9.363  0.0469 -0.3245  0.2289
  158SAPE  H10R17661   2.802   3.593   9.297 -0.3761 -3.4058  1.3579
  158SAPE  H10S17662   2.877   3.539   9.450  0.6547  1.5252  1.8172
  158SAPE  C21117663   3.009   3.567   9.275  0.1412 -0.0837 -0.5632
  158SAPE  H11R17664   3.111   3.562   9.316  0.5551  0.3443 -1.5199
  158SAPE  C21217665   3.006   3.529   9.149  0.0400  0.1004  0.9924
  158SAPE  H12R17666   3.099   3.494   9.103  1.4786  1.7241  2.6024
  158SAPE  C21317667   2.889   3.514   9.055 -0.0235  0.5071  0.1838
  158SAPE  H13R17668   2.852   3.617   9.035  0.5267  0.2208 -2.4650
  158SAPE  H13S17669   2.800   3.463   9.096 -1.5698  1.8170 -1.4855
  158SAPE  C21417670   2.917   3.462   8.913 -0.0451  0.6317 -0.1813
  158SAPE  H14R17671   3.007   3.504   8.866 -1.2033  2.6306 -0.6524
  158SAPE  C21517672   2.848   3.364   8.851 -0.0449  0.0017  0.3800
  158SAPE  H15R17673   2.885   3.339   8.750  1.1678  1.8468  0.3373
  158SAPE  C21617674   2.728   3.282   8.896  0.1626  0.2750  0.8772
  158SAPE  H16R17675   2.673   3.337   8.975  1.6746 -0.6770  2.6355
  158SAPE  H16S17676   2.758   3.179   8.927 -1.7509 -0.1817  1.2946
  158SAPE  C21717677   2.630   3.260   8.776  0.3605  0.3155 -0.4127
  158SAPE  H17R17678   2.552   3.196   8.821  0.4004  0.7417  0.2649
  158SAPE  H17S17679   2.681   3.201   8.696  0.9833  3.1665 -2.1863
  158SAPE  C21817680   2.576   3.391   8.729  0.0592 -0.3008 -0.2231
  158SAPE  H18R17681   2.655   3.460   8.691 -0.0189 -0.3601 -0.4938
  158SAPE  H18S17682   2.542   3.439   8.823 -0.2777 -1.5510  0.3060
  158SAPE  C21917683   2.461   3.381   8.629  0.6397 -0.1158 -0.5362
  158SAPE  H19R17684   2.363   3.372   8.681  1.9553 -0.7195  1.9427
  158SAPE  H19S17685   2.492   3.284   8.584  0.5808 -1.5077  2.2617
  158SAPE  C22017686   2.468   3.481   8.523  0.4803 -0.1634 -0.3292
  158SAPE  H20R17687   2.378   3.485   8.458  1.9356 -0.2165 -2.3919
  158SAPE  H20S17688   2.559   3.466   8.461  1.7358  0.9062  1.2075
  158SAPE  H20T17689   2.465   3.581   8.571 -2.7081 -1.1631  1.6663
  158SAPE   C3317690   3.466   3.962   9.961  0.3531  0.8475 -0.2644
  158SAPE   H3X17691   3.566   3.962  10.009  0.5122 -2.4786 -0.4882
  158SAPE   H3Y17692   3.417   4.061   9.978 -0.6458  0.3440 -0.1483
  158SAPE   C3417693   3.482   3.953   9.806 -0.6855 -0.2139  0.3274
  158SAPE   H4X17694   3.518   3.854   9.771 -1.6630  0.2233 -1.9751
  158SAPE   H4Y17695   3.563   4.024   9.780  0.2230 -1.0610  0.7901
  158SAPE   C3517696   3.349   3.984   9.722 -0.5823 -0.2831  0.4913
  158SAPE   H5X17697   3.286   4.066   9.761  0.5875  1.2594 -0.7829
  158SAPE   H5Y17698   3.282   3.895   9.731 -1.3464  0.2437  0.0652
  158SAPE   C3617699   3.370   4.023   9.579 -0.1730  0.0586 -0.1940
  158SAPE   H6X17700   3.468   3.987   9.542  0.0710  0.2332  0.2811
  158SAPE   H6Y17701   3.380   4.134   9.578  2.5753 -0.1315 -2.1806
  158SAPE   C3717702   3.262   3.974   9.475  0.4598  0.4980 -0.1532
  158SAPE   H7X17703   3.172   4.031   9.506 -0.4268 -1.4317  0.8894
  158SAPE   H7Y17704   3.238   3.866   9.479  0.1091  0.5740 -0.1954
  158SAPE   C3817705   3.288   4.006   9.329  0.3697  0.7594  0.3641
  158SAPE   H8X17706   3.359   3.929   9.292 -2.3432 -1.1315 -1.1243
  158SAPE   H8Y17707   3.321   4.112   9.326 -3.0462  1.8615 -3.5386
  158SAPE   C3917708   3.164   3.975   9.245 -0.8596 -0.0261 -0.2312
  158SAPE   H9X17709   3.070   4.024   9.279 -0.6893  0.1287  0.0123
  158SAPE   H9Y17710   3.140   3.868   9.263 -0.3327 -0.2703 -0.9632
  158SAPE  C31017711   3.182   3.990   9.093 -0.3461 -0.3849 -0.5248
  158SAPE  H10X17712   3.286   3.957   9.072 -0.1062 -0.1961  0.3305
  158SAPE  H10Y17713   3.187   4.091   9.048  2.9428 -0.8156 -1.2301
  158SAPE  C31117714   3.076   3.905   9.014 -0.0942 -0.7983  0.1068
  158SAPE  H11X17715   2.978   3.945   9.048  0.0836 -0.7134  0.5169
  158SAPE  H11Y17716   3.063   3.800   9.047 -2.6716 -1.3429 -2.4389
  158SAPE  C31217717   3.102   3.909   8.863  0.6766  0.0033  0.1269
  158SAPE  H12X17718   3.024   3.856   8.805  1.2959  0.3913 -1.0866
  158SAPE  H12Y17719   3.200   3.863   8.838 -0.2024 -1.3281 -0.9138
  158SAPE  C31317720   3.111   4.059   8.814 -0.6024  0.0918 -0.0175
  158SAPE  H13X17721   3.200   4.117   8.847  0.7057 -1.7955 -0.1876
  158SAPE  H13Y17722   3.019   4.103   8.859 -0.7851 -1.2014  0.8768
  158SAPE  C31417723   3.116   4.065   8.659  0.0894  0.0389  0.4618
  158SAPE  H14X17724   3.015   4.038   8.622  1.4252 -2.8187 -1.2581
  158SAPE  H14Y17725   3.195   4.006   8.609 -1.0309 -0.6794 -0.4735
  158SAPE  C31517726   3.133   4.210   8.626  1.0056 -0.6075 -0.2001
  158SAPE  H15X17727   3.230   4.254   8.658 -0.1682  1.6661  0.3425
  158SAPE  H15Y17728   3.054   4.270   8.675  1.7451  0.0364  0.2150
  158SAPE  C31617729   3.102   4.246   8.482 -0.0193 -0.3949  0.1456
  158SAPE  H16X17730   3.014   4.200   8.433 -0.6653  0.3781  0.5547
  158SAPE  H16Y17731   3.195   4.229   8.424  0.0744 -1.4230  0.5836
  158SAPE  C31717732   3.087   4.398   8.464  0.4909 -0.3423  0.6835
  158SAPE  H17X17733   3.180   4.445   8.503  0.8250 -1.2545  0.9892
  158SAPE  H17Y17734   3.002   4.426   8.529  0.0936  0.3836 -0.1288
  158SAPE  C31817735   3.051   4.430   8.313 -0.3733  0.5889  0.6577
  158SAPE  H18X17736   3.146   4.436   8.255 -0.1804 -0.2972  0.8716
  158SAPE  H18Y17737   2.996   4.526   8.303 -1.8642 -0.4849 -1.7158
  158SAPE  H18Z17738   2.988   4.349   8.272 -0.2243 -0.0206  1.6209
  159SAPE     N17739   3.849   0.591   6.366  0.6936 -0.0012  0.1492
  159SAPE   HN117740   3.903   0.663   6.312 -0.2243  0.6164  0.0435
  159SAPE   HN217741   3.918   0.523   6.404 -2.1099 -2.7204  0.4890
  159SAPE   HN317742   3.786   0.542   6.299 -0.7986  0.5011  1.1606
  159SAPE   C1217743   3.767   0.649   6.476 -0.2390  0.1428 -0.2624
  159SAPE  H12A17744   3.698   0.723   6.429 -1.7691 -2.6418 -2.5404
  159SAPE  H12B17745   3.831   0.703   6.548  1.2119 -2.3548  0.3690
  159SAPE   C1117746   3.685   0.533   6.543  0.0344 -0.9383 -1.4010
  159SAPE  H11A17747   3.603   0.574   6.606  1.5214 -1.0631  0.6500
  159SAPE  H11B17748   3.744   0.478   6.619  1.6005  1.0225 -1.1561
  159SAPE     P17749   3.481   0.390   6.437 -0.1820  0.2378 -0.0267
  159SAPE   O1317750   3.409   0.489   6.353 -0.1257  0.4471 -0.6611
  159SAPE   O1417751   3.490   0.248   6.399 -0.2838  0.8183 -0.4920
  159SAPE   O1217752   3.638   0.439   6.449  0.2890  0.5687 -0.8020
  159SAPE   O1117753   3.428   0.401   6.594  0.2704 -0.3566  0.3751
  159SAPE    C117754   3.302   0.353   6.630 -0.3934  0.0648  0.2458
  159SAPE    HA17755   3.235   0.441   6.635  1.1698  1.2595  0.6074
  159SAPE    HB17756   3.259   0.287   6.552 -0.8855  0.1185  0.4725
  159SAPE    C217757   3.305   0.267   6.762  0.0445 -0.4677 -0.1005
  159SAPE    HS17758   3.208   0.214   6.764 -0.9633  1.3127 -0.9298
  159SAPE   O2117759   3.332   0.348   6.881  0.2010  0.4129  0.0684
  159SAPE   C2117760   3.244   0.431   6.930  0.0076  0.9215 -0.0934
  159SAPE   O2217761   3.127   0.451   6.890  0.3127  0.1099 -0.1182
  159SAPE   C2217762   3.313   0.517   7.045  1.0927  0.5193  0.6108
  159SAPE   H2R17763   3.369   0.444   7.108  0.9537  0.3463  0.5345
  159SAPE   H2S17764   3.376   0.589   6.988 -0.8976  1.7028 -0.1151
  159SAPE    C317765   3.419   0.154   6.746  0.3042 -0.7258  0.0670
  159SAPE    HX17766   3.513   0.212   6.732 -0.4429 -0.1126 -2.8183
  159SAPE    HY17767   3.393   0.109   6.647 -2.3021 -0.0568  0.4201
  159SAPE   O3117768   3.425   0.058   6.848 -0.3078  0.3199  0.5035
  159SAPE   C3117769   3.364  -0.055   6.821 -1.2304  0.4059  0.7240
  159SAPE   O3217770   3.302  -0.081   6.718 -0.1984 -0.1252  0.1472
  159SAPE   C3217771   3.394  -0.153   6.925 -0.4228  0.0141  0.0836
  159SAPE   H2X17772   3.492  -0.203   6.907  1.1539  2.8746  0.4359
  159SAPE   H2Y17773   3.328  -0.242   6.935  1.3169 -1.7316 -3.2526
  159SAPE   C2317774   3.205   0.578   7.134 -0.5174  1.0716  0.4802
  159SAPE   H3R17775   3.124   0.504   7.151  0.7112 -0.2402  0.7200
  159SAPE   H3S17776   3.148   0.661   7.086  0.6735  0.4888 -1.9973
  159SAPE   C2417777   3.269   0.620   7.267 -0.0776  0.5443 -0.0303
  159SAPE   H4R17778   3.213   0.682   7.341  1.5740  1.6720  0.3002
  159SAPE   H4S17779   3.353   0.687   7.239  0.5637 -0.1152  0.3250
  159SAPE   C2517780   3.320   0.499   7.353 -0.5909 -0.3075  0.1387
  159SAPE   H5R17781   3.420   0.461   7.325  0.7387 -0.4348  4.7106
  159SAPE   C2617782   3.247   0.419   7.428 -0.4673 -0.0437  0.3355
  159SAPE   H6R17783   3.302   0.354   7.498  1.1849 -0.2057 -1.0736
  159SAPE   C2717784   3.105   0.428   7.461 -0.0377  0.1180  0.2328
  159SAPE   H7R17785   3.078   0.328   7.502  1.2293  0.1352  1.1440
  159SAPE   H7S17786   3.043   0.438   7.370 -0.1063 -0.1780  0.2468
  159SAPE   C2817787   3.069   0.532   7.564  0.6870 -1.1014  0.6190
  159SAPE   H8R17788   3.021   0.622   7.524  1.6921 -0.6984  0.3036
  159SAPE   C2917789   3.099   0.534   7.692  0.4900 -0.5097  0.2513
  159SAPE   H9R17790   3.071   0.628   7.740 -0.9695 -0.4491 -0.6979
  159SAPE  C21017791   3.192   0.431   7.759  0.3388 -0.3422 -0.0299
  159SAPE  H10R17792   3.297   0.465   7.754  0.2122  0.0671  0.1170
  159SAPE  H10S17793   3.190   0.338   7.698  1.4645  0.4898 -1.3648
  159SAPE  C21117794   3.140   0.393   7.900 -0.2341  0.1884  0.8372
  159SAPE  H11R17795   3.070   0.309   7.900  1.1872 -1.1216 -3.2182
  159SAPE  C21217796   3.174   0.453   8.014  0.3277 -0.5230  0.0491
  159SAPE  H12R17797   3.123   0.429   8.108  0.6374  0.8044  0.5608
  159SAPE  C21317798   3.282   0.564   8.029  0.0959 -1.0979  0.0405
  159SAPE  H13R17799   3.225   0.658   8.014 -2.2667 -2.8012 -1.9411
  159SAPE  H13S17800   3.356   0.574   7.946  1.2126  2.5975  1.3830
  159SAPE  C21417801   3.354   0.562   8.161  0.0723 -0.1202 -0.2926
  159SAPE  H14R17802   3.458   0.525   8.164 -0.2294 -0.9385  0.0302
  159SAPE  C21517803   3.310   0.602   8.277  0.3635  0.2010  0.3097
  159SAPE  H15R17804   3.372   0.597   8.367 -0.0518 -2.7258  0.5144
  159SAPE  C21617805   3.177   0.656   8.315  0.4488 -0.3318 -0.5683
  159SAPE  H16R17806   3.146   0.589   8.398 -2.1655 -1.9142 -2.7404
  159SAPE  H16S17807   3.100   0.658   8.236 -0.6848 -0.1008  0.5286
  159SAPE  C21717808   3.199   0.798   8.382 -0.2004 -0.1019 -0.2333
  159SAPE  H17R17809   3.096   0.834   8.402  0.5499  2.2216 -0.4248
  159SAPE  H17S17810   3.258   0.861   8.312 -2.2256  1.0252 -0.9703
  159SAPE  C21817811   3.279   0.799   8.511 -0.0681  0.5855 -0.2432
  159SAPE  H18R17812   3.384   0.764   8.496 -0.3321 -0.5888  0.5805
  159SAPE  H18S17813   3.242   0.720   8.580  2.4026  2.2408  3.1266
  159SAPE  C21917814   3.283   0.922   8.602  0.2995  0.1898 -0.3224
  159SAPE  H19R17815   3.348   0.895   8.689 -0.1735  1.6117  0.4921
  159SAPE  H19S17816   3.184   0.937   8.649 -0.0280  0.5849 -1.1262
  159SAPE  C22017817   3.331   1.056   8.549  0.6376  0.1680 -0.0679
  159SAPE  H20R17818   3.260   1.092   8.472  2.3877  0.7545 -1.4331
  159SAPE  H20S17819   3.429   1.040   8.499  0.4139  2.6338 -1.3199
  159SAPE  H20T17820   3.340   1.138   8.623  2.3243 -0.0065 -0.0531
  159SAPE   C3317821   3.396  -0.086   7.067  0.3236 -0.0978  0.5085
  159SAPE   H3X17822   3.304  -0.040   7.108  0.7329 -1.1991  2.7718
  159SAPE   H3Y17823   3.476  -0.010   7.079 -1.9478  2.5173 -0.5923
  159SAPE   C3417824   3.410  -0.187   7.179 -0.2856 -0.0791 -0.2283
  159SAPE   H4X17825   3.485  -0.260   7.141 -0.6460 -0.0489 -1.0236
  159SAPE   H4Y17826   3.315  -0.245   7.185 -0.8925  0.8873 -0.2688
  159SAPE   C3517827   3.447  -0.142   7.324  0.1780 -0.1025  0.4729
  159SAPE   H5X17828   3.529  -0.067   7.320 -1.2260  1.4069 -0.8483
  159SAPE   H5Y17829   3.487  -0.234   7.371  3.0236  0.4720 -0.7305
  159SAPE   C3617830   3.334  -0.096   7.421  0.3575  0.0646  0.6899
  159SAPE   H6X17831   3.261  -0.179   7.430  0.0786  0.2064 -0.2490
  159SAPE   H6Y17832   3.267  -0.018   7.379  2.3736  1.0693 -0.7039
  159SAPE   C3717833   3.381  -0.068   7.564 -0.2863 -0.4861 -0.2170
  159SAPE   H7X17834   3.419   0.035   7.579  1.4965 -1.3699  1.6809
  159SAPE   H7Y17835   3.470  -0.134   7.581  0.0950 -0.6677 -2.7860
  159SAPE   C3817836   3.271  -0.086   7.660  0.0577 -0.6752  0.1550
  159SAPE   H8X17837   3.236  -0.191   7.672 -0.1524 -0.5086  1.0407
  159SAPE   H8Y17838   3.187  -0.024   7.621  1.3534  0.2436 -1.2144
  159SAPE   C3917839   3.305  -0.045   7.804 -0.3628 -0.0656 -0.1777
  159SAPE   H9X17840   3.383   0.033   7.813 -1.0139  0.5103  0.5440
  159SAPE   H9Y17841   3.349  -0.137   7.848  4.5334  2.2873  0.1498
  159SAPE  C31017842   3.184  -0.015   7.886 -0.1626 -0.9188  0.0748
  159SAPE  H10X17843   3.117  -0.103   7.897 -2.4571  0.8911  0.9045
  159SAPE  H10Y17844   3.135   0.066   7.828  1.6435 -0.6707 -1.1498
  159SAPE  C31117845   3.218   0.038   8.028 -0.0014 -0.1265 -0.0326
  159SAPE  H11X17846   3.125   0.067   8.082 -0.0853  0.1486 -0.3198
  159SAPE  H11Y17847   3.272   0.134   8.013  0.6684 -0.3299  1.0009
  159SAPE  C31217848   3.297  -0.063   8.106  0.1374 -0.2701  0.0272
  159SAPE  H12X17849   3.404  -0.073   8.077 -0.0721  0.6690 -1.1127
  159SAPE  H12Y17850   3.258  -0.163   8.081 -2.0198  0.4766  0.3533
  159SAPE  C31317851   3.300  -0.035   8.252 -0.1484 -0.6997  1.0374
  159SAPE  H13X17852   3.198  -0.053   8.289 -2.0090  2.7958 -2.0548
  159SAPE  H13Y17853   3.333   0.069   8.271 -0.0320 -0.0140 -2.4877
  159SAPE  C31417854   3.394  -0.131   8.332 -0.9915 -0.4075 -0.0513
  159SAPE  H14X17855   3.399  -0.075   8.428 -0.6683 -0.9122  0.2308
  159SAPE  H14Y17856   3.501  -0.131   8.299 -0.6278  0.7595  1.0764
  159SAPE  C31517857   3.344  -0.273   8.351 -0.1733  0.3014  0.3386
  159SAPE  H15X17858   3.428  -0.325   8.401  1.2187  0.5683 -1.6458
  159SAPE  H15Y17859   3.321  -0.321   8.253 -2.3709 -0.3501  1.1612
  159SAPE  C31617860   3.217  -0.291   8.427  0.3501 -0.0079 -0.7800
  159SAPE  H16X17861   3.125  -0.271   8.368 -0.5997 -3.3789 -0.5595
  159SAPE  H16Y17862   3.210  -0.210   8.503 -0.2990 -0.9179  0.1441
  159SAPE  C31717863   3.213  -0.427   8.500 -0.2231 -0.0283  0.0749
  159SAPE  H17X17864   3.287  -0.436   8.581 -0.2965  2.9033  0.5227
  159SAPE  H17Y17865   3.229  -0.512   8.430  0.0712 -0.3702  0.5585
  159SAPE  C31817866   3.075  -0.464   8.565 -0.6535  0.0599  0.1916
  159SAPE  H18X17867   3.076  -0.570   8.598 -3.2645 -0.6192 -1.7269
  159SAPE  H18Y17868   2.996  -0.447   8.489 -0.3940 -1.3954 -0.4150
  159SAPE  H18Z17869   3.059  -0.399   8.654  0.5588 -1.9862  1.9641
  160SAPE     N17870   2.240   1.010   6.481 -0.3853 -0.1615  0.2092
  160SAPE   HN117871   2.327   1.066   6.476 -0.9253  0.6057 -1.0565
  160SAPE   HN217872   2.271   0.911   6.488  3.1610  1.0534  2.9999
  160SAPE   HN317873   2.181   1.024   6.397 -0.4236  2.3722  0.5946
  160SAPE   C1217874   2.163   1.063   6.588  0.0863 -0.1977 -0.8557
  160SAPE  H12A17875   2.221   1.063   6.683  0.6638 -2.3318 -1.1814
  160SAPE  H12B17876   2.066   1.008   6.593 -0.8586  1.3279 -1.9020
  160SAPE   C1117877   2.124   1.205   6.556  0.3224 -0.2244 -1.1198
  160SAPE  H11A17878   2.080   1.246   6.649 -1.4354 -5.0995  0.3752
  160SAPE  H11B17879   2.046   1.208   6.476  0.8733 -2.9796 -1.8213
  160SAPE     P17880   2.212   1.428   6.461 -0.3355  0.1625 -0.3789
  160SAPE   O1317881   2.323   1.515   6.520 -0.0270  0.1103  0.1005
  160SAPE   O1417882   2.193   1.437   6.317  0.3929  0.2215  0.0830
  160SAPE   O1217883   2.233   1.282   6.504  0.2348 -0.5048  0.0920
  160SAPE   O1117884   2.081   1.477   6.533  1.2662  0.0641 -0.3514
  160SAPE    C117885   2.073   1.616   6.549 -0.3465 -0.1618 -0.2556
  160SAPE    HA17886   2.114   1.668   6.460 -0.0557 -0.4235 -0.2730
  160SAPE    HB17887   1.964   1.639   6.559  0.2858  2.4652  0.9548
  160SAPE    C217888   2.128   1.668   6.687  0.2866 -0.6775  0.1875
  160SAPE    HS17889   2.238   1.677   6.673  0.1059  1.2708 -0.1718
  160SAPE   O2117890   2.095   1.581   6.800  0.0481 -0.9995  0.6063
  160SAPE   C2117891   2.176   1.577   6.897 -0.3965 -0.0253 -0.2229
  160SAPE   O2217892   2.285   1.637   6.898 -0.7052  0.2698  0.9612
  160SAPE   C2217893   2.116   1.498   7.008 -0.3004 -0.4689 -0.0166
  160SAPE   H2R17894   2.082   1.400   6.968 -0.1932 -0.4085 -0.2566
  160SAPE   H2S17895   2.200   1.466   7.074  1.0476 -1.9124 -2.3463
  160SAPE    C317896   2.059   1.810   6.718  0.0040  0.3134 -0.1085
  160SAPE    HX17897   1.949   1.803   6.734 -0.2019  1.5995 -0.9126
  160SAPE    HY17898   2.071   1.885   6.638  1.1972  0.0413 -0.1863
  160SAPE   O3117899   2.114   1.867   6.836  0.6224 -0.2355 -0.1874
  160SAPE   C3117900   2.232   1.934   6.824 -0.5591 -0.1039 -0.5477
  160SAPE   O3217901   2.302   1.936   6.720  0.0904  0.2577  0.2298
  160SAPE   C3217902   2.275   1.995   6.961 -0.2944  0.1479  0.5906
  160SAPE   H2X17903   2.209   1.960   7.043  0.5168 -1.3853  0.6130
  160SAPE   H2Y17904   2.249   2.102   6.954  0.7347  0.5373  2.4080
  160SAPE   C2317905   2.008   1.575   7.077 -0.1533  0.0802 -0.0764
  160SAPE   H3R17906   1.960   1.514   7.157 -0.9569  0.2837 -0.4038
  160SAPE   H3S17907   1.929   1.613   7.009 -0.3469  0.0798  0.1471
  160SAPE   C2417908   2.072   1.694   7.151 -0.1193  0.2713 -0.4421
  160SAPE   H4R17909   2.132   1.748   7.075 -0.7417  0.7704 -0.5798
  160SAPE   H4S17910   2.141   1.660   7.231 -0.0330  1.5666  0.0483
  160SAPE   C2517911   1.970   1.790   7.208 -0.1674 -0.1985  0.8746
  160SAPE   H5R17912   1.881   1.802   7.145 -0.2500 -1.4711  0.7512
  160SAPE   C2617913   1.974   1.840   7.331 -0.2669 -0.2651 -0.7067
  160SAPE   H6R17914   1.890   1.902   7.365 -0.9849 -1.9744  0.7151
  160SAPE   C2717915   2.069   1.817   7.446 -0.3721  0.0595  0.3092
  160SAPE   H7R17916   2.090   1.914   7.496 -1.2295 -0.4096  1.6149
  160SAPE   H7S17917   2.164   1.770   7.414 -0.3998  0.1634  0.0727
  160SAPE   C2817918   2.011   1.723   7.553  0.6349  0.2621  0.2197
  160SAPE   H8R17919   1.994   1.617   7.526 -0.7511  0.8055 -1.1415
  160SAPE   C2917920   1.975   1.758   7.673 -0.9573  0.0153  0.2151
  160SAPE   H9R17921   1.946   1.686   7.751  1.4238 -0.8781  0.3215
  160SAPE  C21017922   1.968   1.901   7.724  0.5950 -0.3038 -0.0138
  160SAPE  H10R17923   1.887   1.909   7.799  0.6272 -1.4049  0.1479
  160SAPE  H10S17924   1.938   1.967   7.639  1.6659  1.9947  1.3579
  160SAPE  C21117925   2.092   1.952   7.808  0.1539 -0.2273  0.4039
  160SAPE  H11R17926   2.167   2.003   7.744 -2.5745  0.6507 -2.2134
  160SAPE  C21217927   2.128   1.931   7.937  0.2628  0.4716 -0.2868
  160SAPE  H12R17928   2.230   1.962   7.965 -0.2507  0.9857  1.0432
  160SAPE  C21317929   2.053   1.846   8.047  1.2920 -0.2965  0.7475
  160SAPE  H13R17930   1.957   1.827   7.994  1.3813  0.8766  0.1476
  160SAPE  H13S17931   2.040   1.909   8.137  0.7755  0.0246  0.4513
  160SAPE  C21417932   2.116   1.709   8.070 -0.3343 -0.2803 -0.1713
  160SAPE  H14R17933   2.203   1.683   8.007 -0.7810  0.0900 -0.9492
  160SAPE  C21517934   2.076   1.618   8.164 -0.6571 -0.3368 -0.1291
  160SAPE  H15R17935   2.129   1.522   8.161 -1.5514 -0.8918  1.5564
  160SAPE  C21617936   1.963   1.628   8.263  0.3313 -0.5516  0.2568
  160SAPE  H16R17937   1.902   1.536   8.249 -0.0112 -0.5794  1.8214
  160SAPE  H16S17938   1.894   1.714   8.253  0.1565 -0.9178 -1.9629
  160SAPE  C21717939   2.024   1.616   8.402  0.0160 -0.5438  0.0955
  160SAPE  H17R17940   2.096   1.698   8.424  3.7729 -3.7967  0.4032
  160SAPE  H17S17941   2.091   1.528   8.413 -1.3284 -1.7601 -1.1108
  160SAPE  C21817942   1.914   1.624   8.512  0.0879  0.1401  0.9295
  160SAPE  H18R17943   1.828   1.560   8.482 -0.7481  1.5154  0.3227
  160SAPE  H18S17944   1.881   1.730   8.517  0.2866  0.1952  1.0414
  160SAPE  C21917945   1.953   1.583   8.656 -0.2659  0.0376  0.1685
  160SAPE  H19R17946   1.995   1.480   8.659 -3.6255 -1.3938  0.2021
  160SAPE  H19S17947   1.861   1.573   8.716 -1.0200  1.5371 -0.7282
  160SAPE  C22017948   2.047   1.689   8.707  0.1939 -0.4072 -0.8433
  160SAPE  H20R17949   2.062   1.678   8.816  0.4339  0.1928 -0.8188
  160SAPE  H20S17950   2.012   1.793   8.695 -2.3635 -0.9440  1.4368
  160SAPE  H20T17951   2.147   1.672   8.663  0.4564  2.1880 -1.3106
  160SAPE   C3317952   2.419   1.971   6.986 -0.0191 -0.1626  0.1322
  160SAPE   H3X17953   2.471   2.017   6.899  1.1958 -0.0777  0.8824
  160SAPE   H3Y17954   2.434   1.861   6.982  1.5609  0.0515 -0.1192
  160SAPE   C3417955   2.463   2.039   7.116  0.4408 -0.1531  0.2600
  160SAPE   H4X17956   2.421   2.141   7.132  0.7424 -0.2401  1.6116
  160SAPE   H4Y17957   2.574   2.037   7.122  0.4470  0.3587  0.3368
  160SAPE   C3517958   2.422   1.949   7.237  0.2753  0.3946 -0.3095
  160SAPE   H5X17959   2.473   1.851   7.240 -2.8353 -1.2972 -1.3241
  160SAPE   H5Y17960   2.312   1.937   7.228  0.2628 -0.6369  1.1830
  160SAPE   C3617961   2.469   2.011   7.371 -0.2437 -0.7175 -0.1545
  160SAPE   H6X17962   2.571   2.050   7.355 -1.0327  1.1023 -0.8764
  160SAPE   H6Y17963   2.463   1.933   7.450  1.4559  0.7331  1.4399
  160SAPE   C3717964   2.385   2.141   7.399  0.0286 -0.2317  0.3196
  160SAPE   H7X17965   2.281   2.118   7.369 -0.1303 -1.0323  1.4515
  160SAPE   H7Y17966   2.429   2.218   7.331  0.6232  1.1377  2.1974
  160SAPE   C3817967   2.388   2.192   7.547 -0.0986 -0.3150 -0.2829
  160SAPE   H8X17968   2.327   2.128   7.614  0.6760  0.1785  0.9008
  160SAPE   H8Y17969   2.348   2.295   7.551  0.9792  0.1183 -0.4978
  160SAPE   C3917970   2.523   2.204   7.615 -0.4068 -0.5952 -0.0496
  160SAPE   H9X17971   2.593   2.259   7.549 -1.0369 -0.9761 -1.0409
  160SAPE   H9Y17972   2.561   2.099   7.624  0.6935 -0.0418  2.2763
  160SAPE  C31017973   2.531   2.256   7.762 -0.3400  0.0080  0.1801
  160SAPE  H10X17974   2.496   2.362   7.761  0.2762  0.2777  3.0308
  160SAPE  H10Y17975   2.639   2.259   7.785 -0.3073 -3.0355  0.5745
  160SAPE  C31117976   2.443   2.177   7.863 -0.1831  0.5554 -0.0029
  160SAPE  H11X17977   2.454   2.067   7.851 -0.4054  0.5824 -0.4633
  160SAPE  H11Y17978   2.335   2.205   7.861 -0.0013  1.4754  1.5262
  160SAPE  C31217979   2.500   2.204   8.010  0.0532  0.5063  0.1877
  160SAPE  H12X17980   2.521   2.310   8.036 -0.2273  0.0065  2.6099
  160SAPE  H12Y17981   2.595   2.146   8.015 -0.0305  0.3743  0.2602
  160SAPE  C31317982   2.415   2.144   8.124 -0.5441 -0.1145  0.3523
  160SAPE  H13X17983   2.413   2.034   8.114  0.8931 -0.1734  0.5978
  160SAPE  H13Y17984   2.313   2.186   8.115 -0.2023  0.6535 -0.0089
  160SAPE  C31417985   2.484   2.162   8.257 -0.1932 -0.0703  0.3227
  160SAPE  H14X17986   2.477   2.267   8.292 -1.7040  0.2185 -0.8308
  160SAPE  H14Y17987   2.593   2.140   8.261  0.1593  1.8699  2.4633
  160SAPE  C31517988   2.423   2.063   8.358  0.0647  0.0256  0.5602
  160SAPE  H15X17989   2.315   2.053   8.335 -0.3790  1.1803  2.0850
  160SAPE  H15Y17990   2.430   2.097   8.463  0.4336 -2.0050  1.2195
  160SAPE  C31617991   2.484   1.918   8.354 -0.2936 -0.4665 -1.1375
  160SAPE  H16X17992   2.595   1.917   8.346 -0.0147  0.2195  2.0311
  160SAPE  H16Y17993   2.464   1.877   8.253 -0.0158  1.1672 -1.8832
  160SAPE  C31717994   2.424   1.830   8.463 -0.5453 -0.5596  0.0035
  160SAPE  H17X17995   2.320   1.868   8.475 -0.2519  0.3174 -0.1923
  160SAPE  H17Y17996   2.493   1.836   8.550  0.2942 -0.1242 -0.6869
  160SAPE  C31817997   2.413   1.682   8.421  0.2058  0.1995  0.1792
  160SAPE  H18X17998   2.350   1.639   8.502 -1.2538  1.1665 -0.4110
  160SAPE  H18Y17999   2.508   1.625   8.413 -0.9260 -2.1243  2.6487
  160SAPE  H18Z18000   2.344   1.670   8.334  0.4644  1.0298 -0.1395
  161SAPE     N18001   4.290   0.044   6.640 -0.3252 -0.2520  0.1224
  161SAPE   HN118002   4.287   0.071   6.740 -0.8226  0.4667 -0.0831
  161SAPE   HN218003   4.364   0.097   6.591  1.1721 -1.6367  0.8630
  161SAPE   HN318004   4.199   0.071   6.597  0.1803 -2.0750 -2.1756
  161SAPE   C1218005   4.308  -0.103   6.615 -0.4082 -0.8048 -0.4512
  161SAPE  H12A18006   4.240  -0.147   6.691  0.4599  1.3385  1.5903
  161SAPE  H12B18007   4.413  -0.137   6.629 -0.9110 -3.2564 -2.2107
  161SAPE   C1118008   4.259  -0.131   6.473  0.6061  1.3755 -0.2592
  161SAPE  H11A18009   4.288  -0.234   6.445  0.9069  1.3849  0.0204
  161SAPE  H11B18010   4.325  -0.074   6.404  1.1269  1.7874  0.5814
  161SAPE     P18011   4.004  -0.187   6.446  0.0581  0.2498 -0.3329
  161SAPE   O1318012   3.916  -0.148   6.558 -0.6216 -0.0038 -0.2087
  161SAPE   O1418013   3.953  -0.198   6.306  0.2777  0.4720  0.9122
  161SAPE   O1218014   4.124  -0.081   6.443 -0.8414  0.2742 -0.0446
  161SAPE   O1118015   4.081  -0.319   6.482 -0.4697  0.0342  0.2708
  161SAPE    C118016   4.027  -0.428   6.550  0.6827  0.2199 -0.0700
  161SAPE    HA18017   3.919  -0.405   6.563  0.6866  1.9059 -2.7406
  161SAPE    HB18018   4.027  -0.518   6.486  1.3407 -1.2769  1.9796
  161SAPE    C218019   4.096  -0.436   6.679 -0.4402  0.6486 -0.3424
  161SAPE    HS18020   4.059  -0.523   6.737 -0.8452  1.7294  1.0369
  161SAPE   O2118021   4.082  -0.319   6.762  0.0911  0.8415  0.0843
  161SAPE   C2118022   3.964  -0.309   6.819 -0.3752  1.4927  0.0951
  161SAPE   O2218023   3.865  -0.382   6.801  0.5448 -0.2259 -0.2536
  161SAPE   C2218024   3.968  -0.193   6.921 -0.0543  0.9823 -0.2217
  161SAPE   H2R18025   4.065  -0.203   6.974  0.9221  1.4441 -1.8845
  161SAPE   H2S18026   3.977  -0.101   6.858 -0.7386  2.6067  1.9958
  161SAPE    C318027   4.239  -0.478   6.665  0.2956 -0.0963 -0.2463
  161SAPE    HX18028   4.287  -0.403   6.597 -3.5095  1.0599 -1.7881
  161SAPE    HY18029   4.245  -0.576   6.612 -0.9431 -1.5642  2.2848
  161SAPE   O3118030   4.304  -0.485   6.789  0.8556 -0.2735 -0.1873
  161SAPE   C3118031   4.286  -0.600   6.854 -0.8627 -0.5878 -0.3382
  161SAPE   O3218032   4.229  -0.700   6.814 -0.1227 -0.3000 -0.2796
  161SAPE   C3218033   4.336  -0.580   7.000  0.5941 -0.4900  0.3830
  161SAPE   H2X18034   4.445  -0.591   6.985  0.7078 -0.0486  0.9058
  161SAPE   H2Y18035   4.291  -0.662   7.060 -2.5517 -0.6304 -2.0100
  161SAPE   C2318036   3.862  -0.184   7.031 -0.5830 -0.7330  0.3164
  161SAPE   H3R18037   3.769  -0.194   6.971 -0.3902 -2.3374  0.2575
  161SAPE   H3S18038   3.866  -0.092   7.092 -0.9154  0.2918 -1.1735
  161SAPE   C2418039   3.839  -0.299   7.122  0.8404  0.0945 -0.3089
  161SAPE   H4R18040   3.823  -0.384   7.052  1.4738  0.3967 -0.8249
  161SAPE   H4S18041   3.741  -0.274   7.167  1.4562  0.0905  1.0648
  161SAPE   C2518042   3.956  -0.310   7.213 -0.7223 -0.2922  0.7068
  161SAPE   H5R18043   4.051  -0.358   7.186  0.0205  0.1438  2.4706
  161SAPE   C2618044   3.957  -0.248   7.333 -0.1530 -0.4202  0.0883
  161SAPE   H6R18045   4.051  -0.247   7.390 -0.9045 -0.8530  1.3543
  161SAPE   C2718046   3.851  -0.167   7.395  0.3073  0.0130 -0.7615
  161SAPE   H7R18047   3.782  -0.134   7.315  1.3464  0.2462 -1.5855
  161SAPE   H7S18048   3.881  -0.072   7.444  0.4735 -0.0582 -0.7207
  161SAPE   C2818049   3.792  -0.247   7.508  0.3987 -0.1739  0.1766
  161SAPE   H8R18050   3.734  -0.334   7.474  0.3114 -0.9814  2.2775
  161SAPE   C2918051   3.811  -0.240   7.641 -0.1105  0.0680  0.5992
  161SAPE   H9R18052   3.764  -0.315   7.706  0.8766  0.6299  1.9932
  161SAPE  C21018053   3.889  -0.149   7.728 -0.4696  0.2551 -0.0923
  161SAPE  H10R18054   3.953  -0.077   7.672  0.4891  0.0157  0.6767
  161SAPE  H10S18055   3.963  -0.210   7.784 -0.1594  2.4873  2.0208
  161SAPE  C21118056   3.788  -0.084   7.817  0.0566  0.2735  0.2262
  161SAPE  H11R18057   3.708  -0.025   7.770 -1.0854 -0.7178  0.9119
  161SAPE  C21218058   3.779  -0.092   7.947  0.9495 -0.2979 -0.3964
  161SAPE  H12R18059   3.709  -0.028   8.002  0.5874  0.3340 -1.5875
  161SAPE  C21318060   3.881  -0.162   8.025 -0.0798 -0.1515 -0.2983
  161SAPE  H13R18061   3.891  -0.109   8.122  1.5170 -1.2006  0.1332
  161SAPE  H13S18062   3.983  -0.138   7.989 -0.0664  0.1746 -0.0445
  161SAPE  C21418063   3.856  -0.311   8.027 -0.2544  0.2866 -0.6047
  161SAPE  H14R18064   3.879  -0.376   7.942 -1.7636  0.2540 -1.0020
  161SAPE  C21518065   3.810  -0.387   8.127 -0.2439 -0.7422 -0.2640
  161SAPE  H15R18066   3.796  -0.495   8.113  0.4969 -0.4811 -3.4832
  161SAPE  C21618067   3.768  -0.322   8.259  0.2324  0.1970 -0.0046
  161SAPE  H16R18068   3.662  -0.298   8.238 -0.1783 -0.3085  1.4154
  161SAPE  H16S18069   3.828  -0.234   8.290  1.3614 -0.5175 -0.1114
  161SAPE  C21718070   3.761  -0.426   8.373  0.4525  0.2703  0.4631
  161SAPE  H17R18071   3.692  -0.512   8.363  1.2352 -0.2103 -0.9545
  161SAPE  H17S18072   3.723  -0.366   8.459  2.6007  0.6316  1.2053
  161SAPE  C21818073   3.901  -0.481   8.427  0.2113  0.9148  0.0624
  161SAPE  H18R18074   3.972  -0.396   8.438  0.6563  0.7332 -1.2885
  161SAPE  H18S18075   3.949  -0.544   8.349  0.1337 -0.6724  1.2728
  161SAPE  C21918076   3.889  -0.563   8.550 -0.3129  0.2169 -0.2077
  161SAPE  H19R18077   3.989  -0.611   8.558  0.9023  2.5688 -0.8505
  161SAPE  H19S18078   3.806  -0.637   8.547  0.2375 -0.3754 -1.2002
  161SAPE  C22018079   3.881  -0.473   8.673 -1.5531 -0.1067  0.0888
  161SAPE  H20R18080   3.962  -0.398   8.672  0.5407 -2.2242  3.1212
  161SAPE  H20S18081   3.897  -0.532   8.765 -1.1245 -1.5671 -0.9094
  161SAPE  H20T18082   3.779  -0.428   8.674 -0.9672  1.2167  0.7312
  161SAPE   C3318083   4.286  -0.452   7.074  0.2696 -0.4319  0.3725
  161SAPE   H3X18084   4.179  -0.442   7.049  0.4581 -0.6596 -0.5528
  161SAPE   H3Y18085   4.334  -0.376   7.008 -1.9575 -0.2880 -1.1218
  161SAPE   C3418086   4.335  -0.431   7.223 -0.3250  0.6302  0.3628
  161SAPE   H4X18087   4.323  -0.323   7.247  0.3721  0.9342 -0.6310
  161SAPE   H4Y18088   4.441  -0.462   7.220 -0.1097  1.4169 -0.7227
  161SAPE   C3518089   4.254  -0.520   7.316  0.4493 -0.3577 -0.1146
  161SAPE   H5X18090   4.280  -0.625   7.290  0.8921 -0.4950  0.8704
  161SAPE   H5Y18091   4.147  -0.492   7.304 -0.4244 -3.8303 -0.8460
  161SAPE   C3618092   4.295  -0.515   7.462  1.0270  0.3233  0.0834
  161SAPE   H6X18093   4.405  -0.526   7.454  0.8605 -2.2061  0.9356
  161SAPE   H6Y18094   4.255  -0.600   7.522 -0.4321  0.2033 -1.0304
  161SAPE   C3718095   4.266  -0.384   7.535 -0.1812 -0.4603  0.0272
  161SAPE   H7X18096   4.156  -0.366   7.545 -0.8112 -2.9884 -2.1150
  161SAPE   H7Y18097   4.321  -0.300   7.487 -1.6757  0.5982  0.1222
  161SAPE   C3818098   4.325  -0.401   7.685  0.0413 -0.5757  0.1618
  161SAPE   H8X18099   4.423  -0.452   7.676  0.3966 -0.1777  1.6465
  161SAPE   H8Y18100   4.257  -0.462   7.748 -0.0740 -1.9310 -1.2322
  161SAPE   C3918101   4.347  -0.265   7.758 -0.0752  0.3734 -0.4785
  161SAPE   H9X18102   4.245  -0.220   7.759  0.7983  2.4002  1.2454
  161SAPE   H9Y18103   4.417  -0.203   7.698  0.5390 -0.5994 -0.7781
  161SAPE  C31018104   4.398  -0.282   7.900 -0.2847 -0.4535  0.1354
  161SAPE  H10X18105   4.428  -0.187   7.949 -0.7577  0.8041 -1.9776
  161SAPE  H10Y18106   4.498  -0.331   7.897  0.7516  1.5897  0.0165
  161SAPE  C31118107   4.305  -0.351   7.997  0.3282 -0.3493 -0.2605
  161SAPE  H11X18108   4.312  -0.462   7.995  0.1625 -0.3552 -0.5461
  161SAPE  H11Y18109   4.202  -0.331   7.961 -0.3021 -2.4625  0.2747
  161SAPE  C31218110   4.314  -0.304   8.143 -0.3087 -0.4090  0.7651
  161SAPE  H12X18111   4.304  -0.194   8.148  0.2352 -0.2100 -1.7008
  161SAPE  H12Y18112   4.418  -0.329   8.173 -0.3695  0.4837  1.7448
  161SAPE  C31318113   4.219  -0.381   8.242  0.0311  0.4850  0.5264
  161SAPE  H13X18114   4.249  -0.487   8.231  1.9882  1.0436  0.3474
  161SAPE  H13Y18115   4.111  -0.377   8.215 -0.3888  0.3163  2.1553
  161SAPE  C31418116   4.253  -0.359   8.392 -0.0774  0.8286  0.3529
  161SAPE  H14X18117   4.363  -0.356   8.407  0.0386  1.5305 -0.6536
  161SAPE  H14Y18118   4.204  -0.440   8.450  0.1515 -1.1941 -2.1778
  161SAPE  C31518119   4.203  -0.230   8.439 -0.7887 -0.4651  0.3950
  161SAPE  H15X18120   4.100  -0.229   8.397 -0.3159 -0.9228 -0.7825
  161SAPE  H15Y18121   4.263  -0.158   8.381  1.3352 -1.7866  0.9086
  161SAPE  C31618122   4.205  -0.196   8.588  0.7496  0.1734 -0.3532
  161SAPE  H16X18123   4.310  -0.205   8.623  0.6981 -1.2858 -0.5404
  161SAPE  H16Y18124   4.156  -0.265   8.659  2.8633  0.5064  1.4818
  161SAPE  C31718125   4.132  -0.059   8.619 -0.1349 -0.2883  0.4206
  161SAPE  H17X18126   4.042  -0.030   8.563  0.2879  1.4787  0.6414
  161SAPE  H17Y18127   4.199   0.023   8.587 -1.4096  1.3392  1.8644
  161SAPE  C31818128   4.110  -0.048   8.764 -0.2715  0.3932 -0.1091
  161SAPE  H18X18129   4.199  -0.072   8.827 -1.3845  0.7361  1.6079
  161SAPE  H18Y18130   4.043  -0.129   8.797  2.4408 -1.0319  2.1194
  161SAPE  H18Z18131   4.071   0.054   8.782 -0.9509  0.4309 -1.7220
  162SAPE     N18132   3.454   2.118   5.732  0.4079  0.7029  0.6231
  162SAPE   HN118133   3.485   2.205   5.685  1.8411 -0.1331 -0.0394
  162SAPE   HN218134   3.538   2.066   5.766  0.8569  0.6815 -0.5023
  162SAPE   HN318135   3.413   2.067   5.651  2.2206  0.1824  0.0199
  162SAPE   C1218136   3.351   2.161   5.839 -0.3261  0.5882 -0.2385
  162SAPE  H12A18137   3.305   2.065   5.871  2.5196 -0.1048  1.9531
  162SAPE  H12B18138   3.272   2.224   5.792 -1.2568  3.1321  4.4600
  162SAPE   C1118139   3.421   2.227   5.958 -0.1545  0.0973  0.1888
  162SAPE  H11A18140   3.340   2.250   6.031  0.7110 -1.1457  1.5638
  162SAPE  H11B18141   3.455   2.327   5.925 -0.4354 -0.3726 -1.5667
  162SAPE     P18142   3.508   2.042   6.129  0.1011 -0.1611  0.0163
  162SAPE   O1318143   3.376   1.975   6.108 -1.2395  0.1739  0.0431
  162SAPE   O1418144   3.628   1.956   6.137 -0.0794  0.2305 -0.1616
  162SAPE   O1218145   3.526   2.141   6.010 -0.4311 -0.4609  0.7003
  162SAPE   O1118146   3.498   2.139   6.251 -0.5545 -0.6737 -0.2429
  162SAPE    C118147   3.600   2.243   6.257 -0.4256  0.0252  0.0388
  162SAPE    HA18148   3.690   2.199   6.305 -0.2405 -0.4623 -0.7458
  162SAPE    HB18149   3.627   2.289   6.160  1.4376  2.4000  1.6304
  162SAPE    C218150   3.549   2.356   6.355 -1.2372  0.9684  0.2812
  162SAPE    HS18151   3.625   2.437   6.349  0.2429 -0.5153 -1.5249
  162SAPE   O2118152   3.524   2.309   6.484  0.6795  0.1137  0.0705
  162SAPE   C2118153   3.620   2.280   6.566  0.2309  0.6688 -0.2029
  162SAPE   O2218154   3.740   2.265   6.541  0.7086 -0.6135  0.0490
  162SAPE   C2218155   3.562   2.244   6.699 -0.0776 -0.4552  0.8291
  162SAPE   H2R18156   3.461   2.199   6.688 -0.1822  0.3539 -1.8401
  162SAPE   H2S18157   3.618   2.170   6.760 -1.0503 -2.4438 -0.6164
  162SAPE    C318158   3.422   2.425   6.292  0.3901 -0.4348 -0.1893
  162SAPE    HX18159   3.352   2.339   6.278 -2.1100  1.6182 -0.7789
  162SAPE    HY18160   3.459   2.474   6.200  0.1568  0.5806  0.2473
  162SAPE   O3118161   3.369   2.524   6.381 -0.6352 -0.4487  0.0624
  162SAPE   C3118162   3.296   2.628   6.336  0.3032 -0.3263  0.1340
  162SAPE   O3218163   3.257   2.647   6.224 -0.5154  0.1573 -0.2730
  162SAPE   C3218164   3.269   2.721   6.453 -0.0159 -0.1868 -0.2098
  162SAPE   H2X18165   3.159   2.724   6.470  0.1096 -1.1510  0.7805
  162SAPE   H2Y18166   3.313   2.818   6.421  0.0890 -0.5559 -1.1981
  162SAPE   C2318167   3.533   2.370   6.787  0.3298 -0.1887  0.7109
  162SAPE   H3R18168   3.446   2.360   6.855  0.2441  0.8494  0.7671
  162SAPE   H3S18169   3.501   2.463   6.734 -1.4954 -0.6534  0.9595
  162SAPE   C2418170   3.649   2.404   6.883  1.0820  0.4063 -0.2964
  162SAPE   H4R18171   3.695   2.307   6.913 -0.4964  0.2280  1.6438
  162SAPE   H4S18172   3.608   2.447   6.977 -1.1478 -0.4638 -0.8378
  162SAPE   C2518173   3.760   2.488   6.815  0.1200  0.0984 -0.0795
  162SAPE   H5R18174   3.801   2.440   6.725 -0.8961  0.8001 -0.9345
  162SAPE   C2618175   3.802   2.612   6.849 -0.2600  0.0327 -0.0189
  162SAPE   H6R18176   3.873   2.664   6.783 -1.4307  0.5967 -0.8623
  162SAPE   C2718177   3.739   2.699   6.953  0.1776 -0.2512 -0.8458
  162SAPE   H7R18178   3.678   2.632   7.018  2.3751 -2.1458 -0.6691
  162SAPE   H7S18179   3.665   2.768   6.908 -0.9754 -1.4284 -0.7806
  162SAPE   C2818180   3.843   2.779   7.027  0.6099 -0.5313  0.2851
  162SAPE   H8R18181   3.906   2.840   6.961 -1.3478 -1.2445 -2.3055
  162SAPE   C2918182   3.871   2.783   7.160  0.3028  0.0880  0.5315
  162SAPE   H9R18183   3.962   2.835   7.194 -0.2288  1.1080  0.3990
  162SAPE  C21018184   3.804   2.716   7.276 -0.1667 -0.5553  0.6119
  162SAPE  H10R18185   3.876   2.697   7.358 -1.0939  0.9555  1.8118
  162SAPE  H10S18186   3.773   2.617   7.237 -0.1039  0.4940 -2.2749
  162SAPE  C21118187   3.686   2.783   7.342  0.0505 -0.2637  0.5499
  162SAPE  H11R18188   3.585   2.742   7.330 -0.8822  1.5759  1.8474
  162SAPE  C21218189   3.690   2.881   7.437 -0.2651 -0.4405 -0.1256
  162SAPE  H12R18190   3.593   2.903   7.482  1.3585 -0.2326  3.3890
  162SAPE  C21318191   3.810   2.950   7.490  0.4647 -0.5145  0.3844
  162SAPE  H13R18192   3.880   2.932   7.405 -1.4798 -0.4299 -1.2794
  162SAPE  H13S18193   3.847   2.890   7.576  0.3067 -1.2194 -0.0304
  162SAPE  C21418194   3.797   3.097   7.532 -0.2279 -0.5247 -0.6438
  162SAPE  H14R18195   3.766   3.156   7.444  1.3731  2.3753  0.6811
  162SAPE  C21518196   3.822   3.161   7.652  0.3388  0.2318 -0.2990
  162SAPE  H15R18197   3.807   3.270   7.658  1.1001  0.3274 -0.1169
  162SAPE  C21618198   3.866   3.103   7.787 -0.6662  0.1744 -0.1617
  162SAPE  H16R18199   3.872   3.188   7.859 -2.1818  0.6080 -0.5356
  162SAPE  H16S18200   3.964   3.055   7.766  0.3392  1.1056  2.2304
  162SAPE  C21718201   3.756   3.012   7.840 -0.0853 -0.3690  0.0204
  162SAPE  H17R18202   3.729   2.948   7.752  2.8200 -0.0057 -1.2041
  162SAPE  H17S18203   3.670   3.077   7.867  0.4126 -0.7349  2.6334
  162SAPE  C21818204   3.801   2.926   7.954  0.2725  0.2085 -0.1914
  162SAPE  H18R18205   3.795   2.982   8.050  0.5188 -2.7919  1.6816
  162SAPE  H18S18206   3.905   2.892   7.938 -0.0130 -0.6159 -0.3372
  162SAPE  C21918207   3.713   2.803   7.971 -0.1540  0.0847  1.2810
  162SAPE  H19R18208   3.609   2.840   7.968 -0.7681 -1.6013  0.9035
  162SAPE  H19S18209   3.734   2.764   8.073 -2.3989 -1.1871  1.2827
  162SAPE  C22018210   3.720   2.682   7.874 -0.3425 -0.3612  0.6253
  162SAPE  H20R18211   3.827   2.657   7.859 -0.0821  0.7409  0.5459
  162SAPE  H20S18212   3.669   2.720   7.783 -0.8470 -3.3699 -0.3911
  162SAPE  H20T18213   3.667   2.594   7.917 -1.2955  0.0676  0.3442
  162SAPE   C3318214   3.327   2.684   6.588 -0.2933 -0.1168 -0.4415
  162SAPE   H3X18215   3.431   2.654   6.563 -0.3049 -1.2222  0.7475
  162SAPE   H3Y18216   3.274   2.589   6.614  1.8309 -0.9798  0.9004
  162SAPE   C3418217   3.336   2.801   6.696 -0.1746  0.3358  0.0942
  162SAPE   H4X18218   3.249   2.869   6.678 -2.2320 -2.1483  0.4456
  162SAPE   H4Y18219   3.426   2.859   6.668 -0.7062  1.6462  1.0442
  162SAPE   C3518220   3.344   2.740   6.837 -0.9208 -0.4217 -0.4310
  162SAPE   H5X18221   3.441   2.689   6.853 -1.4097 -1.3472 -0.3583
  162SAPE   H5Y18222   3.259   2.669   6.853 -2.0493  1.3263  1.6717
  162SAPE   C3618223   3.322   2.853   6.943  0.1087 -0.1719 -0.7563
  162SAPE   H6X18224   3.227   2.909   6.928 -0.3764 -0.4293  1.2798
  162SAPE   H6Y18225   3.409   2.921   6.927  0.7912 -1.1153 -1.0976
  162SAPE   C3718226   3.323   2.790   7.084  0.5683 -0.2286 -0.3280
  162SAPE   H7X18227   3.415   2.729   7.094 -0.1808 -1.6530 -1.8713
  162SAPE   H7Y18228   3.238   2.720   7.095  1.3086 -0.8303  1.5837
  162SAPE   C3818229   3.326   2.899   7.191 -0.0743 -0.7808 -0.0118
  162SAPE   H8X18230   3.238   2.961   7.164  0.0250 -0.3508  0.6314
  162SAPE   H8Y18231   3.416   2.963   7.185 -0.5162 -0.2934 -1.7583
  162SAPE   C3918232   3.292   2.842   7.329  0.1099 -0.5660  0.2993
  162SAPE   H9X18233   3.376   2.772   7.353  0.4583 -1.0665 -2.2604
  162SAPE   H9Y18234   3.207   2.772   7.317  0.3154 -0.3681 -2.7170
  162SAPE  C31018235   3.282   2.945   7.437 -0.0724 -0.5182  0.6323
  162SAPE  H10X18236   3.213   3.028   7.408  0.3026 -0.4569 -0.0749
  162SAPE  H10Y18237   3.381   2.986   7.468  1.4966 -4.1657  0.6963
  162SAPE  C31118238   3.235   2.886   7.569 -0.1382 -0.2056 -0.4332
  162SAPE  H11X18239   3.130   2.857   7.549 -0.6066 -0.1342  1.7378
  162SAPE  H11Y18240   3.244   2.965   7.647  0.5634 -1.3679  0.6809
  162SAPE  C31218241   3.314   2.767   7.624  0.3253  0.0313 -0.2440
  162SAPE  H12X18242   3.423   2.762   7.602 -0.0524 -2.4335 -1.8381
  162SAPE  H12Y18243   3.268   2.683   7.567 -1.3231  0.5799  0.2552
  162SAPE  C31318244   3.286   2.735   7.772 -0.7008 -0.0515  0.2864
  162SAPE  H13X18245   3.177   2.745   7.789 -0.5800  2.2586 -0.1596
  162SAPE  H13Y18246   3.341   2.800   7.842 -1.4953  0.5138  0.3877
  162SAPE  C31418247   3.327   2.591   7.811 -0.8004  0.5874 -0.0688
  162SAPE  H14X18248   3.435   2.573   7.789 -0.9304  0.2494 -0.4454
  162SAPE  H14Y18249   3.268   2.517   7.753 -1.0078 -0.3348  1.3106
  162SAPE  C31518250   3.305   2.568   7.962  0.4399  0.5282 -0.3291
  162SAPE  H15X18251   3.197   2.584   7.985  0.5377 -0.1904  0.6596
  162SAPE  H15Y18252   3.355   2.649   8.020  1.7235  1.3901 -2.6035
  162SAPE  C31618253   3.330   2.427   8.021 -0.9980 -0.5310 -0.0069
  162SAPE  H16X18254   3.433   2.409   8.056 -1.8488  0.9919  3.4883
  162SAPE  H16Y18255   3.305   2.347   7.947  0.4135 -0.9884  0.0026
  162SAPE  C31718256   3.236   2.392   8.141  0.2268 -0.2231 -0.5612
  162SAPE  H17X18257   3.135   2.390   8.094 -0.2900 -1.4969  0.5774
  162SAPE  H17Y18258   3.227   2.471   8.219  0.9952 -0.2923 -0.4044
  162SAPE  C31818259   3.284   2.259   8.211 -0.0786 -0.5826  0.2742
  162SAPE  H18X18260   3.295   2.284   8.319  3.1472 -0.8038  0.0416
  162SAPE  H18Y18261   3.387   2.228   8.182  0.3536 -0.1168  1.2891
  162SAPE  H18Z18262   3.210   2.177   8.207 -1.1717  0.3495  0.9232
  163SAPE     N18263   1.423   1.120   6.509 -0.3336 -0.2566  0.4845
  163SAPE   HN118264   1.350   1.192   6.526  1.1044  1.7989 -1.7665
  163SAPE   HN218265   1.504   1.173   6.470 -1.0252  0.4561  0.0321
  163SAPE   HN318266   1.389   1.053   6.437  0.5243 -2.1405  1.7722
  163SAPE   C1218267   1.465   1.052   6.634  0.2429 -0.1842  0.1534
  163SAPE  H12A18268   1.442   1.120   6.719  0.1613 -0.9917  0.7792
  163SAPE  H12B18269   1.574   1.033   6.629  0.4788  1.3245 -0.8079
  163SAPE   C1118270   1.386   0.916   6.638 -0.1647  0.4843  0.5163
  163SAPE  H11A18271   1.285   0.935   6.598  0.0787 -0.9389 -0.8090
  163SAPE  H11B18272   1.385   0.879   6.743 -0.5820  1.7172  0.9520
  163SAPE     P18273   1.568   0.735   6.551  0.0223  0.0015  0.0594
  163SAPE   O1318274   1.530   0.597   6.514  0.2810  0.1423  0.1561
  163SAPE   O1418275   1.666   0.803   6.461  0.8741  0.1718 -0.1288
  163SAPE   O1218276   1.441   0.824   6.548 -0.0762 -0.0543 -0.3251
  163SAPE   O1118277   1.611   0.747   6.707 -0.0646  0.5119 -0.0883
  163SAPE    C118278   1.581   0.638   6.787 -0.2337 -0.3095 -0.0119
  163SAPE    HA18279   1.472   0.618   6.778  0.3917 -4.0563  0.1236
  163SAPE    HB18280   1.637   0.547   6.756 -0.3167 -0.1280 -0.7144
  163SAPE    C218281   1.614   0.663   6.939 -0.2935 -0.1342 -0.2668
  163SAPE    HS18282   1.720   0.692   6.959 -1.0359  1.5534  1.3679
  163SAPE   O2118283   1.582   0.544   7.007  0.1771  0.0142  0.6517
  163SAPE   C2118284   1.674   0.447   7.002 -0.2642 -0.0251  0.7282
  163SAPE   O2218285   1.759   0.433   6.920  0.3719 -0.0715  0.5548
  163SAPE   C2218286   1.662   0.351   7.116 -0.3389  0.7099 -0.5205
  163SAPE   H2R18287   1.570   0.377   7.173  1.1727 -0.1702  2.4183
  163SAPE   H2S18288   1.644   0.245   7.087 -2.4871  0.8031  0.3250
  163SAPE    C318289   1.516   0.771   7.001 -0.7294  0.2315  0.0634
  163SAPE    HX18290   1.413   0.728   6.994 -0.5293 -0.7615  2.9208
  163SAPE    HY18291   1.533   0.859   6.936  1.2432 -0.7052 -0.7153
  163SAPE   O3118292   1.553   0.799   7.136 -0.0888  0.0990  0.2491
  163SAPE   C3118293   1.485   0.896   7.198  0.1442 -0.6054  0.1919
  163SAPE   O3218294   1.407   0.972   7.142  0.0486  0.0892 -0.0199
  163SAPE   C3218295   1.517   0.887   7.347  0.0054  0.0951 -0.3231
  163SAPE   H2X18296   1.424   0.847   7.394  1.4206 -0.8053  1.8089
  163SAPE   H2Y18297   1.523   0.989   7.391  0.3089 -0.0046 -0.1282
  163SAPE   C2318298   1.775   0.360   7.218 -0.2630  0.1196  0.0487
  163SAPE   H3R18299   1.769   0.450   7.283  0.0701  0.8248 -0.8829
  163SAPE   H3S18300   1.874   0.359   7.168 -0.3230  0.6559 -0.0838
  163SAPE   C2418301   1.784   0.233   7.312  0.1550 -0.1276  0.2902
  163SAPE   H4R18302   1.873   0.247   7.377  0.4377  2.1299 -0.5614
  163SAPE   H4S18303   1.812   0.146   7.248  2.2241  0.6323  0.1136
  163SAPE   C2518304   1.655   0.189   7.388 -0.0025  0.2445  0.2340
  163SAPE   H5R18305   1.578   0.139   7.327 -1.4009  1.0850  1.2798
  163SAPE   C2618306   1.629   0.203   7.520  0.5100 -0.3904  0.5207
  163SAPE   H6R18307   1.527   0.172   7.545 -0.5585  0.4592 -2.5536
  163SAPE   C2718308   1.709   0.266   7.629 -0.5574  0.5118 -0.0741
  163SAPE   H7R18309   1.815   0.253   7.598 -0.6432  0.8863 -0.5267
  163SAPE   H7S18310   1.697   0.194   7.713 -0.8641 -1.2312 -1.5888
  163SAPE   C2818311   1.688   0.410   7.671  0.0002  0.0575 -0.4692
  163SAPE   H8R18312   1.633   0.482   7.608  1.9307  0.2454 -1.9916
  163SAPE   C2918313   1.732   0.462   7.793  0.4927  0.1402 -0.0356
  163SAPE   H9R18314   1.708   0.566   7.819  2.9513  0.9800 -0.9576
  163SAPE  C21018315   1.810   0.407   7.911 -0.1450  0.3508  0.0531
  163SAPE  H10R18316   1.909   0.456   7.902  1.0221 -1.9357 -0.0725
  163SAPE  H10S18317   1.832   0.298   7.902  2.2853  0.7607  0.6058
  163SAPE  C21118318   1.747   0.446   8.040 -0.7151  0.7326 -0.4245
  163SAPE  H11R18319   1.661   0.514   8.033 -0.3390  1.4045  1.1854
  163SAPE  C21218320   1.797   0.404   8.161  0.6682  0.5155 -0.4583
  163SAPE  H12R18321   1.748   0.452   8.248 -1.2128  2.0816 -2.3373
  163SAPE  C21318322   1.905   0.305   8.191  0.3468 -0.6841 -0.2042
  163SAPE  H13R18323   1.975   0.297   8.106 -1.7817  2.8726 -2.4176
  163SAPE  H13S18324   1.841   0.216   8.206 -1.8689  0.5450 -2.0421
  163SAPE  C21418325   1.982   0.340   8.311  0.9252 -0.0217 -0.1299
  163SAPE  H14R18326   2.036   0.436   8.310  1.3527 -0.2667 -2.2994
  163SAPE  C21518327   1.992   0.253   8.414  0.3995 -0.5360 -0.4631
  163SAPE  H15R18328   2.061   0.278   8.496  0.7113  0.3061 -0.9722
  163SAPE  C21618329   1.939   0.111   8.434 -0.0560  0.1350 -0.4964
  163SAPE  H16R18330   1.852   0.077   8.374 -0.3310 -0.8348  0.4274
  163SAPE  H16S18331   1.891   0.110   8.535  0.1448  0.4450 -0.3983
  163SAPE  C21718332   2.049  -0.007   8.457  0.7408  0.6643  1.1039
  163SAPE  H17R18333   1.986  -0.090   8.496  1.8965 -2.2266 -2.8831
  163SAPE  H17S18334   2.117   0.037   8.533  0.3486  0.7191  1.4281
  163SAPE  C21818335   2.122  -0.045   8.323  0.0680 -0.0444 -0.1889
  163SAPE  H18R18336   2.187   0.039   8.290  0.1180  0.3806  0.9728
  163SAPE  H18S18337   2.039  -0.057   8.250  0.3806  0.4735 -0.6349
  163SAPE  C21918338   2.220  -0.165   8.348  0.1416  0.9099  0.7697
  163SAPE  H19R18339   2.164  -0.254   8.383  0.7023 -0.0103 -0.6476
  163SAPE  H19S18340   2.290  -0.131   8.428  1.4780 -1.0883  0.4742
  163SAPE  C22018341   2.294  -0.204   8.220  1.3619 -0.2329  0.3248
  163SAPE  H20R18342   2.355  -0.125   8.171 -1.7233  1.9941 -0.0242
  163SAPE  H20S18343   2.216  -0.223   8.144  1.3038  2.6733 -0.3999
  163SAPE  H20T18344   2.350  -0.298   8.238 -0.2179 -1.2223  0.1563
  163SAPE   C3318345   1.641   0.799   7.385  0.1416  0.7757  0.1696
  163SAPE   H3X18346   1.717   0.816   7.306 -0.0167 -0.8681 -0.3468
  163SAPE   H3Y18347   1.613   0.692   7.383  1.3858  0.4589 -0.6056
  163SAPE   C3418348   1.716   0.836   7.520 -0.0036  0.1113  0.5462
  163SAPE   H4X18349   1.767   0.934   7.515 -0.7506  0.5201  0.9026
  163SAPE   H4Y18350   1.790   0.755   7.538 -1.2021 -1.2283 -0.3323
  163SAPE   C3518351   1.614   0.831   7.642 -0.0672 -0.3098 -0.8786
  163SAPE   H5X18352   1.559   0.734   7.635 -0.6301 -0.2290  2.1658
  163SAPE   H5Y18353   1.548   0.917   7.620 -0.8459 -0.8766 -0.7911
  163SAPE   C3618354   1.679   0.850   7.781 -0.1269  0.2964  0.0390
  163SAPE   H6X18355   1.707   0.957   7.794  1.1213 -0.1151  0.8118
  163SAPE   H6Y18356   1.775   0.795   7.791  0.6842  1.8691  1.1386
  163SAPE   C3718357   1.584   0.807   7.897 -0.4384 -0.7119  0.7397
  163SAPE   H7X18358   1.532   0.712   7.870 -1.4067 -0.3052  1.1528
  163SAPE   H7Y18359   1.505   0.884   7.891  1.0567  0.9953  2.2658
  163SAPE   C3818360   1.662   0.814   8.025  0.4067  0.2047  0.2869
  163SAPE   H8X18361   1.695   0.919   8.032 -1.5247  0.7834  1.0260
  163SAPE   H8Y18362   1.743   0.738   8.023 -1.0546 -1.3661 -0.6470
  163SAPE   C3918363   1.566   0.791   8.136  0.3971  0.3748  0.3694
  163SAPE   H9X18364   1.515   0.693   8.119  2.0107 -0.6293  1.2047
  163SAPE   H9Y18365   1.488   0.869   8.131  0.6769  0.5662 -1.8694
  163SAPE  C31018366   1.642   0.779   8.270  0.1392  0.4148  1.0772
  163SAPE  H10X18367   1.716   0.860   8.285  0.5388  0.3459 -0.3932
  163SAPE  H10Y18368   1.707   0.689   8.259 -0.8762 -0.3124  0.9674
  163SAPE  C31118369   1.546   0.765   8.385 -0.1538 -0.0215 -0.2415
  163SAPE  H11X18370   1.469   0.685   8.374  1.0753 -1.4151  0.9426
  163SAPE  H11Y18371   1.488   0.859   8.387 -1.8237 -1.0278  1.5765
  163SAPE  C31218372   1.609   0.731   8.517 -0.8793 -0.6445 -0.6298
  163SAPE  H12X18373   1.708   0.782   8.520 -1.3425  0.4182 -2.8853
  163SAPE  H12Y18374   1.620   0.621   8.531  0.0020 -0.5972 -0.8961
  163SAPE  C31318375   1.538   0.782   8.634 -0.3164  0.2119  0.4235
  163SAPE  H13X18376   1.430   0.760   8.620 -0.2862 -0.4320  1.1646
  163SAPE  H13Y18377   1.542   0.893   8.624  0.6289  0.2583  1.2506
  163SAPE  C31418378   1.582   0.733   8.774 -0.6070 -0.1029  0.4845
  163SAPE  H14X18379   1.687   0.767   8.789  0.0312 -1.4403 -0.7369
  163SAPE  H14Y18380   1.578   0.623   8.791 -1.2505  0.0307  1.2262
  163SAPE  C31518381   1.502   0.806   8.882  0.4476 -0.5942 -0.5224
  163SAPE  H15X18382   1.395   0.781   8.868  0.4164 -1.7671  1.5604
  163SAPE  H15Y18383   1.519   0.916   8.883 -2.5546 -0.0935 -0.0872
  163SAPE  C31618384   1.527   0.738   9.017 -0.0578  0.5226 -0.0560
  163SAPE  H16X18385   1.528   0.629   9.001  3.9657  0.1434  2.0217
  163SAPE  H16Y18386   1.433   0.754   9.074 -0.4835  0.9094 -0.8693
  163SAPE  C31718387   1.643   0.793   9.098  0.1855  0.0832 -0.5277
  163SAPE  H17X18388   1.627   0.900   9.120  1.7435  0.3711 -0.7179
  163SAPE  H17Y18389   1.733   0.784   9.032  1.4850  2.2469  0.9190
  163SAPE  C31818390   1.658   0.699   9.222  0.4620  0.3188  0.2090
  163SAPE  H18X18391   1.755   0.721   9.272 -0.9069  2.2186  2.0658
  163SAPE  H18Y18392   1.653   0.594   9.185 -1.3807  0.4816 -0.0539
  163SAPE  H18Z18393   1.575   0.707   9.294 -0.9240 -1.9313 -1.0743
  164SAPE     N18394   3.711   5.052   6.059  0.2537 -0.3329 -0.2607
  164SAPE   HN118395   3.678   5.132   6.116 -0.3853 -0.9977  0.3010
  164SAPE   HN218396   3.637   5.034   5.988 -0.2513 -0.9003  0.4046
  164SAPE   HN318397   3.702   4.971   6.124  0.3119  1.0310  1.4617
  164SAPE   C1218398   3.842   5.059   5.986 -0.5349 -0.3563  0.2936
  164SAPE  H12A18399   3.938   5.065   6.042 -1.2689 -3.6071  1.9986
  164SAPE  H12B18400   3.836   5.143   5.912 -3.0362 -0.8913 -0.1559
  164SAPE   C1118401   3.844   4.931   5.895  0.2280 -0.2543  0.2806
  164SAPE  H11A18402   3.940   4.929   5.839  1.0618  1.0123  1.6139
  164SAPE  H11B18403   3.764   4.925   5.819 -0.3663 -4.0826  1.0784
  164SAPE     P18404   3.929   4.689   5.955  0.1358  0.1003 -0.4663
  164SAPE   O1318405   3.916   4.634   5.821 -0.2844  0.0199  0.9599
  164SAPE   O1418406   4.068   4.721   5.991 -0.5093  0.2344  0.0740
  164SAPE   O1218407   3.833   4.812   5.972  0.5556  0.0114 -0.2720
  164SAPE   O1118408   3.873   4.582   6.056  0.0147  0.2915  0.1541
  164SAPE    C118409   3.784   4.613   6.164 -0.1802 -0.0670 -0.3787
  164SAPE    HA18410   3.686   4.652   6.127 -0.8289 -1.9483 -0.6833
  164SAPE    HB18411   3.759   4.524   6.226  0.9902  0.8494  1.4478
  164SAPE    C218412   3.836   4.719   6.271 -0.5529 -0.4977  0.1750
  164SAPE    HS18413   3.857   4.813   6.216  2.2208 -1.4333 -0.4456
  164SAPE   O2118414   3.955   4.665   6.336  0.2036 -0.5143 -0.0447
  164SAPE   C2118415   4.051   4.752   6.365 -0.1483  0.1466  0.8058
  164SAPE   O2218416   4.047   4.871   6.338  0.0535 -0.7638 -0.8460
  164SAPE   C2218417   4.168   4.677   6.425 -0.1779  0.1666 -0.1201
  164SAPE   H2R18418   4.190   4.579   6.379  0.3551  0.1227  0.2256
  164SAPE   H2S18419   4.264   4.729   6.406  0.8425 -2.0029 -1.0341
  164SAPE    C318420   3.726   4.752   6.376  0.1390  0.4057 -0.2687
  164SAPE    HX18421   3.721   4.653   6.426  1.3277  0.4234 -0.0862
  164SAPE    HY18422   3.626   4.771   6.333 -0.3051 -0.0724  0.5423
  164SAPE   O3118423   3.775   4.852   6.470 -0.3221 -0.6617 -0.3273
  164SAPE   C3118424   3.750   4.980   6.446  0.1888 -0.0950  0.0142
  164SAPE   O3218425   3.735   5.024   6.331  0.3539 -0.5535  0.9434
  164SAPE   C3218426   3.754   5.061   6.574 -0.8560  0.6611  0.1626
  164SAPE   H2X18427   3.666   5.128   6.574 -1.0682  0.4011 -1.7573
  164SAPE   H2Y18428   3.834   5.137   6.557  0.8413 -1.1890 -0.2678
  164SAPE   C2318429   4.139   4.663   6.572  0.5564  0.3293 -0.0474
  164SAPE   H3R18430   4.218   4.601   6.619 -0.6607  0.7938  2.7094
  164SAPE   H3S18431   4.049   4.598   6.582  1.2886 -0.5263  1.1184
  164SAPE   C2418432   4.114   4.797   6.654  0.8887 -0.0025  0.0434
  164SAPE   H4R18433   4.085   4.760   6.755  1.8076 -1.7618 -0.3189
  164SAPE   H4S18434   4.021   4.844   6.614  1.1005  1.7463  1.5378
  164SAPE   C2518435   4.239   4.885   6.658 -1.0338  0.2270 -0.2166
  164SAPE   H5R18436   4.280   4.895   6.556 -2.5131 -2.6227 -1.1437
  164SAPE   C2618437   4.300   4.933   6.765 -0.6660  0.6315 -0.9342
  164SAPE   H6R18438   4.391   4.994   6.755  0.4069 -0.8855 -0.6262
  164SAPE   C2718439   4.254   4.927   6.910 -0.2492  0.5471 -0.0620
  164SAPE   H7R18440   4.198   4.833   6.928 -1.1136  0.5694 -2.4307
  164SAPE   H7S18441   4.179   5.008   6.925 -0.4067  0.1619  1.2488
  164SAPE   C2818442   4.349   4.936   7.020  0.1489  0.0684  0.4062
  164SAPE   H8R18443   4.441   4.882   6.992  0.0738 -0.1918  0.6575
  164SAPE   C2918444   4.338   4.995   7.135  0.2762 -0.2674  0.0386
  164SAPE   H9R18445   4.425   4.991   7.203 -0.0139 -2.2201  0.3391
  164SAPE  C21018446   4.220   5.062   7.198  1.1451 -0.3528 -0.0779
  164SAPE  H10R18447   4.179   4.989   7.271 -1.5881  0.9938 -0.2095
  164SAPE  H10S18448   4.128   5.073   7.138  1.4791 -1.8532 -0.8975
  164SAPE  C21118449   4.250   5.194   7.254 -0.4188  0.0109  0.0446
  164SAPE  H11R18450   4.222   5.270   7.180 -0.3576 -0.6985 -0.7141
  164SAPE  C21218451   4.292   5.218   7.378  0.0850  0.3813  0.7546
  164SAPE  H12R18452   4.292   5.320   7.419 -0.3150  0.1436  1.3545
  164SAPE  C21318453   4.335   5.107   7.472  0.7124 -0.1177  0.6631
  164SAPE  H13R18454   4.331   5.007   7.424 -1.3361  0.1458  0.2092
  164SAPE  H13S18455   4.250   5.104   7.544  1.3722  0.9328  1.5046
  164SAPE  C21418456   4.462   5.153   7.535 -0.9236  0.7049  0.1424
  164SAPE  H14R18457   4.541   5.172   7.461 -2.5671  3.7423 -0.9352
  164SAPE  C21518458   4.475   5.195   7.665  0.2303  0.1583 -0.1073
  164SAPE  H15R18459   4.573   5.227   7.704  0.8146  0.6635 -1.9124
  164SAPE  C21618460   4.360   5.180   7.765  0.6657  0.0876  0.0792
  164SAPE  H16R18461   4.372   5.085   7.822 -1.9218  0.0514  0.6388
  164SAPE  H16S18462   4.265   5.171   7.708  0.8596 -0.0297 -0.2269
  164SAPE  C21718463   4.343   5.302   7.854 -0.0309  0.7633 -0.7016
  164SAPE  H17R18464   4.264   5.287   7.930  1.1103  0.0923  0.3699
  164SAPE  H17S18465   4.309   5.385   7.788  0.0040  0.1340 -1.5261
  164SAPE  C21818466   4.462   5.327   7.946  0.4803  0.2953 -0.2562
  164SAPE  H18R18467   4.536   5.372   7.876  1.0640  1.2380  0.9274
  164SAPE  H18S18468   4.502   5.234   7.991 -0.2403 -0.4452 -1.1401
  164SAPE  C21918469   4.427   5.428   8.054 -0.6082  0.7746  0.0013
  164SAPE  H19R18470   4.327   5.405   8.098  0.5849 -0.7664  1.9366
  164SAPE  H19S18471   4.420   5.532   8.015 -2.0716  0.5845 -0.2874
  164SAPE  C22018472   4.524   5.413   8.174 -0.3135 -0.2502  0.1274
  164SAPE  H20R18473   4.632   5.418   8.151  0.2221 -1.0492  2.3839
  164SAPE  H20S18474   4.511   5.320   8.233 -1.2113 -0.0673  0.2371
  164SAPE  H20T18475   4.507   5.500   8.242  2.2768  0.3394  0.0554
  164SAPE   C3318476   3.762   4.979   6.707 -0.0653  0.6216  0.2503
  164SAPE   H3X18477   3.833   4.894   6.718  1.2855  1.4700 -1.8806
  164SAPE   H3Y18478   3.660   4.936   6.724  0.0543  0.2246 -0.0299
  164SAPE   C3418479   3.780   5.066   6.835  0.5000  0.0367 -0.1764
  164SAPE   H4X18480   3.678   5.104   6.856 -0.8826 -2.2327 -2.3873
  164SAPE   H4Y18481   3.847   5.149   6.807  0.3622  0.0347 -0.5239
  164SAPE   C3518482   3.831   4.992   6.953  0.4969  0.8572  0.0588
  164SAPE   H5X18483   3.936   4.959   6.937  0.6045 -0.1384  2.5226
  164SAPE   H5Y18484   3.776   4.896   6.964  3.7220 -1.0549  0.2457
  164SAPE   C3618485   3.828   5.079   7.089  0.7885 -0.8480  0.1246
  164SAPE   H6X18486   3.735   5.139   7.094  1.7128  0.5201  1.1550
  164SAPE   H6Y18487   3.911   5.150   7.072  0.1281  0.5676  2.5722
  164SAPE   C3718488   3.855   4.989   7.209 -0.0513 -0.5154  0.4762
  164SAPE   H7X18489   3.954   4.940   7.197  1.9845  3.0297  2.3244
  164SAPE   H7Y18490   3.772   4.915   7.207 -1.9630  1.5822  0.5061
  164SAPE   C3818491   3.858   5.060   7.353 -0.1148  0.6555  0.2730
  164SAPE   H8X18492   3.764   5.119   7.365  0.2780  0.9592  1.9457
  164SAPE   H8Y18493   3.943   5.132   7.354  0.9276 -0.5643  0.3564
  164SAPE   C3918494   3.870   4.958   7.466  0.1389  0.4176  0.0261
  164SAPE   H9X18495   3.950   4.889   7.434 -1.6492 -1.6059 -0.1559
  164SAPE   H9Y18496   3.774   4.903   7.473  1.0000 -1.1161 -0.0530
  164SAPE  C31018497   3.908   5.026   7.601  0.2218 -0.3235 -0.0292
  164SAPE  H10X18498   3.829   5.099   7.629 -0.9100 -0.6866 -2.1873
  164SAPE  H10Y18499   3.991   5.094   7.570  0.5649 -0.8980 -0.3895
  164SAPE  C31118500   3.936   4.920   7.699 -0.6355 -0.5663  0.0204
  164SAPE  H11X18501   4.027   4.862   7.672 -0.7126 -0.8573  0.3849
  164SAPE  H11Y18502   3.844   4.859   7.708 -0.8074 -0.2856  0.1880
  164SAPE  C31218503   3.970   4.989   7.839 -0.1331  0.1557  0.0483
  164SAPE  H12X18504   3.876   5.039   7.871  0.7688  1.5913  0.5092
  164SAPE  H12Y18505   4.055   5.060   7.846  0.7471 -0.9689  0.9466
  164SAPE  C31318506   3.995   4.881   7.950 -0.1298  0.3081  0.6459
  164SAPE  H13X18507   4.066   4.803   7.914  0.1698 -0.0312  1.9230
  164SAPE  H13Y18508   3.914   4.818   7.994 -0.2750  3.1255  4.7008
  164SAPE  C31418509   4.057   4.949   8.070  0.9241  0.3615 -0.7837
  164SAPE  H14X18510   4.140   5.015   8.038  2.1716 -0.6970  0.2229
  164SAPE  H14Y18511   4.090   4.873   8.144 -1.9315  0.3508  0.5465
  164SAPE  C31518512   3.964   5.043   8.150 -0.3889  0.0628  0.4943
  164SAPE  H15X18513   3.871   4.989   8.179 -1.4348  1.9819  0.7952
  164SAPE  H15Y18514   3.933   5.134   8.095  0.1353  0.8335  1.4467
  164SAPE  C31618515   4.025   5.081   8.280 -0.5512  0.3887 -0.0341
  164SAPE  H16X18516   4.129   5.117   8.269 -0.2438 -0.4507  0.0380
  164SAPE  H16Y18517   4.025   4.988   8.341 -0.6535  1.2985  1.3590
  164SAPE  C31718518   3.943   5.196   8.358  0.2064  0.7332  0.1028
  164SAPE  H17X18519   3.841   5.152   8.365  0.4158  0.3290  0.6404
  164SAPE  H17Y18520   3.930   5.285   8.292 -1.0574  1.8512  1.8340
  164SAPE  C31818521   3.996   5.238   8.499 -0.3168  0.0211 -0.4949
  164SAPE  H18X18522   4.100   5.276   8.499  0.6397 -2.5313  0.0364
  164SAPE  H18Y18523   4.009   5.144   8.556 -0.7992 -0.2193 -0.7767
  164SAPE  H18Z18524   3.918   5.296   8.553  0.1273 -0.7764  1.0219
  165SAPE     N18525   3.704   1.023   6.021 -1.0126  1.0427  0.1545
  165SAPE   HN118526   3.627   1.066   6.076 -1.5197 -0.7458  0.9037
  165SAPE   HN218527   3.668   1.033   5.924 -3.2845 -2.8087  0.4672
  165SAPE   HN318528   3.715   0.922   6.047 -2.4692  0.1951 -2.3277
  165SAPE   C1218529   3.826   1.102   6.044 -0.1551  0.1325  0.6398
  165SAPE  H12A18530   3.812   1.209   6.018  1.3925  0.1839 -0.0403
  165SAPE  H12B18531   3.903   1.055   5.979  0.7530  0.5159  1.4157
  165SAPE   C1118532   3.866   1.086   6.190  0.4075  0.4312  0.0274
  165SAPE  H11A18533   3.783   1.119   6.256  0.7765  1.1377  0.1407
  165SAPE  H11B18534   3.951   1.149   6.224  1.0570 -1.4362  2.0080
  165SAPE     P18535   4.024   0.879   6.197  0.4902  0.3983 -0.1191
  165SAPE   O1318536   4.009   0.738   6.236 -0.1838 -0.4924 -0.3266
  165SAPE   O1418537   4.073   0.905   6.059 -0.0447 -0.2307  0.0463
  165SAPE   O1218538   3.886   0.950   6.227 -0.0833  0.4665 -0.0119
  165SAPE   O1118539   4.122   0.947   6.301 -0.5123 -0.0882 -0.1764
  165SAPE    C118540   4.085   0.963   6.438  0.1422 -0.2153  0.3814
  165SAPE    HA18541   4.054   1.068   6.460  0.0872  0.0780 -1.0928
  165SAPE    HB18542   3.998   0.899   6.465  0.0449 -1.1256 -2.0485
  165SAPE    C218543   4.189   0.922   6.538  0.3622 -0.2899  0.5988
  165SAPE    HS18544   4.281   0.979   6.514 -0.4062  0.3883 -0.7614
  165SAPE   O2118545   4.202   0.774   6.531  0.3227  1.3835 -0.1197
  165SAPE   C2118546   4.326   0.734   6.543 -0.2491 -0.1526 -0.0309
  165SAPE   O2218547   4.425   0.809   6.564  0.1366  0.5530  0.4817
  165SAPE   C2218548   4.322   0.584   6.539  1.0591  0.4427  0.2343
  165SAPE   H2R18549   4.217   0.555   6.559  1.3835  0.5304  2.2536
  165SAPE   H2S18550   4.361   0.538   6.446  1.0479 -0.7528  0.8128
  165SAPE    C318551   4.159   0.953   6.689  0.3757 -0.2264 -0.3509
  165SAPE    HX18552   4.141   1.062   6.697 -1.3002 -0.2920 -2.6984
  165SAPE    HY18553   4.239   0.920   6.759  0.1850  0.1748  0.0555
  165SAPE   O3118554   4.035   0.897   6.730 -0.3916 -0.5238 -0.0988
  165SAPE   C3118555   4.041   0.779   6.794  0.1900 -0.5343  0.4354
  165SAPE   O3218556   4.139   0.714   6.819  0.5494  0.3195  0.3215
  165SAPE   C3218557   3.894   0.736   6.822  0.6682  0.4910 -0.9851
  165SAPE   H2X18558   3.875   0.632   6.789 -1.1445 -0.3137  2.3870
  165SAPE   H2Y18559   3.816   0.796   6.770  0.6031  1.0508 -0.2501
  165SAPE   C2318560   4.404   0.537   6.661  0.2835 -0.5774  0.1128
  165SAPE   H3R18561   4.354   0.598   6.739 -1.4420 -0.4648 -1.0388
  165SAPE   H3S18562   4.509   0.566   6.643  0.2018 -0.1674  0.2992
  165SAPE   C2418563   4.375   0.392   6.694  0.1276  0.6561  0.1992
  165SAPE   H4R18564   4.383   0.336   6.599 -1.0830 -0.0825  0.5246
  165SAPE   H4S18565   4.272   0.388   6.735 -0.3673  0.4118 -1.0759
  165SAPE   C2518566   4.471   0.334   6.801  0.2344  0.3199  0.5194
  165SAPE   H5R18567   4.551   0.265   6.770  1.0209  0.5197  2.0388
  165SAPE   C2618568   4.458   0.357   6.937 -0.0173  0.2527  0.5237
  165SAPE   H6R18569   4.538   0.318   7.001  0.9549  1.5615  0.1329
  165SAPE   C2718570   4.371   0.450   7.011  0.0248  0.2168 -0.3034
  165SAPE   H7R18571   4.310   0.388   7.080  1.7117  0.3967  1.3901
  165SAPE   H7S18572   4.293   0.500   6.949 -1.2220 -0.6926  0.5114
  165SAPE   C2818573   4.448   0.565   7.069 -0.1541 -0.3164  0.4372
  165SAPE   H8R18574   4.461   0.645   6.994  2.1177 -1.6065 -0.5918
  165SAPE   C2918575   4.481   0.588   7.198  0.0913  0.1824 -0.7334
  165SAPE   H9R18576   4.531   0.685   7.216 -2.4949  1.3732  0.2532
  165SAPE  C21018577   4.448   0.495   7.312 -0.1194 -1.2941 -0.2141
  165SAPE  H10R18578   4.543   0.463   7.359  0.6394  0.6858 -0.3413
  165SAPE  H10S18579   4.412   0.400   7.267 -5.0216  0.7372 -0.8557
  165SAPE  C21118580   4.351   0.566   7.403  0.0996 -0.4413 -0.0613
  165SAPE  H11R18581   4.265   0.617   7.356  0.5713 -0.3020 -0.7782
  165SAPE  C21218582   4.358   0.555   7.541 -0.1050 -1.0193  0.0977
  165SAPE  H12R18583   4.296   0.620   7.605  1.0463  1.0449 -0.8459
  165SAPE  C21318584   4.462   0.482   7.614 -0.6588 -0.3825  0.3745
  165SAPE  H13R18585   4.468   0.375   7.588  1.4812 -0.2996  0.4013
  165SAPE  H13S18586   4.428   0.472   7.720  1.9806 -1.4588  1.1705
  165SAPE  C21418587   4.608   0.531   7.610 -0.3261  0.3644 -0.3691
  165SAPE  H14R18588   4.652   0.529   7.509  1.1949 -0.4420  0.2858
  165SAPE  C21518589   4.684   0.572   7.720  0.3007  0.8288  0.1979
  165SAPE  H15R18590   4.789   0.601   7.704  0.6634 -1.2753 -1.4319
  165SAPE  C21618591   4.626   0.571   7.856  0.0572 -0.1534 -0.3077
  165SAPE  H16R18592   4.594   0.471   7.890 -2.2703  1.1147  1.3441
  165SAPE  H16S18593   4.533   0.631   7.856 -0.6107 -1.1795 -1.0285
  165SAPE  C21718594   4.735   0.620   7.953  0.0611 -0.5279  0.4854
  165SAPE  H17R18595   4.753   0.729   7.944 -1.8091 -0.2990 -0.7230
  165SAPE  H17S18596   4.825   0.556   7.947  0.4895 -0.0991  2.0933
  165SAPE  C21818597   4.686   0.611   8.100 -0.8122  0.6750 -1.0508
  165SAPE  H18R18598   4.642   0.510   8.110  1.8280 -0.4126 -0.1427
  165SAPE  H18S18599   4.606   0.687   8.117 -0.3593  1.7709 -3.4917
  165SAPE  C21918600   4.800   0.599   8.202 -0.7197  0.1526  0.6945
  165SAPE  H19R18601   4.858   0.510   8.169 -1.6705  0.2795 -1.3866
  165SAPE  H19S18602   4.758   0.586   8.304 -0.7533  0.6210  0.7386
  165SAPE  C22018603   4.906   0.713   8.205  0.7729  0.3224  0.6304
  165SAPE  H20R18604   4.919   0.733   8.096 -1.0812  0.5781  0.4392
  165SAPE  H20S18605   5.000   0.680   8.255  0.8529  0.6758  0.7121
  165SAPE  H20T18606   4.883   0.809   8.256 -0.5734 -0.0820  0.7991
  165SAPE   C3318607   3.870   0.732   6.977  0.8272  0.4996  0.0426
  165SAPE   H3X18608   3.902   0.827   7.025  0.1531  0.1173  1.2723
  165SAPE   H3Y18609   3.931   0.647   7.016  0.6964  0.3958  0.0249
  165SAPE   C3418610   3.726   0.699   7.015  1.0504  0.1536  0.1462
  165SAPE   H4X18611   3.698   0.601   6.973  1.7872  0.2560 -0.6091
  165SAPE   H4Y18612   3.660   0.781   6.979 -0.6170 -0.9446  0.6581
  165SAPE   C3518613   3.699   0.679   7.169 -0.0020  0.8633  0.8744
  165SAPE   H5X18614   3.768   0.604   7.213 -2.8831 -2.5424 -0.2372
  165SAPE   H5Y18615   3.601   0.629   7.184  1.1560 -1.3449  1.2163
  165SAPE   C3618616   3.681   0.802   7.250  0.0537 -0.1537  0.1163
  165SAPE   H6X18617   3.604   0.859   7.194 -0.9345 -2.5985 -1.0819
  165SAPE   H6Y18618   3.776   0.858   7.254 -0.3880  0.6789 -1.0743
  165SAPE   C3718619   3.623   0.771   7.390 -0.1213 -0.1384 -0.0975
  165SAPE   H7X18620   3.530   0.710   7.384  0.2021 -0.6841  0.3552
  165SAPE   H7Y18621   3.598   0.863   7.447  0.0699 -2.0179  3.1726
  165SAPE   C3818622   3.720   0.695   7.484 -0.0812 -0.3722  0.4484
  165SAPE   H8X18623   3.765   0.607   7.434 -2.3187 -2.6004  2.1977
  165SAPE   H8Y18624   3.670   0.657   7.576 -0.7965 -0.4891  0.0215
  165SAPE   C3918625   3.818   0.795   7.546  0.4571  0.1654  0.0800
  165SAPE   H9X18626   3.760   0.866   7.610  2.4002 -0.3371  2.4680
  165SAPE   H9Y18627   3.883   0.852   7.477  2.0009  1.3239  2.4207
  165SAPE  C31018628   3.915   0.707   7.633 -0.0512 -0.7748 -0.1820
  165SAPE  H10X18629   4.008   0.693   7.573  0.2227  0.6338 -0.0973
  165SAPE  H10Y18630   3.874   0.606   7.655  0.7110 -1.1532 -0.4748
  165SAPE  C31118631   3.943   0.774   7.765  0.0018  0.1826 -0.1227
  165SAPE  H11X18632   3.845   0.790   7.815  0.0190  2.2518 -0.7295
  165SAPE  H11Y18633   3.980   0.878   7.753 -2.8309  1.0541 -1.5931
  165SAPE  C31218634   4.040   0.696   7.857 -0.0018  0.1769  0.8267
  165SAPE  H12X18635   4.133   0.692   7.797 -0.9777  1.9403 -0.8853
  165SAPE  H12Y18636   4.004   0.592   7.868  1.5160 -0.9828 -3.8827
  165SAPE  C31318637   4.073   0.762   7.990 -0.3907  0.1428 -0.2320
  165SAPE  H13X18638   3.980   0.814   8.020 -1.0523  0.5961 -2.9174
  165SAPE  H13Y18639   4.150   0.841   7.976 -1.3624  1.4589  1.5988
  165SAPE  C31418640   4.120   0.656   8.095  0.6486  0.1303  0.0066
  165SAPE  H14X18641   4.178   0.577   8.042 -0.2805 -0.2687 -0.4134
  165SAPE  H14Y18642   4.031   0.604   8.136  0.7823  0.2197  0.4129
  165SAPE  C31518643   4.202   0.721   8.204  0.2778  0.3588  0.1025
  165SAPE  H15X18644   4.141   0.808   8.235 -1.2712 -0.3969 -0.7885
  165SAPE  H15Y18645   4.294   0.763   8.159  1.4265 -1.9887  0.1603
  165SAPE  C31618646   4.236   0.633   8.324  0.2371  0.6204  0.2503
  165SAPE  H16X18647   4.304   0.554   8.286 -2.9051 -2.1564  0.1372
  165SAPE  H16Y18648   4.138   0.595   8.362  0.4532  0.1562  0.3528
  165SAPE  C31718649   4.304   0.711   8.438 -0.0353 -0.1065 -0.4501
  165SAPE  H17X18650   4.332   0.639   8.517  0.5809 -0.8175 -1.3070
  165SAPE  H17Y18651   4.224   0.765   8.494  0.1395 -1.7183  1.4039
  165SAPE  C31818652   4.423   0.802   8.402 -0.2473  0.2000  0.1873
  165SAPE  H18X18653   4.404   0.895   8.345 -2.1981  0.4461  1.1898
  165SAPE  H18Y18654   4.497   0.729   8.364 -0.4777  0.9049 -1.6709
  165SAPE  H18Z18655   4.484   0.843   8.485  3.0175 -1.3450 -1.3585
  166SAPE     N18656   4.126   4.343   5.732  0.2874  0.7584  0.5287
  166SAPE   HN118657   4.224   4.338   5.769  1.6440 -2.1286 -3.0401
  166SAPE   HN218658   4.116   4.426   5.670 -1.1350 -1.6776 -2.6430
  166SAPE   HN318659   4.071   4.339   5.819  0.2230 -2.0758  0.4195
  166SAPE   C1218660   4.087   4.214   5.663  0.1821  0.8808 -0.2746
  166SAPE  H12A18661   4.145   4.205   5.569 -1.2933 -1.2328 -1.0362
  166SAPE  H12B18662   3.981   4.226   5.632 -1.2000 -1.7020  3.1305
  166SAPE   C1118663   4.100   4.090   5.762  0.5107 -0.4688 -0.0527
  166SAPE  H11A18664   4.208   4.078   5.782  1.2231 -1.7069 -4.0912
  166SAPE  H11B18665   4.067   3.999   5.707  0.5792 -2.0755  2.4941
  166SAPE     P18666   3.970   3.967   5.943 -0.0833  0.2754 -0.4908
  166SAPE   O1318667   3.869   4.011   6.041  0.0637  0.0289 -0.0153
  166SAPE   O1418668   3.928   3.874   5.837  0.4899  0.3863 -0.0864
  166SAPE   O1218669   4.021   4.105   5.880  0.0928 -0.2469 -0.2031
  166SAPE   O1118670   4.093   3.919   6.026 -0.6099 -0.0798 -0.4972
  166SAPE    C118671   4.167   4.010   6.110  0.2001 -0.4608 -0.6192
  166SAPE    HA18672   4.272   3.991   6.077  0.7453  0.2993  0.6851
  166SAPE    HB18673   4.135   4.116   6.101 -0.8359 -0.6671  0.5373
  166SAPE    C218674   4.166   3.970   6.253 -0.4729 -0.4823  0.1339
  166SAPE    HS18675   4.206   3.867   6.244  0.9856  0.1061 -0.3431
  166SAPE   O2118676   4.043   3.984   6.321  0.0548  0.2399 -0.1261
  166SAPE   C2118677   3.966   3.875   6.306  0.0954 -0.1338 -0.3914
  166SAPE   O2218678   3.990   3.778   6.239 -0.1276 -0.0985  0.0558
  166SAPE   C2218679   3.842   3.886   6.405 -0.3718  0.2010  0.8542
  166SAPE   H2R18680   3.772   3.962   6.364  0.0262 -0.3059 -0.8068
  166SAPE   H2S18681   3.786   3.790   6.398  0.5325 -0.2678 -0.1995
  166SAPE    C318682   4.272   4.053   6.332 -0.2345  0.4821  0.4800
  166SAPE    HX18683   4.216   4.149   6.341 -0.8800  0.3093 -1.4118
  166SAPE    HY18684   4.365   4.057   6.272 -0.8730 -1.3730 -0.6826
  166SAPE   O3118685   4.294   3.992   6.461 -0.4157  0.4613  0.5427
  166SAPE   C3118686   4.380   3.891   6.464  0.3458 -0.1234  0.2699
  166SAPE   O3218687   4.450   3.856   6.373  0.2933 -0.4978 -0.1680
  166SAPE   C3218688   4.379   3.827   6.605 -0.0695  0.0490 -0.1533
  166SAPE   H2X18689   4.275   3.836   6.644  0.5243  1.7103  1.0756
  166SAPE   H2Y18690   4.452   3.881   6.668 -1.0769  0.0598  1.0312
  166SAPE   C2318691   3.877   3.932   6.547  0.5220 -0.1677  0.5098
  166SAPE   H3R18692   3.788   3.962   6.605  0.6795  0.8735  0.2214
  166SAPE   H3S18693   3.931   4.029   6.540 -1.4875  0.8828 -0.8063
  166SAPE   C2418694   3.966   3.828   6.618 -0.4417 -0.1268  0.2318
  166SAPE   H4R18695   4.008   3.887   6.703 -1.6760  1.0983  0.0234
  166SAPE   H4S18696   4.047   3.794   6.550  1.1830  0.1036  2.0137
  166SAPE   C2518697   3.879   3.712   6.654 -0.5163  0.5234  0.1346
  166SAPE   H5R18698   3.799   3.674   6.589 -1.4156  0.7715  1.0803
  166SAPE   C2618699   3.884   3.652   6.775 -0.5789  1.1170 -0.9590
  166SAPE   H6R18700   3.822   3.564   6.798  0.1975  0.5091 -1.2044
  166SAPE   C2718701   3.977   3.696   6.887 -0.3853 -0.9030  0.0057
  166SAPE   H7R18702   4.076   3.731   6.851 -0.3370 -2.1366 -1.1071
  166SAPE   H7S18703   3.998   3.607   6.950  2.0809 -1.0074 -0.9113
  166SAPE   C2818704   3.918   3.796   6.989  0.1601 -0.1130 -0.4895
  166SAPE   H8R18705   3.829   3.855   6.961  0.4566  2.0267  2.7565
  166SAPE   C2918706   3.966   3.816   7.113  0.6133  0.3858  0.4509
  166SAPE   H9R18707   3.917   3.890   7.179 -0.8573 -1.2999  1.3137
  166SAPE  C21018708   4.086   3.761   7.169  0.2055  0.4332 -0.2343
  166SAPE  H10R18709   4.104   3.666   7.113  0.0487  0.7641 -0.8462
  166SAPE  H10S18710   4.061   3.732   7.274 -1.0544  0.4140 -0.5311
  166SAPE  C21118711   4.204   3.862   7.154  0.6190 -0.6581  1.2099
  166SAPE  H11R18712   4.225   3.893   7.050 -1.9707  2.7727  1.6168
  166SAPE  C21218713   4.273   3.908   7.256 -0.0959 -0.1251  0.4678
  166SAPE  H12R18714   4.354   3.979   7.236  0.2612 -0.6286  0.0929
  166SAPE  C21318715   4.244   3.875   7.399  0.4596 -0.0987  0.0642
  166SAPE  H13R18716   4.326   3.902   7.469 -0.4059 -0.4139  1.2177
  166SAPE  H13S18717   4.233   3.765   7.397  0.4704 -0.0984 -0.0149
  166SAPE  C21418718   4.116   3.931   7.462 -0.0620  0.1583 -0.2305
  166SAPE  H14R18719   4.049   3.855   7.504  0.1258  0.5529  0.7875
  166SAPE  C21518720   4.084   4.063   7.483  0.0617  0.8206  0.1115
  166SAPE  H15R18721   3.989   4.083   7.536  0.6748  2.1043  0.7448
  166SAPE  C21618722   4.166   4.184   7.448 -0.4283 -0.1871 -0.8000
  166SAPE  H16R18723   4.107   4.272   7.416  1.2227  1.3604  0.3099
  166SAPE  H16S18724   4.233   4.162   7.362 -0.6289 -3.1857 -0.2722
  166SAPE  C21718725   4.269   4.224   7.561  0.4521 -0.0159 -0.5524
  166SAPE  H17R18726   4.335   4.291   7.501 -0.0910 -0.8576 -2.1078
  166SAPE  H17S18727   4.317   4.128   7.589 -0.5111 -0.2175  0.4305
  166SAPE  C21818728   4.200   4.287   7.685  0.8580 -0.6450  0.7106
  166SAPE  H18R18729   4.135   4.217   7.743 -0.4706  0.1343  0.1812
  166SAPE  H18S18730   4.146   4.369   7.634  1.2895  0.4773  2.0245
  166SAPE  C21918731   4.304   4.333   7.792 -0.2672 -0.8976  1.0377
  166SAPE  H19R18732   4.373   4.408   7.747 -0.3470 -2.2154 -1.3852
  166SAPE  H19S18733   4.367   4.245   7.816  2.4704  0.3748 -1.2830
  166SAPE  C22018734   4.243   4.395   7.923  0.2639  0.1892  0.5638
  166SAPE  H20R18735   4.166   4.322   7.956  1.4608 -1.1831  0.3181
  166SAPE  H20S18736   4.189   4.491   7.905  0.6873  0.1650 -0.8737
  166SAPE  H20T18737   4.315   4.396   8.008  2.8124  2.3542 -1.5136
  166SAPE   C3318738   4.421   3.678   6.594  0.0092 -0.9122  0.4776
  166SAPE   H3X18739   4.526   3.674   6.557  0.6788  3.1905  1.7331
  166SAPE   H3Y18740   4.359   3.623   6.519 -1.6582  0.8592  0.4963
  166SAPE   C3418741   4.398   3.602   6.725 -0.3779  0.2226 -0.1608
  166SAPE   H4X18742   4.433   3.497   6.714  0.6691  0.5703 -0.1717
  166SAPE   H4Y18743   4.289   3.594   6.748 -0.5927 -1.1930 -1.5322
  166SAPE   C3518744   4.495   3.662   6.830  0.0989 -0.0929  0.0411
  166SAPE   H5X18745   4.466   3.767   6.852 -1.0475 -0.2083 -0.8152
  166SAPE   H5Y18746   4.600   3.663   6.796 -0.3228  3.0146 -1.4059
  166SAPE   C3618747   4.489   3.582   6.964 -0.3888  0.1695 -0.1249
  166SAPE   H6X18748   4.529   3.481   6.939  1.5133  0.7944  0.3107
  166SAPE   H6Y18749   4.381   3.572   6.988 -0.4835  2.4630  0.5223
  166SAPE   C3718750   4.555   3.654   7.072 -0.2341  0.4472 -0.3507
  166SAPE   H7X18751   4.506   3.752   7.092  0.6105  0.1900  3.4060
  166SAPE   H7Y18752   4.662   3.674   7.053 -0.4638  1.2289 -0.8197
  166SAPE   C3818753   4.565   3.572   7.204  0.2315  0.8302  0.4693
  166SAPE   H8X18754   4.644   3.618   7.267  0.4349  0.0885  0.7611
  166SAPE   H8Y18755   4.595   3.465   7.198 -0.5284  0.7309 -2.2150
  166SAPE   C3918756   4.438   3.572   7.289  0.6022 -0.0173 -0.2193
  166SAPE   H9X18757   4.366   3.499   7.246  2.3594 -1.6762 -0.4001
  166SAPE   H9Y18758   4.401   3.676   7.275  0.6262  0.0653  0.3267
  166SAPE  C31018759   4.456   3.555   7.438  0.7203 -0.2074  0.6662
  166SAPE  H10X18760   4.510   3.459   7.453  4.0972  1.8413  2.2262
  166SAPE  H10Y18761   4.357   3.552   7.488 -0.0607  1.8532 -0.7118
  166SAPE  C31118762   4.539   3.669   7.503  0.0414  0.5539  0.6237
  166SAPE  H11X18763   4.487   3.761   7.469 -1.9286 -0.9472 -0.5383
  166SAPE  H11Y18764   4.641   3.657   7.461 -1.2379 -0.3474 -2.4023
  166SAPE  C31218765   4.558   3.663   7.654  0.5602 -0.4253 -0.1609
  166SAPE  H12X18766   4.643   3.729   7.679 -0.9267  2.1014 -1.5496
  166SAPE  H12Y18767   4.578   3.559   7.687 -1.8595 -0.5631  1.0040
  166SAPE  C31318768   4.441   3.732   7.729  0.4652 -0.2572  0.8165
  166SAPE  H13X18769   4.345   3.682   7.705  0.4648  1.0533 -2.1951
  166SAPE  H13Y18770   4.432   3.838   7.696  0.1090 -0.6512 -0.3670
  166SAPE  C31418771   4.459   3.732   7.882  0.0465  0.1938 -0.6269
  166SAPE  H14X18772   4.561   3.762   7.914 -0.7218  1.1691  0.9753
  166SAPE  H14Y18773   4.434   3.635   7.932  0.5651  2.3217  4.0461
  166SAPE  C31518774   4.362   3.835   7.949 -0.2235  0.1914 -0.0431
  166SAPE  H15X18775   4.256   3.802   7.934 -0.6513  1.2474  0.6100
  166SAPE  H15Y18776   4.370   3.936   7.903  0.1866  0.5706  0.8516
  166SAPE  C31618777   4.400   3.865   8.098 -0.5695  0.0146  0.1113
  166SAPE  H16X18778   4.322   3.936   8.133 -0.6983 -0.1705  0.2013
  166SAPE  H16Y18779   4.504   3.905   8.096 -0.8075  0.5829 -0.9275
  166SAPE  C31718780   4.380   3.743   8.188 -0.9581  0.0313 -0.7840
  166SAPE  H17X18781   4.395   3.772   8.295  1.8995  0.4026 -1.2599
  166SAPE  H17Y18782   4.457   3.671   8.155  0.0982  0.4175  0.7615
  166SAPE  C31818783   4.238   3.678   8.187 -0.2336  0.2911 -0.1005
  166SAPE  H18X18784   4.231   3.583   8.245  0.1869  0.5674  0.4115
  166SAPE  H18Y18785   4.197   3.658   8.086  0.3776  3.5500 -1.0315
  166SAPE  H18Z18786   4.172   3.752   8.237  0.1557  1.0173 -0.6549
  167SAPE     N18787   4.820   3.852   6.048 -0.0937  0.0449 -0.0559
  167SAPE   HN118788   4.752   3.818   5.977  0.4007 -0.3460 -0.3485
  167SAPE   HN218789   4.878   3.772   6.079  2.2159  0.3534 -3.3023
  167SAPE   HN318790   4.772   3.898   6.128 -1.2826  0.2774 -0.9009
  167SAPE   C1218791   4.891   3.968   5.996  0.2932  0.0961  0.1906
  167SAPE  H12A18792   4.818   4.049   5.979 -0.9693 -0.9425  0.6074
  167SAPE  H12B18793   4.928   3.938   5.895  1.3982  1.7729  0.0725
  167SAPE   C1118794   4.987   4.028   6.099 -0.5297 -0.4858  0.4123
  167SAPE  H11A18795   5.032   4.123   6.062 -0.1099 -1.1249 -0.7240
  167SAPE  H11B18796   5.072   3.968   6.139 -0.8237 -2.3720 -1.6850
  167SAPE     P18797   4.848   4.203   6.241  0.1570  0.0684  0.2989
  167SAPE   O1318798   4.904   4.292   6.138  0.2021 -0.1503 -0.1838
  167SAPE   O1418799   4.702   4.197   6.254 -0.0663 -0.5433 -0.4293
  167SAPE   O1218800   4.903   4.049   6.214 -0.5926 -0.0250  0.1252
  167SAPE   O1118801   4.904   4.241   6.380 -0.4992 -0.1560 -0.4160
  167SAPE    C118802   5.049   4.232   6.397 -0.3765  0.7319 -0.2615
  167SAPE    HA18803   5.102   4.232   6.300  0.2165 -1.2384  0.0307
  167SAPE    HB18804   5.090   4.322   6.448  0.6370  0.1513 -0.0435
  167SAPE    C218805   5.079   4.118   6.494 -0.4405  0.2455 -0.0533
  167SAPE    HS18806   5.031   4.028   6.449  1.8737 -0.9076 -0.2980
  167SAPE   O2118807   5.040   4.138   6.630  0.1813  0.0113 -0.5745
  167SAPE   C2118808   4.928   4.081   6.673  0.3547 -0.1676  0.1077
  167SAPE   O2218809   4.854   4.013   6.608  0.2836 -0.6910  0.3143
  167SAPE   C2218810   4.913   4.123   6.823 -0.5748  0.2731  0.3017
  167SAPE   H2R18811   5.003   4.093   6.882 -0.0931  1.3662  0.1338
  167SAPE   H2S18812   4.894   4.231   6.841 -0.5961  0.6742 -2.0710
  167SAPE    C318813   5.229   4.085   6.500 -0.1434  0.7983 -0.0395
  167SAPE    HX18814   5.305   4.149   6.551  1.8543 -2.2474  0.9166
  167SAPE    HY18815   5.264   4.087   6.395  0.5104 -1.6519  0.1129
  167SAPE   O3118816   5.256   3.961   6.575  0.7006  0.5486 -0.4342
  167SAPE   C3118817   5.305   3.866   6.511  0.1621 -0.6439  1.5081
  167SAPE   O3218818   5.333   3.866   6.393 -0.2574  0.3041 -0.3144
  167SAPE   C3218819   5.324   3.741   6.604 -0.1976  0.0372 -0.0084
  167SAPE   H2X18820   5.344   3.652   6.541 -0.3211 -0.1530  0.2172
  167SAPE   H2Y18821   5.228   3.718   6.655 -0.9937 -1.2095 -2.0066
  167SAPE   C2318822   4.788   4.049   6.891  0.2597  0.5855  0.3123
  167SAPE   H3R18823   4.795   3.939   6.876  0.3564  0.5875  0.3346
  167SAPE   H3S18824   4.700   4.081   6.831 -1.0219 -0.0323  1.8315
  167SAPE   C2418825   4.768   4.077   7.037 -0.3119  0.6785 -0.5881
  167SAPE   H4R18826   4.720   4.177   7.043 -0.8465  0.3654  0.4135
  167SAPE   H4S18827   4.864   4.095   7.090 -1.4481  3.3426  0.6548
  167SAPE   C2518828   4.692   3.979   7.114 -0.5734 -0.3276  0.5022
  167SAPE   H5R18829   4.654   3.889   7.062  0.3623 -0.2571 -0.3076
  167SAPE   C2618830   4.679   3.982   7.248  0.3840 -0.8264 -0.0270
  167SAPE   H6R18831   4.614   3.911   7.300 -1.4829  1.7469  1.2458
  167SAPE   C2718832   4.739   4.083   7.344  0.0623 -0.6154  0.2080
  167SAPE   H7R18833   4.834   4.126   7.305 -0.6322  1.7779  1.0746
  167SAPE   H7S18834   4.780   4.020   7.425  1.9270 -0.8832 -0.9102
  167SAPE   C2818835   4.639   4.193   7.373 -0.2602  0.3419 -0.1761
  167SAPE   H8R18836   4.591   4.234   7.283 -0.4991  3.1758  1.1907
  167SAPE   C2918837   4.605   4.251   7.488 -0.2594  0.3987 -0.0287
  167SAPE   H9R18838   4.549   4.346   7.491 -0.8158  0.2222 -3.1203
  167SAPE  C21018839   4.656   4.213   7.629  0.4306 -0.4158  0.0673
  167SAPE  H10R18840   4.627   4.109   7.655  0.2291 -0.5864 -0.8328
  167SAPE  H10S18841   4.597   4.271   7.704  0.2162 -1.0597  0.3970
  167SAPE  C21118842   4.803   4.225   7.656  0.6532  0.4528 -0.1276
  167SAPE  H11R18843   4.870   4.260   7.576  0.1682  2.4747  0.3258
  167SAPE  C21218844   4.855   4.204   7.776 -0.1323 -0.3285 -0.1920
  167SAPE  H12R18845   4.964   4.207   7.792 -0.2387  0.1784  0.4257
  167SAPE  C21318846   4.771   4.156   7.894 -0.2356 -0.3611  0.1343
  167SAPE  H13R18847   4.829   4.091   7.963  1.6301  2.4457  1.3343
  167SAPE  H13S18848   4.689   4.090   7.860 -0.6776 -0.6348  1.6907
  167SAPE  C21418849   4.715   4.272   7.978  0.1486 -0.6831 -1.3916
  167SAPE  H14R18850   4.610   4.294   7.952  0.2184 -0.7988 -1.7757
  167SAPE  C21518851   4.781   4.338   8.078 -0.1425  0.7301 -0.0186
  167SAPE  H15R18852   4.718   4.405   8.138  1.2519  0.7262  1.5054
  167SAPE  C21618853   4.922   4.321   8.134  0.3400 -0.2379 -0.3007
  167SAPE  H16R18854   4.978   4.412   8.103 -0.4218  0.7972  1.3173
  167SAPE  H16S18855   4.973   4.235   8.085  0.1307 -1.0885  0.9697
  167SAPE  C21718856   4.953   4.306   8.283  0.9452  0.3064 -0.0995
  167SAPE  H17R18857   4.899   4.216   8.320  2.4207  0.6432  3.0028
  167SAPE  H17S18858   4.923   4.398   8.338  0.6520 -0.2175  0.6177
  167SAPE  C21818859   5.111   4.303   8.308  0.5719 -0.6495 -0.8853
  167SAPE  H18R18860   5.144   4.391   8.250  2.0557 -0.3654  0.3497
  167SAPE  H18S18861   5.151   4.216   8.252  1.1520 -1.4757  0.7664
  167SAPE  C21918862   5.135   4.293   8.459 -0.1644 -0.4967 -0.2466
  167SAPE  H19R18863   5.242   4.316   8.477 -0.3760 -0.7574  1.4419
  167SAPE  H19S18864   5.113   4.189   8.491 -0.6017 -0.1569  0.5567
  167SAPE  C22018865   5.057   4.404   8.540 -0.1363  0.0561  0.4609
  167SAPE  H20R18866   5.103   4.412   8.641 -1.8979  0.4866  1.2584
  167SAPE  H20S18867   4.949   4.380   8.550 -0.0988  0.5869  2.3209
  167SAPE  H20T18868   5.069   4.507   8.500  1.0902  0.1123  0.9535
  167SAPE   C3318869   5.420   3.782   6.720  0.2926  0.2152 -0.1182
  167SAPE   H3X18870   5.359   3.834   6.797  1.1298  0.9602  0.0467
  167SAPE   H3Y18871   5.505   3.848   6.690  0.3156  1.4003  2.3977
  167SAPE   C3418872   5.504   3.667   6.788 -0.2217 -0.7471  0.2339
  167SAPE   H4X18873   5.556   3.703   6.879  1.0577 -1.0847 -0.3512
  167SAPE   H4Y18874   5.581   3.646   6.711  1.0553  2.0108  0.7254
  167SAPE   C3518875   5.412   3.545   6.822 -0.0643 -0.3556 -0.0409
  167SAPE   H5X18876   5.349   3.508   6.738  2.3050 -1.3863 -1.4016
  167SAPE   H5Y18877   5.333   3.585   6.890  0.5447  1.1618 -0.1909
  167SAPE   C3618878   5.479   3.428   6.894 -0.1254  0.4167 -0.1116
  167SAPE   H6X18879   5.543   3.380   6.818 -2.6093 -2.0903 -0.7060
  167SAPE   H6Y18880   5.405   3.354   6.932  0.0153 -0.7038 -1.9863
  167SAPE   C3718881   5.567   3.470   7.014 -0.4739  0.5399 -0.4467
  167SAPE   H7X18882   5.654   3.523   6.970  1.1167 -1.8321 -0.2417
  167SAPE   H7Y18883   5.614   3.382   7.064  1.7288  2.7893  1.5529
  167SAPE   C3818884   5.504   3.542   7.130 -0.4766  0.1064  0.2950
  167SAPE   H8X18885   5.438   3.473   7.187 -1.9228  2.1765  1.1957
  167SAPE   H8Y18886   5.428   3.613   7.092 -3.8112 -2.9061  1.0586
  167SAPE   C3918887   5.615   3.612   7.212 -0.1447  0.0618 -0.3217
  167SAPE   H9X18888   5.662   3.686   7.144  1.7159 -1.2497 -0.4940
  167SAPE   H9Y18889   5.699   3.545   7.239 -0.1459 -0.6636 -2.0750
  167SAPE  C31018890   5.563   3.694   7.327  0.8472 -0.7654 -0.0650
  167SAPE  H10X18891   5.494   3.777   7.299  1.2137 -0.2697  0.4995
  167SAPE  H10Y18892   5.641   3.743   7.389  1.6999 -0.9662 -0.9581
  167SAPE  C31118893   5.477   3.612   7.433 -0.4310  0.4875 -0.5309
  167SAPE  H11X18894   5.386   3.567   7.387  0.4787 -0.9457 -0.9755
  167SAPE  H11Y18895   5.444   3.673   7.520  1.6170  1.1207 -0.1816
  167SAPE  C31218896   5.575   3.500   7.499 -0.5992  0.9555  0.0963
  167SAPE  H12X18897   5.667   3.552   7.531  1.1476 -1.6981 -0.4638
  167SAPE  H12Y18898   5.614   3.432   7.420 -1.4235  0.1045  0.4079
  167SAPE  C31318899   5.511   3.417   7.608 -0.0967  0.4234 -0.1039
  167SAPE  H13X18900   5.565   3.320   7.616  1.0120  1.0543  0.0588
  167SAPE  H13Y18901   5.407   3.395   7.576 -0.2027 -0.0554  0.5702
  167SAPE  C31418902   5.508   3.492   7.740 -1.0363  0.5361  0.2878
  167SAPE  H14X18903   5.480   3.599   7.724  1.7615  1.2390 -0.0625
  167SAPE  H14Y18904   5.607   3.514   7.785 -0.0899  2.1241 -2.4864
  167SAPE  C31518905   5.425   3.417   7.843  0.2177  0.7408 -0.6838
  167SAPE  H15X18906   5.482   3.328   7.874 -0.4440  1.2243  2.0342
  167SAPE  H15Y18907   5.325   3.393   7.800  0.3696 -1.1448 -0.0117
  167SAPE  C31618908   5.420   3.496   7.975  0.5271 -0.7833 -0.4056
  167SAPE  H16X18909   5.384   3.598   7.951 -0.7699 -1.2101 -0.3475
  167SAPE  H16Y18910   5.522   3.505   8.017  0.1501 -2.0144  0.8034
  167SAPE  C31718911   5.331   3.426   8.080  0.1722 -0.4530  0.0050
  167SAPE  H17X18912   5.232   3.410   8.032 -1.4718  1.5970  2.5395
  167SAPE  H17Y18913   5.315   3.501   8.162  0.1519 -1.0258  0.5306
  167SAPE  C31818914   5.387   3.295   8.146 -0.2130  0.1086  0.3985
  167SAPE  H18X18915   5.311   3.250   8.213 -0.2965  0.5595  0.6121
  167SAPE  H18Y18916   5.479   3.310   8.205  0.1154  0.0984 -0.1080
  167SAPE  H18Z18917   5.423   3.238   8.058 -0.6518 -0.9747  0.9119
  168SAPE     N18918   6.642   4.790   6.187 -0.7388  0.1865 -0.5560
  168SAPE   HN118919   6.567   4.720   6.207 -0.5474  0.0367 -0.3579
  168SAPE   HN218920   6.673   4.770   6.090 -0.9104 -1.9783 -0.2005
  168SAPE   HN318921   6.719   4.761   6.250 -1.5033  0.5357  0.5712
  168SAPE   C1218922   6.578   4.922   6.212  0.5785  0.4039  0.3132
  168SAPE  H12A18923   6.472   4.914   6.182  1.1047 -1.6732 -1.0604
  168SAPE  H12B18924   6.635   4.997   6.153 -1.3463  0.5707 -1.3653
  168SAPE   C1118925   6.597   4.949   6.365 -0.1001 -0.2779  0.1444
  168SAPE  H11A18926   6.552   4.862   6.417 -1.1756  0.9005  1.2021
  168SAPE  H11B18927   6.547   5.043   6.397  0.7080 -0.3105  1.5276
  168SAPE     P18928   6.804   5.103   6.415 -0.5295  0.3342 -0.2456
  168SAPE   O1318929   6.941   5.092   6.468 -0.5481  0.2867 -0.3516
  168SAPE   O1418930   6.781   5.173   6.287 -0.0656  0.2227 -0.1529
  168SAPE   O1218931   6.738   4.953   6.407  0.7670  0.1234 -0.2035
  168SAPE   O1118932   6.717   5.179   6.529  0.4620 -0.7781  1.3077
  168SAPE    C118933   6.727   5.141   6.662 -0.1561  0.6020  0.1772
  168SAPE    HA18934   6.818   5.087   6.694  0.2579  2.5649  2.4311
  168SAPE    HB18935   6.722   5.233   6.724 -2.7547  0.5146  0.1477
  168SAPE    C218936   6.605   5.058   6.707 -0.0200 -0.1018 -0.1545
  168SAPE    HS18937   6.616   4.959   6.658 -1.9295 -0.0761 -0.6998
  168SAPE   O2118938   6.483   5.111   6.656 -0.4100 -0.3506 -0.1894
  168SAPE   C2118939   6.377   5.041   6.671  0.3297 -0.6482  0.5773
  168SAPE   O2218940   6.372   4.919   6.698 -0.5132  0.1233  0.4156
  168SAPE   C2218941   6.255   5.131   6.653  0.4346 -0.1598  0.1509
  168SAPE   H2R18942   6.275   5.240   6.640 -1.0835  0.2266  1.0845
  168SAPE   H2S18943   6.214   5.085   6.560  0.5038 -0.9531  0.5097
  168SAPE    C318944   6.612   5.035   6.862 -0.1058 -0.8749  1.1425
  168SAPE    HX18945   6.525   4.979   6.902  0.2727 -0.3548  2.7558
  168SAPE    HY18946   6.588   5.137   6.901 -0.8943 -0.6578  0.0989
  168SAPE   O3118947   6.746   4.980   6.901  0.0451  0.3813 -0.4230
  168SAPE   C3118948   6.776   5.006   7.023 -0.2197  0.1690  0.1007
  168SAPE   O3218949   6.708   5.066   7.104 -0.4798  0.1945 -0.1597
  168SAPE   C3218950   6.918   4.956   7.052 -0.2904 -0.2538  0.0854
  168SAPE   H2X18951   6.982   4.966   6.961 -0.8632  0.8183 -0.2125
  168SAPE   H2Y18952   6.906   4.850   7.083  0.9043  0.4231  2.9966
  168SAPE   C2318953   6.157   5.120   6.777  0.3294  0.0755 -0.2074
  168SAPE   H3R18954   6.133   5.013   6.791 -2.4224  0.1483 -3.7068
  168SAPE   H3S18955   6.061   5.174   6.762 -0.1146 -0.6885 -0.1508
  168SAPE   C2418956   6.227   5.179   6.904  0.2238 -0.1425  0.1679
  168SAPE   H4R18957   6.263   5.281   6.878 -0.7524  1.3264  4.1599
  168SAPE   H4S18958   6.318   5.119   6.923  0.9940  1.0053  0.1903
  168SAPE   C2518959   6.143   5.191   7.029  0.4289  0.2845  0.4803
  168SAPE   H5R18960   6.062   5.266   7.028 -0.1921 -0.3705  1.5977
  168SAPE   C2618961   6.161   5.128   7.148 -0.1554  0.1599 -0.9229
  168SAPE   H6R18962   6.090   5.143   7.230 -0.2661 -1.4320 -0.7169
  168SAPE   C2718963   6.261   5.010   7.180  0.5457  0.9268 -0.0448
  168SAPE   H7R18964   6.274   4.947   7.090 -0.8581  0.7751 -0.1603
  168SAPE   H7S18965   6.218   4.941   7.256  0.3572  1.0729 -0.0169
  168SAPE   C2818966   6.404   5.053   7.205  0.3276 -0.0605 -0.1865
  168SAPE   H8R18967   6.471   5.062   7.118  1.0569  0.6337  0.4352
  168SAPE   C2918968   6.455   5.077   7.329 -0.4633 -0.9025  0.5013
  168SAPE   H9R18969   6.559   5.111   7.339  0.2137 -2.9689  0.6760
  168SAPE  C21018970   6.377   5.073   7.458  0.0036  0.0499 -0.1075
  168SAPE  H10R18971   6.268   5.086   7.439  0.2895  3.0747  0.0075
  168SAPE  H10S18972   6.403   5.153   7.531 -0.0325  1.2229 -1.3631
  168SAPE  C21118973   6.409   4.936   7.508  0.6577 -0.8449 -0.4710
  168SAPE  H11R18974   6.338   4.859   7.474 -0.7863 -0.0196  0.5877
  168SAPE  C21218975   6.490   4.894   7.606 -0.4256 -0.0117  0.1155
  168SAPE  H12R18976   6.493   4.789   7.637  0.5986  0.0191  0.1397
  168SAPE  C21318977   6.583   4.981   7.688  0.0549 -0.4099  0.6482
  168SAPE  H13R18978   6.571   4.964   7.797  1.5492 -1.5336  0.6543
  168SAPE  H13S18979   6.579   5.089   7.662  1.0886 -0.7966 -1.1922
  168SAPE  C21418980   6.731   4.952   7.657 -0.2147  0.0854 -0.7642
  168SAPE  H14R18981   6.759   4.924   7.554  1.9159  0.1456 -0.2267
  168SAPE  C21518982   6.826   4.930   7.747 -0.2279 -0.0955  0.5895
  168SAPE  H15R18983   6.927   4.931   7.703 -0.0583 -0.8765  0.9409
  168SAPE  C21618984   6.814   4.938   7.899 -0.1045 -0.6499  0.3210
  168SAPE  H16R18985   6.735   5.011   7.924  0.4109  0.0429 -0.0546
  168SAPE  H16S18986   6.909   4.972   7.944  0.2855 -0.3264 -0.7296
  168SAPE  C21718987   6.772   4.803   7.966  0.3280 -0.3167  0.5060
  168SAPE  H17R18988   6.843   4.726   7.930 -3.2126 -2.7575 -1.6046
  168SAPE  H17S18989   6.671   4.780   7.925  0.5468  2.3628 -1.7703
  168SAPE  C21818990   6.780   4.816   8.115  0.6070 -0.7811 -0.8162
  168SAPE  H18R18991   6.887   4.827   8.142 -0.0501  2.5188  0.7523
  168SAPE  H18S18992   6.758   4.717   8.160 -0.4672 -1.3122 -2.4473
  168SAPE  C21918993   6.698   4.926   8.180 -0.0493 -0.6669 -0.1382
  168SAPE  H19R18994   6.591   4.916   8.153 -0.5537 -0.8903  1.8110
  168SAPE  H19S18995   6.725   5.031   8.155 -1.2350 -0.5447 -0.9594
  168SAPE  C22018996   6.712   4.919   8.331 -0.1035 -0.3459  1.0309
  168SAPE  H20R18997   6.648   4.993   8.384 -0.0126  0.8834 -0.5304
  168SAPE  H20S18998   6.819   4.934   8.355 -0.0481 -0.0198  0.5891
  168SAPE  H20T18999   6.681   4.819   8.369  1.1943 -1.2924 -0.3683
  168SAPE   C3319000   6.990   5.023   7.167  0.2580 -0.7270  0.8150
  168SAPE   H3X19001   6.942   4.989   7.261 -0.7299  2.3508  1.4602
  168SAPE   H3Y19002   6.982   5.133   7.153 -0.5085 -1.0858 -1.8103
  168SAPE   C3419003   7.139   5.001   7.162 -0.0471  0.6289  0.0904
  168SAPE   H4X19004   7.173   5.040   7.064  0.1571  0.5969  0.1465
  168SAPE   H4Y19005   7.176   4.896   7.175  0.7274  0.8678 -0.1267
  168SAPE   C3519006   7.223   5.090   7.263 -0.1533 -0.8147  0.0736
  168SAPE   H5X19007   7.215   5.199   7.245 -1.2035 -0.9642 -0.3654
  168SAPE   H5Y19008   7.333   5.079   7.246  0.3520  3.4140  0.1158
  168SAPE   C3619009   7.185   5.059   7.415  0.6085 -0.2022  0.7387
  168SAPE   H6X19010   7.204   4.950   7.425 -0.8754 -0.5954 -0.5809
  168SAPE   H6Y19011   7.074   5.070   7.417  0.3718 -1.1929 -3.0045
  168SAPE   C3719012   7.260   5.145   7.521  0.3321  0.2694  0.1768
  168SAPE   H7X19013   7.201   5.172   7.611  0.8863 -0.6286  0.8212
  168SAPE   H7Y19014   7.282   5.237   7.463  2.0398 -2.1026 -3.1418
  168SAPE   C3819015   7.395   5.086   7.569  0.3091  0.2253  0.3353
  168SAPE   H8X19016   7.462   5.121   7.488 -0.8327 -0.0106 -0.7202
  168SAPE   H8Y19017   7.401   4.975   7.564  0.8383  0.2690 -0.0101
  168SAPE   C3919018   7.436   5.121   7.706 -0.2500  0.1234 -0.7459
  168SAPE   H9X19019   7.411   5.227   7.724 -2.8333 -0.5244 -0.2847
  168SAPE   H9Y19020   7.545   5.104   7.718  0.1625  3.0440 -0.0123
  168SAPE  C31019021   7.351   5.069   7.825 -0.3105 -0.0297  0.9013
  168SAPE  H10X19022   7.255   5.029   7.785  0.9286 -2.5856  0.3299
  168SAPE  H10Y19023   7.339   5.141   7.908 -0.1255  0.9107  0.1229
  168SAPE  C31119024   7.420   4.937   7.884 -0.1463  0.0362 -0.6173
  168SAPE  H11X19025   7.525   4.965   7.908 -0.3543 -0.0566  0.4166
  168SAPE  H11Y19026   7.435   4.871   7.796  1.0634  2.9365 -2.6811
  168SAPE  C31219027   7.353   4.878   8.008  0.4652  0.3064 -0.2587
  168SAPE  H12X19028   7.393   4.778   8.035 -0.6390 -0.1341 -0.2272
  168SAPE  H12Y19029   7.249   4.847   7.983  0.1539  0.7423  0.4984
  168SAPE  C31319030   7.338   4.972   8.129 -0.1970  0.9933 -0.7008
  168SAPE  H13X19031   7.291   5.068   8.100 -2.5428  0.0512 -0.1276
  168SAPE  H13Y19032   7.442   4.994   8.163  0.1981 -0.2012 -1.1212
  168SAPE  C31419033   7.281   4.896   8.255  0.1661  0.0543  0.4812
  168SAPE  H14X19034   7.354   4.814   8.271 -0.4888 -0.9598 -1.4637
  168SAPE  H14Y19035   7.180   4.857   8.227 -0.2960  2.6140 -1.7138
  168SAPE  C31519036   7.294   4.985   8.376 -0.1573  0.0315 -0.4230
  168SAPE  H15X19037   7.366   5.069   8.362 -0.7185  0.3522 -1.4094
  168SAPE  H15Y19038   7.331   4.912   8.452  1.8946  0.6923 -0.7630
  168SAPE  C31619039   7.154   5.039   8.411  0.0707 -0.2367  0.2184
  168SAPE  H16X19040   7.174   5.101   8.501 -1.7498  0.0310  0.4439
  168SAPE  H16Y19041   7.081   4.963   8.447  1.9082 -2.3007 -0.2565
  168SAPE  C31719042   7.092   5.138   8.303 -0.2623 -0.6433  0.1078
  168SAPE  H17X19043   7.052   5.071   8.224  0.0532  0.2156 -0.7893
  168SAPE  H17Y19044   7.180   5.195   8.265  0.5254 -1.0298  1.3242
  168SAPE  C31819045   6.972   5.231   8.326  0.7260 -0.1052 -0.5568
  168SAPE  H18X19046   6.900   5.176   8.391 -0.0904  0.7350 -0.7393
  168SAPE  H18Y19047   6.915   5.242   8.232 -0.9154  4.1000  0.8197
  168SAPE  H18Z19048   7.000   5.329   8.370 -0.1115  0.7745 -1.9849
  169SAPE     N19049   5.533   1.061   6.057 -0.1941 -0.4439  0.2892
  169SAPE   HN119050   5.546   1.072   5.955  2.7871  0.1986  0.6818
  169SAPE   HN219051   5.445   1.005   6.058 -0.4301 -0.0911 -0.2805
  169SAPE   HN319052   5.518   1.149   6.110 -1.0246  0.2606 -1.0961
  169SAPE   C1219053   5.656   0.985   6.098  0.3070  0.5139  0.1889
  169SAPE  H12A19054   5.746   1.049   6.087  0.8876 -0.2562  0.3716
  169SAPE  H12B19055   5.671   0.898   6.031 -0.9034  0.8961 -0.5870
  169SAPE   C1119056   5.646   0.930   6.241 -0.1135 -0.3864  0.8125
  169SAPE  H11A19057   5.636   1.022   6.302 -1.5812 -0.4288  0.6571
  169SAPE  H11B19058   5.738   0.874   6.268  0.2139 -0.8060 -1.1092
  169SAPE     P19059   5.517   0.706   6.215 -0.3582 -0.1143 -0.4992
  169SAPE   O1319060   5.393   0.693   6.136 -0.4823  0.1294 -0.1447
  169SAPE   O1419061   5.638   0.657   6.145 -0.1855 -0.1989 -0.2530
  169SAPE   O1219062   5.531   0.856   6.256  0.4739  0.3074  0.0838
  169SAPE   O1119063   5.505   0.626   6.341  0.3726  0.1343 -0.1787
  169SAPE    C119064   5.612   0.651   6.438 -0.0677 -0.3575 -0.3349
  169SAPE    HA19065   5.710   0.612   6.406  0.0890 -1.3082  1.2543
  169SAPE    HB19066   5.628   0.760   6.455 -1.5988 -0.1660  0.0346
  169SAPE    C219067   5.571   0.588   6.581  0.8527  0.0167  0.3636
  169SAPE    HS19068   5.573   0.477   6.571 -1.3864  0.0403 -0.8932
  169SAPE   O2119069   5.444   0.636   6.633  0.2311 -0.1518  0.4578
  169SAPE   C2119070   5.376   0.546   6.704 -0.2982 -0.0314 -0.4599
  169SAPE   O2219071   5.405   0.431   6.726 -0.0396  0.2038  0.1590
  169SAPE   C2219072   5.262   0.626   6.779  0.1640 -0.3553  0.4763
  169SAPE   H2R19073   5.197   0.664   6.697  3.4981 -0.3032 -2.2425
  169SAPE   H2S19074   5.208   0.555   6.846  1.2151 -2.7119 -1.1176
  169SAPE    C319075   5.681   0.623   6.685  0.4571  0.8567 -0.2894
  169SAPE    HX19076   5.691   0.733   6.684 -1.7518  1.0905  0.0320
  169SAPE    HY19077   5.770   0.573   6.643 -1.0322  1.3600 -4.2829
  169SAPE   O3119078   5.651   0.577   6.820 -0.5655 -0.0686 -0.9354
  169SAPE   C3119079   5.697   0.456   6.858  0.1456 -0.5603 -0.0429
  169SAPE   O3219080   5.764   0.381   6.793  0.0494  0.0756 -0.3100
  169SAPE   C3219081   5.644   0.431   6.999  0.2301 -0.5454  0.4181
  169SAPE   H2X19082   5.553   0.371   6.978  0.4057 -0.1272 -1.5766
  169SAPE   H2Y19083   5.623   0.532   7.040  3.0689  0.7548 -1.1522
  169SAPE   C2319084   5.326   0.741   6.870  0.3848 -0.3689 -0.1298
  169SAPE   H3R19085   5.385   0.806   6.801  2.3112  1.4272  3.0441
  169SAPE   H3S19086   5.397   0.687   6.936 -0.5119 -0.3614  0.8493
  169SAPE   C2419087   5.221   0.807   6.951 -0.4438  0.4231 -0.4025
  169SAPE   H4R19088   5.170   0.725   7.005  3.3382 -1.6195  0.2488
  169SAPE   H4S19089   5.148   0.849   6.879  1.0527  0.3477 -1.9895
  169SAPE   C2519090   5.255   0.923   7.041  0.0417 -0.5899 -0.7086
  169SAPE   H5R19091   5.255   1.017   6.983  0.3807  0.5674  1.1090
  169SAPE   C2619092   5.286   0.934   7.168  0.6488  0.9887 -0.6714
  169SAPE   H6R19093   5.319   1.033   7.202 -0.3446  1.0595  0.1296
  169SAPE   C2719094   5.290   0.813   7.265  0.2891 -0.1562  0.1827
  169SAPE   H7R19095   5.331   0.725   7.210  0.7269  0.5975 -0.7129
  169SAPE   H7S19096   5.189   0.786   7.304  0.3753 -1.3791 -0.4272
  169SAPE   C2819097   5.388   0.843   7.370 -0.0563  0.3132 -0.4727
  169SAPE   H8R19098   5.492   0.819   7.344  1.0274  3.3536  0.7423
  169SAPE   C2919099   5.349   0.880   7.495 -0.4118  0.0882  0.1925
  169SAPE   H9R19100   5.427   0.908   7.567 -1.0535 -0.1029  0.9576
  169SAPE  C21019101   5.212   0.898   7.556  0.8882 -0.5721 -0.4859
  169SAPE  H10R19102   5.131   0.880   7.482 -0.6126  1.4064  0.6256
  169SAPE  H10S19103   5.200   1.002   7.594 -1.8403 -1.0020 -0.0288
  169SAPE  C21119104   5.188   0.801   7.668 -0.0528 -0.7725  0.2427
  169SAPE  H11R19105   5.206   0.698   7.633 -2.6411 -1.3410  0.4769
  169SAPE  C21219106   5.157   0.829   7.798 -0.5788  0.2445  0.0357
  169SAPE  H12R19107   5.135   0.762   7.882  2.0804  0.5913  1.0391
  169SAPE  C21319108   5.129   0.972   7.854 -0.7424 -0.8003  0.9550
  169SAPE  H13R19109   5.073   1.033   7.780 -0.6726 -0.5123  1.1392
  169SAPE  H13S19110   5.225   1.021   7.879 -0.5462 -0.4877 -0.4044
  169SAPE  C21419111   5.042   0.977   7.970  0.5029 -0.4648 -0.5822
  169SAPE  H14R19112   4.936   0.978   7.943  0.6422  0.9335 -1.1251
  169SAPE  C21519113   5.078   0.981   8.104 -0.4948 -0.4998 -0.9450
  169SAPE  H15R19114   5.000   0.982   8.182  1.8810  1.4455  1.4612
  169SAPE  C21619115   5.213   0.971   8.166 -0.3788 -0.0488  0.3148
  169SAPE  H16R19116   5.221   1.051   8.242 -0.4128  0.6002 -0.3566
  169SAPE  H16S19117   5.293   0.986   8.090 -0.7240  2.9111  0.4550
  169SAPE  C21719118   5.256   0.840   8.235 -0.1231  0.5253 -0.7135
  169SAPE  H17R19119   5.264   0.759   8.160 -2.6205 -0.0266 -0.4095
  169SAPE  H17S19120   5.175   0.813   8.305 -0.9899 -0.1389 -1.9618
  169SAPE  C21819121   5.392   0.846   8.305  0.8200  0.6832  0.7638
  169SAPE  H18R19122   5.467   0.823   8.227  0.2831 -0.3514  0.5504
  169SAPE  H18S19123   5.394   0.761   8.376  0.3054 -0.6764 -0.8263
  169SAPE  C21919124   5.432   0.975   8.380 -0.3309 -0.3002  0.1559
  169SAPE  H19R19125   5.349   1.018   8.439 -0.2959 -1.3373  0.9784
  169SAPE  H19S19126   5.444   1.055   8.304 -0.4136 -0.3861  0.0506
  169SAPE  C22019127   5.568   0.959   8.454  0.4000  0.3112 -0.1426
  169SAPE  H20R19128   5.575   1.035   8.534 -0.2362  1.2636 -0.9754
  169SAPE  H20S19129   5.661   0.954   8.394 -1.6498 -0.1425 -3.4400
  169SAPE  H20T19130   5.561   0.866   8.514  0.7665  0.7851  0.6449
  169SAPE   C3319131   5.751   0.359   7.082  0.0222  0.1348 -0.2733
  169SAPE   H3X19132   5.852   0.405   7.073 -0.9662  2.3442 -0.4790
  169SAPE   H3Y19133   5.755   0.259   7.034 -1.6813  0.1557 -0.4882
  169SAPE   C3419134   5.715   0.357   7.236  0.2935 -0.0602 -0.3817
  169SAPE   H4X19135   5.791   0.298   7.292  0.8141  0.4552 -0.5373
  169SAPE   H4Y19136   5.625   0.292   7.250  0.4929 -0.0835  0.7902
  169SAPE   C3519137   5.706   0.493   7.300 -0.2321 -0.8164  0.1875
  169SAPE   H5X19138   5.625   0.546   7.246  0.1122 -0.5868 -0.1130
  169SAPE   H5Y19139   5.801   0.549   7.286  0.0338 -1.1357  0.6993
  169SAPE   C3619140   5.672   0.476   7.453 -0.5278  0.2199  0.6433
  169SAPE   H6X19141   5.765   0.438   7.501  0.3799 -0.2040 -1.3897
  169SAPE   H6Y19142   5.593   0.399   7.465 -1.0153  0.2200 -2.2430
  169SAPE   C3719143   5.637   0.610   7.515  0.0343  0.3088 -0.0547
  169SAPE   H7X19144   5.531   0.628   7.486  0.0251 -1.4178 -1.2109
  169SAPE   H7Y19145   5.704   0.687   7.471 -0.1848 -0.5243 -1.9366
  169SAPE   C3819146   5.662   0.609   7.668 -0.0886 -0.1503 -0.3081
  169SAPE   H8X19147   5.771   0.619   7.687 -0.5127  2.1645  1.1545
  169SAPE   H8Y19148   5.627   0.513   7.712 -0.9521  0.8318  1.2383
  169SAPE   C3919149   5.587   0.725   7.739  0.3723  0.8276 -0.0569
  169SAPE   H9X19150   5.477   0.707   7.728  0.0581  1.5687  1.6030
  169SAPE   H9Y19151   5.601   0.818   7.680  1.3053  1.0885  0.5830
  169SAPE  C31019152   5.621   0.746   7.887  0.1164 -0.7539 -0.2266
  169SAPE  H10X19153   5.587   0.848   7.911 -0.7755 -0.0351 -4.1243
  169SAPE  H10Y19154   5.732   0.750   7.898  0.1302  0.0379 -0.6124
  169SAPE  C31119155   5.579   0.633   7.978 -0.8801  0.1087 -0.7065
  169SAPE  H11X19156   5.582   0.536   7.924  0.2071  0.0504 -0.5594
  169SAPE  H11Y19157   5.474   0.659   8.003 -0.6894 -0.7640  1.1000
  169SAPE  C31219158   5.666   0.615   8.105  0.9335 -0.1586  0.4635
  169SAPE  H12X19159   5.671   0.710   8.164  0.1834 -0.6433  1.3227
  169SAPE  H12Y19160   5.764   0.588   8.060  0.2646  1.3008 -1.9306
  169SAPE  C31319161   5.616   0.510   8.211 -0.0973 -0.3213  0.2101
  169SAPE  H13X19162   5.601   0.407   8.172 -1.3702 -0.3417  0.7332
  169SAPE  H13Y19163   5.513   0.537   8.241 -0.3292 -2.4440  1.4175
  169SAPE  C31419164   5.710   0.505   8.339  1.0456  0.3984 -1.7938
  169SAPE  H14X19165   5.722   0.609   8.377 -3.3185  0.4127 -0.1412
  169SAPE  H14Y19166   5.811   0.476   8.301  0.3021 -0.8659 -2.8497
  169SAPE  C31519167   5.673   0.410   8.447 -0.7800 -0.1798  0.3928
  169SAPE  H15X19168   5.662   0.312   8.395  0.8262  0.6176 -1.5265
  169SAPE  H15Y19169   5.571   0.443   8.477 -2.1908 -1.2295 -2.9173
  169SAPE  C31619170   5.767   0.414   8.568  0.0361  0.2548 -0.0715
  169SAPE  H16X19171   5.754   0.516   8.608 -1.2335 -0.1372  0.5450
  169SAPE  H16Y19172   5.871   0.394   8.535 -1.1039 -1.6272 -2.6870
  169SAPE  C31719173   5.723   0.311   8.679  1.1635 -0.4803 -0.4573
  169SAPE  H17X19174   5.624   0.341   8.719  2.7936  4.3688  0.2555
  169SAPE  H17Y19175   5.789   0.336   8.765 -2.4151 -0.5160  2.4090
  169SAPE  C31819176   5.728   0.166   8.653 -0.6154  0.1059 -0.1485
  169SAPE  H18X19177   5.734   0.113   8.750 -0.5361  1.3925  0.5576
  169SAPE  H18Y19178   5.825   0.138   8.606 -0.5741  1.6467 -1.0057
  169SAPE  H18Z19179   5.642   0.140   8.588 -0.1365 -0.0099 -0.7471
  170SAPE     N19180   6.700   3.428   6.099  0.7294 -0.3721  0.2386
  170SAPE   HN119181   6.700   3.529   6.075 -0.8777 -0.1149  1.2470
  170SAPE   HN219182   6.755   3.417   6.187  2.2093  2.2886 -0.2835
  170SAPE   HN319183   6.744   3.381   6.017 -0.1359 -0.5608 -0.1244
  170SAPE   C1219184   6.548   3.397   6.123  0.3815 -0.2363 -0.1227
  170SAPE  H12A19185   6.541   3.289   6.151 -3.3050  0.2170  1.0029
  170SAPE  H12B19186   6.495   3.407   6.026  2.0646 -2.0634 -1.2679
  170SAPE   C1119187   6.484   3.476   6.236 -0.2839 -0.2181  0.4304
  170SAPE  H11A19188   6.557   3.488   6.319  1.0937  0.7305 -0.8978
  170SAPE  H11B19189   6.401   3.417   6.280  0.3711 -2.0810 -0.7393
  170SAPE     P19190   6.525   3.726   6.168  0.1835  0.2969 -0.2330
  170SAPE   O1319191   6.654   3.681   6.105 -1.0974 -0.3535 -1.4105
  170SAPE   O1419192   6.440   3.833   6.106 -0.6379 -0.3017  0.0088
  170SAPE   O1219193   6.429   3.607   6.204 -0.1682  0.2180 -0.7695
  170SAPE   O1119194   6.561   3.770   6.315 -0.0169 -0.1726  0.8001
  170SAPE    C119195   6.463   3.823   6.404  0.2323  0.3782 -0.4070
  170SAPE    HA19196   6.360   3.785   6.384  1.3433 -2.2152 -1.4171
  170SAPE    HB19197   6.490   3.778   6.502  0.3293 -0.8525 -0.9789
  170SAPE    C219198   6.472   3.976   6.407 -0.2960 -0.3397  0.1595
  170SAPE    HS19199   6.461   4.015   6.303 -1.9385  0.5949  0.6779
  170SAPE   O2119200   6.594   4.015   6.449 -0.2232  0.7104 -0.0622
  170SAPE   C2119201   6.636   4.138   6.446 -0.3776 -0.7094 -0.2408
  170SAPE   O2219202   6.582   4.230   6.393  0.3054  0.0861  0.0531
  170SAPE   C2219203   6.773   4.135   6.519 -0.2586  0.5508 -0.0764
  170SAPE   H2R19204   6.761   4.054   6.594  1.2808  0.4650  0.0879
  170SAPE   H2S19205   6.849   4.093   6.449 -2.0302 -2.4298 -0.3220
  170SAPE    C319206   6.350   4.041   6.473  0.6050  0.0750  0.7234
  170SAPE    HX19207   6.260   3.995   6.426  1.3899 -1.8882  1.0557
  170SAPE    HY19208   6.348   4.147   6.440 -0.8865 -0.9393 -2.6603
  170SAPE   O3119209   6.330   4.010   6.617  0.4009 -0.4134  0.0424
  170SAPE   C3119210   6.387   4.090   6.695  0.1871  0.1451  0.0907
  170SAPE   O3219211   6.447   4.192   6.673 -0.2113 -0.1191  0.2014
  170SAPE   C3219212   6.364   4.044   6.844  0.2546  0.1700 -0.2418
  170SAPE   H2X19213   6.381   3.934   6.852  2.1591  0.6673  3.0300
  170SAPE   H2Y19214   6.255   4.062   6.860  0.4207  0.1020  1.0310
  170SAPE   C2319215   6.815   4.267   6.580  0.1307 -0.2362  0.8207
  170SAPE   H3R19216   6.824   4.340   6.496 -0.0329 -1.7627 -0.5426
  170SAPE   H3S19217   6.919   4.255   6.619 -0.7325 -1.0605  2.8888
  170SAPE   C2419218   6.739   4.314   6.705 -0.1623 -0.6670  0.0096
  170SAPE   H4R19219   6.759   4.243   6.788  3.2509 -0.0976 -0.2379
  170SAPE   H4S19220   6.630   4.321   6.683  0.1770  1.0429 -1.1958
  170SAPE   C2519221   6.790   4.447   6.752  0.1257 -0.4918  0.1259
  170SAPE   H5R19222   6.766   4.535   6.691 -0.4522 -1.4276 -1.0287
  170SAPE   C2619223   6.875   4.474   6.853 -0.3959 -0.2673  0.5190
  170SAPE   H6R19224   6.920   4.572   6.872 -4.6783  1.7419  0.9737
  170SAPE   C2719225   6.927   4.368   6.943 -0.1025 -0.1660 -0.3057
  170SAPE   H7R19226   6.891   4.266   6.919  0.5466 -0.7926  1.3224
  170SAPE   H7S19227   6.870   4.367   7.038 -1.9122 -0.7747 -1.3726
  170SAPE   C2819228   7.069   4.385   6.991 -0.1627 -0.1168  0.8545
  170SAPE   H8R19229   7.147   4.347   6.923 -1.0466  0.5604 -0.5710
  170SAPE   C2919230   7.114   4.444   7.096 -0.9889 -0.3518 -0.1470
  170SAPE   H9R19231   7.221   4.432   7.119 -0.4582 -2.0773 -3.2944
  170SAPE  C21019232   7.023   4.509   7.206  0.2183 -0.0424 -0.3121
  170SAPE  H10R19233   7.006   4.431   7.283  0.5274  1.1633  1.0115
  170SAPE  H10S19234   6.924   4.540   7.165  0.4954 -1.3948 -2.0499
  170SAPE  C21119235   7.074   4.632   7.271 -0.6379 -0.8706  0.7211
  170SAPE  H11R19236   7.054   4.725   7.216 -1.4633 -0.8861  0.9944
  170SAPE  C21219237   7.126   4.636   7.397  0.7040  0.2328 -0.2893
  170SAPE  H12R19238   7.154   4.732   7.442 -1.9039 -0.2881  2.5984
  170SAPE  C21319239   7.140   4.512   7.480 -0.3971  1.2347 -0.1537
  170SAPE  H13R19240   7.161   4.421   7.420 -0.7092 -0.7525  2.6553
  170SAPE  H13S19241   7.047   4.484   7.534 -0.1097  2.0881  0.7958
  170SAPE  C21419242   7.257   4.532   7.578  0.5039  0.1882  0.0170
  170SAPE  H14R19243   7.336   4.462   7.545 -1.1250 -1.7502  0.1365
  170SAPE  C21519244   7.266   4.603   7.690 -0.2870 -0.9634  0.0925
  170SAPE  H15R19245   7.366   4.608   7.735 -0.6127  2.3138  0.5600
  170SAPE  C21619246   7.168   4.692   7.760  0.8777  0.1299  0.5384
  170SAPE  H16R19247   7.079   4.707   7.696  1.4310 -1.4326 -0.6217
  170SAPE  H16S19248   7.213   4.793   7.774  0.2137  0.4913  0.0743
  170SAPE  C21719249   7.109   4.648   7.901 -0.1022 -0.1680 -0.3931
  170SAPE  H17R19250   7.039   4.725   7.938  2.1848  2.0237 -0.5163
  170SAPE  H17S19251   7.192   4.641   7.974  2.0869 -2.7486 -2.9785
  170SAPE  C21819252   7.029   4.516   7.887 -0.0050 -0.1607  0.3763
  170SAPE  H18R19253   7.105   4.437   7.865  1.0523  0.4151  1.9362
  170SAPE  H18S19254   6.953   4.520   7.806 -0.7307  0.5237  1.0895
  170SAPE  C21919255   6.954   4.480   8.015 -0.2478 -1.2809 -0.2901
  170SAPE  H19R19256   6.883   4.396   7.998  0.1663 -1.4640 -1.1554
  170SAPE  H19S19257   6.890   4.567   8.039 -0.7037 -1.1862 -1.8052
  170SAPE  C22019258   7.040   4.432   8.135  0.0594 -0.1653 -0.4232
  170SAPE  H20R19259   6.978   4.397   8.221 -0.7472  0.4593 -0.7459
  170SAPE  H20S19260   7.118   4.501   8.175 -0.9311 -0.7032  2.6085
  170SAPE  H20T19261   7.099   4.348   8.094  3.7665  1.8815  0.4397
  170SAPE   C3319262   6.445   4.122   6.941 -0.6135 -0.3497  0.0467
  170SAPE   H3X19263   6.398   4.123   7.042 -1.2217 -2.5270 -0.1804
  170SAPE   H3Y19264   6.460   4.226   6.907 -1.1517 -0.0451  0.7443
  170SAPE   C3419265   6.584   4.062   6.979 -0.2717 -0.2045  0.9588
  170SAPE   H4X19266   6.637   4.049   6.883  1.5527  0.9542  1.7789
  170SAPE   H4Y19267   6.583   3.964   7.032 -0.7269  0.3246  1.9545
  170SAPE   C3519268   6.670   4.164   7.062 -0.0283 -0.4073 -0.0628
  170SAPE   H5X19269   6.688   4.264   7.017 -0.2518 -0.6671 -0.7399
  170SAPE   H5Y19270   6.771   4.120   7.061 -0.6271 -1.8216  0.4964
  170SAPE   C3619271   6.616   4.184   7.209  0.9109 -0.1581 -0.1605
  170SAPE   H6X19272   6.564   4.091   7.241  0.8485  0.2142  0.8332
  170SAPE   H6Y19273   6.553   4.276   7.206  1.6176  0.3619  0.4960
  170SAPE   C3719274   6.730   4.200   7.310  0.2987 -0.1561  0.0161
  170SAPE   H7X19275   6.770   4.304   7.302  1.0223 -0.6155 -2.7601
  170SAPE   H7Y19276   6.808   4.125   7.283  0.3448 -0.2193  0.3159
  170SAPE   C3819277   6.693   4.176   7.453  0.9346  0.5489  0.1274
  170SAPE   H8X19278   6.635   4.082   7.467  0.4441  1.3511  4.0584
  170SAPE   H8Y19279   6.619   4.255   7.477 -0.4083 -0.5910 -0.2252
  170SAPE   C3919280   6.818   4.163   7.544  0.8916 -0.9554  0.0938
  170SAPE   H9X19281   6.876   4.258   7.547 -0.4837  0.0279 -3.1694
  170SAPE   H9Y19282   6.886   4.085   7.503  0.3426  0.0074 -2.7689
  170SAPE  C31019283   6.768   4.117   7.683 -0.1584  0.7436 -0.4458
  170SAPE  H10X19284   6.722   4.018   7.663  1.2403 -0.3883  1.6833
  170SAPE  H10Y19285   6.678   4.176   7.710 -0.2673  0.2244  0.3446
  170SAPE  C31119286   6.867   4.101   7.800 -0.0300 -0.7891 -0.0699
  170SAPE  H11X19287   6.902   4.203   7.824  2.7078 -1.6584 -0.1588
  170SAPE  H11Y19288   6.954   4.038   7.770  0.9267  0.1187  0.7593
  170SAPE  C31219289   6.807   4.035   7.927  0.0587  0.0000 -0.8235
  170SAPE  H12X19290   6.747   3.947   7.896 -2.7640  1.5451  0.0544
  170SAPE  H12Y19291   6.737   4.107   7.974  0.2708 -0.1042 -0.3470
  170SAPE  C31319292   6.913   3.977   8.031  0.4000 -0.2371  0.1335
  170SAPE  H13X19293   6.990   4.057   8.033 -0.4565  0.6385 -1.0386
  170SAPE  H13Y19294   6.958   3.891   7.976  0.3120 -0.4269  0.3572
  170SAPE  C31419295   6.856   3.937   8.171 -0.7387  0.0970  0.2205
  170SAPE  H14X19296   6.918   3.856   8.215  0.6851  0.8993 -0.2697
  170SAPE  H14Y19297   6.755   3.891   8.163 -0.2329 -0.9372 -0.4818
  170SAPE  C31519298   6.879   4.050   8.270  0.3572  0.0498  0.5143
  170SAPE  H15X19299   6.824   4.025   8.363  0.3938  2.0702  1.0820
  170SAPE  H15Y19300   6.831   4.144   8.237  1.1251  0.0903 -0.5035
  170SAPE  C31619301   7.021   4.085   8.319 -0.0897  0.0723  0.3589
  170SAPE  H16X19302   7.089   4.113   8.236 -0.2064  3.2672  1.2688
  170SAPE  H16Y19303   7.073   4.003   8.372  1.1599 -1.0233 -2.4369
  170SAPE  C31719304   7.016   4.200   8.416 -0.3165  0.1431  0.7676
  170SAPE  H17X19305   6.971   4.162   8.511 -3.1772  1.8760  0.1937
  170SAPE  H17Y19306   6.946   4.283   8.389  1.1411  0.9602 -0.5635
  170SAPE  C31819307   7.155   4.255   8.444 -0.6297  0.1998 -0.5145
  170SAPE  H18X19308   7.147   4.328   8.528  0.8944  0.4968 -0.6028
  170SAPE  H18Y19309   7.195   4.300   8.351 -0.6319  0.3169 -0.4603
  170SAPE  H18Z19310   7.220   4.169   8.473 -0.1107  0.4339 -0.9693
  171SAPE     N19311   1.600   5.564   6.367  0.4111  0.2848  0.2543
  171SAPE   HN119312   1.509   5.557   6.317  0.5601 -1.1610  0.1460
  171SAPE   HN219313   1.611   5.663   6.394  1.0041  0.5066 -0.7333
  171SAPE   HN319314   1.678   5.548   6.299  0.7102  0.0997  0.6370
  171SAPE   C1219315   1.602   5.469   6.485 -0.0660  0.4522 -0.2676
  171SAPE  H12A19316   1.634   5.532   6.571  0.9734 -1.1565  0.5390
  171SAPE  H12B19317   1.678   5.391   6.462 -0.4043  0.0847 -0.1486
  171SAPE   C1119318   1.465   5.411   6.516  0.8599  0.5963 -0.6964
  171SAPE  H11A19319   1.404   5.497   6.551  0.6224  0.0071  0.3683
  171SAPE  H11B19320   1.475   5.347   6.607  1.2101  0.3910 -0.8787
  171SAPE     P19321   1.460   5.197   6.347 -0.1839  0.1172  0.2952
  171SAPE   O1319322   1.349   5.101   6.343 -0.0071 -0.0520 -1.0238
  171SAPE   O1419323   1.528   5.233   6.224  0.5423  0.3714  0.1615
  171SAPE   O1219324   1.405   5.337   6.411  0.1171  0.9144 -0.5478
  171SAPE   O1119325   1.577   5.150   6.443  0.0781 -0.2864 -0.3994
  171SAPE    C119326   1.625   5.014   6.440  0.7310  0.4779  0.6584
  171SAPE    HA19327   1.582   4.949   6.361 -3.5186  1.5022  1.9924
  171SAPE    HB19328   1.733   5.025   6.420  0.5433  1.4985  0.1733
  171SAPE    C219329   1.623   4.934   6.576  0.6374  0.2672  0.1608
  171SAPE    HS19330   1.518   4.906   6.598  1.1972 -1.4215  0.7356
  171SAPE   O2119331   1.684   5.021   6.674  0.3074  0.1976 -1.3758
  171SAPE   C2119332   1.602   5.111   6.729  0.5891  0.4343  0.2254
  171SAPE   O2219333   1.479   5.121   6.723  0.3465  0.4931 -0.4295
  171SAPE   C2219334   1.686   5.205   6.807  0.6579 -0.1044  0.3309
  171SAPE   H2R19335   1.778   5.150   6.835  0.3880 -1.1540 -0.8003
  171SAPE   H2S19336   1.716   5.285   6.736  0.0130  0.0507  0.2284
  171SAPE    C319337   1.691   4.799   6.565 -0.0397  0.0235  0.1689
  171SAPE    HX19338   1.793   4.805   6.520  0.8381 -1.4076  1.8786
  171SAPE    HY19339   1.628   4.750   6.488 -0.4564  0.2088  0.3920
  171SAPE   O3119340   1.693   4.724   6.694 -0.2025 -0.1683  0.3022
  171SAPE   C3119341   1.589   4.651   6.716 -0.5793 -0.1011 -0.4794
  171SAPE   O3219342   1.485   4.649   6.647 -0.1879 -0.3735  0.3727
  171SAPE   C3219343   1.631   4.555   6.818  0.0279  0.4606 -0.0753
  171SAPE   H2X19344   1.711   4.492   6.773 -1.1053 -0.7937 -0.3536
  171SAPE   H2Y19345   1.544   4.488   6.832 -0.1795  0.7340 -0.0478
  171SAPE   C2319346   1.622   5.267   6.932  0.0875  0.2111 -0.3949
  171SAPE   H3R19347   1.545   5.335   6.891 -0.9752 -1.2978 -0.9382
  171SAPE   H3S19348   1.703   5.320   6.987 -0.6265  2.7650 -1.7052
  171SAPE   C2419349   1.544   5.175   7.032  0.3366  0.1816 -0.1092
  171SAPE   H4R19350   1.456   5.136   6.976 -0.0610  1.2284 -0.2222
  171SAPE   H4S19351   1.502   5.247   7.105 -0.2104  0.4935 -0.7258
  171SAPE   C2519352   1.630   5.070   7.096 -0.6690 -0.4654  0.0130
  171SAPE   H5R19353   1.664   4.991   7.028  0.9826 -0.0416  0.3135
  171SAPE   C2619354   1.663   5.058   7.225 -0.1906  0.4445 -0.2319
  171SAPE   H6R19355   1.711   4.962   7.249 -2.2418 -1.1495 -2.2758
  171SAPE   C2719356   1.617   5.147   7.335 -0.6160  0.2809 -0.3082
  171SAPE   H7R19357   1.525   5.100   7.376 -1.3520 -0.6927 -2.9217
  171SAPE   H7S19358   1.583   5.243   7.290  1.9668  0.0786 -2.8716
  171SAPE   C2819359   1.726   5.174   7.435 -0.2782  0.6293  0.7710
  171SAPE   H8R19360   1.808   5.242   7.407 -0.0193  0.2610  0.6378
  171SAPE   C2919361   1.725   5.148   7.565  0.7175 -0.6243 -0.2763
  171SAPE   H9R19362   1.808   5.188   7.625 -0.5516  2.3342 -0.3909
  171SAPE  C21019363   1.619   5.076   7.643 -0.5408 -0.3814  0.6580
  171SAPE  H10R19364   1.673   4.996   7.699  2.5385  2.7769  2.3672
  171SAPE  H10S19365   1.550   5.023   7.575  1.2835 -1.1439 -0.6275
  171SAPE  C21119366   1.550   5.169   7.739  0.2191 -0.7821  0.1495
  171SAPE  H11R19367   1.583   5.274   7.738 -1.1771 -0.3064  1.6390
  171SAPE  C21219368   1.454   5.133   7.827  0.3197 -0.1645 -0.5112
  171SAPE  H12R19369   1.410   5.209   7.894  3.6583 -1.5563  3.5045
  171SAPE  C21319370   1.381   5.000   7.833 -0.3487  0.0227  0.7717
  171SAPE  H13R19371   1.403   4.956   7.933  1.1478  1.6227  1.1924
  171SAPE  H13S19372   1.413   4.925   7.758 -0.8930 -0.2417  0.8049
  171SAPE  C21419373   1.236   5.010   7.798 -0.6717  0.5447  0.7751
  171SAPE  H14R19374   1.220   5.026   7.691  2.1530  0.9372  0.3664
  171SAPE  C21519375   1.130   5.000   7.874  0.4181 -0.7581  0.0475
  171SAPE  H15R19376   1.029   5.001   7.828  0.7769  1.4243 -0.7658
  171SAPE  C21619377   1.124   4.978   8.025 -0.5138  0.6942 -0.3379
  171SAPE  H16R19378   1.186   5.047   8.085  0.4865 -0.2352 -0.2873
  171SAPE  H16S19379   1.175   4.881   8.040 -2.0299 -0.4342 -2.0635
  171SAPE  C21719380   0.979   4.981   8.072  0.6648  0.4021  0.0751
  171SAPE  H17R19381   0.922   4.908   8.010  0.4516  0.5690  0.0760
  171SAPE  H17S19382   0.932   5.080   8.058  0.1997  0.1928  0.1513
  171SAPE  C21819383   0.962   4.944   8.223 -0.0833 -0.4464 -0.0352
  171SAPE  H18R19384   0.892   5.022   8.260  0.1642  0.4716 -1.4526
  171SAPE  H18S19385   1.060   4.946   8.274 -0.2887  0.7277  0.3426
  171SAPE  C21919386   0.903   4.809   8.235 -0.0155 -0.2105  0.0921
  171SAPE  H19R19387   0.965   4.727   8.192  1.7596  2.0944 -1.9065
  171SAPE  H19S19388   0.814   4.809   8.169 -0.0079 -1.5670  0.0684
  171SAPE  C22019389   0.865   4.761   8.374  0.1150  0.0647 -0.0969
  171SAPE  H20R19390   0.777   4.819   8.409 -0.9103 -1.5993  0.1511
  171SAPE  H20S19391   0.944   4.786   8.448  0.6830  0.4714 -0.8388
  171SAPE  H20T19392   0.847   4.652   8.367  1.2051 -0.1581  0.3894
  171SAPE   C3319393   1.669   4.624   6.949 -0.1233 -0.3060 -0.0114
  171SAPE   H3X19394   1.585   4.688   6.982  0.2201  0.3483 -0.3882
  171SAPE   H3Y19395   1.763   4.683   6.942  0.8234 -2.0002 -2.8655
  171SAPE   C3419396   1.684   4.522   7.071 -0.0146  0.2000 -0.4335
  171SAPE   H4X19397   1.734   4.435   7.025 -1.6361 -0.4567 -0.9966
  171SAPE   H4Y19398   1.586   4.480   7.104  0.3197  1.4288  2.2822
  171SAPE   C3519399   1.751   4.582   7.192  0.3473 -0.6860 -0.2210
  171SAPE   H5X19400   1.700   4.677   7.218 -2.1987 -1.6323 -1.4838
  171SAPE   H5Y19401   1.851   4.608   7.152  0.1212  1.9510  0.8357
  171SAPE   C3619402   1.753   4.487   7.315  0.1362  0.2705  0.3041
  171SAPE   H6X19403   1.832   4.410   7.309  0.7314  0.7362  2.0202
  171SAPE   H6Y19404   1.648   4.449   7.319  0.3666 -0.4528 -0.3455
  171SAPE   C3719405   1.780   4.557   7.444 -0.0835  0.0425 -0.3789
  171SAPE   H7X19406   1.724   4.652   7.459  2.8530  2.1502 -2.2281
  171SAPE   H7Y19407   1.887   4.585   7.443 -0.7135  2.6124  0.0013
  171SAPE   C3819408   1.766   4.457   7.561 -0.7396  0.0526  0.7897
  171SAPE   H8X19409   1.833   4.371   7.538  0.8470  1.2029  1.0145
  171SAPE   H8Y19410   1.665   4.411   7.561 -0.5815 -0.3216  2.6158
  171SAPE   C3919411   1.810   4.517   7.698 -0.7500 -0.4650  0.5179
  171SAPE   H9X19412   1.732   4.585   7.738  0.9578  1.8773 -0.0825
  171SAPE   H9Y19413   1.908   4.569   7.694  0.1259 -1.8542  2.9730
  171SAPE  C31019414   1.818   4.403   7.803  0.4312  0.3730  0.2746
  171SAPE  H10X19415   1.903   4.336   7.778 -0.5314 -0.8135  0.1074
  171SAPE  H10Y19416   1.725   4.342   7.811 -0.7106  1.9652 -0.7303
  171SAPE  C31119417   1.836   4.462   7.945 -0.5265 -0.1226  0.5193
  171SAPE  H11X19418   1.759   4.542   7.959 -0.7477 -0.1962 -0.2430
  171SAPE  H11Y19419   1.936   4.510   7.945 -0.8055  0.4787 -0.0503
  171SAPE  C31219420   1.818   4.358   8.057 -1.2966  0.2553 -0.7413
  171SAPE  H12X19421   1.902   4.287   8.046 -0.8629  0.6851 -0.2031
  171SAPE  H12Y19422   1.723   4.303   8.044 -2.2377  1.1706  1.9217
  171SAPE  C31319423   1.825   4.414   8.199  0.3923 -0.9322  0.3116
  171SAPE  H13X19424   1.735   4.471   8.229  1.6140 -0.0373  2.4201
  171SAPE  H13Y19425   1.899   4.497   8.206 -0.9864  0.3889 -0.5367
  171SAPE  C31419426   1.859   4.304   8.301  0.5709  0.4345 -0.5089
  171SAPE  H14X19427   1.967   4.280   8.294  0.3833 -1.0515  1.2353
  171SAPE  H14Y19428   1.806   4.210   8.273 -1.5001  0.1563  3.9973
  171SAPE  C31519429   1.828   4.352   8.440 -0.4517  0.5050  0.1298
  171SAPE  H15X19430   1.719   4.371   8.446 -0.9699 -1.4012 -2.6022
  171SAPE  H15Y19431   1.871   4.450   8.472  2.3422 -1.1021  1.4415
  171SAPE  C31619432   1.845   4.255   8.562  0.0503 -1.1190  0.0647
  171SAPE  H16X19433   1.956   4.253   8.559  0.1318  2.0183 -1.5859
  171SAPE  H16Y19434   1.810   4.151   8.546 -1.5135 -0.4983 -0.6826
  171SAPE  C31719435   1.793   4.317   8.689  0.4636 -1.0176  0.0366
  171SAPE  H17X19436   1.683   4.329   8.691  0.1477 -3.1845 -2.4139
  171SAPE  H17Y19437   1.833   4.421   8.698 -1.6498 -0.3299  2.0145
  171SAPE  C31819438   1.834   4.244   8.815 -0.6235  0.4478  0.1597
  171SAPE  H18X19439   1.940   4.262   8.841 -1.1248 -0.1382  2.7449
  171SAPE  H18Y19440   1.832   4.136   8.789  0.6710  0.8412 -1.6785
  171SAPE  H18Z19441   1.766   4.270   8.899 -0.7237  0.3440  0.1082
  172SAPE     N19442   0.497   3.709   6.170  0.0407 -0.0903 -0.4267
  172SAPE   HN119443   0.591   3.665   6.174  0.9011  1.5215 -1.8399
  172SAPE   HN219444   0.425   3.642   6.205 -2.0649  2.8345  1.0543
  172SAPE   HN319445   0.493   3.731   6.068 -0.4278  0.0915 -0.3685
  172SAPE   C1219446   0.479   3.836   6.259  0.0984  0.9493 -0.1383
  172SAPE  H12A19447   0.495   3.813   6.366  0.4097  0.7886 -0.2207
  172SAPE  H12B19448   0.374   3.871   6.248 -0.6630 -0.8908  1.0217
  172SAPE   C1119449   0.593   3.940   6.221  0.5757 -0.7045 -0.1148
  172SAPE  H11A19450   0.592   4.014   6.305 -2.3483  0.8865 -1.4523
  172SAPE  H11B19451   0.551   3.999   6.137  0.6531 -1.0626 -0.4033
  172SAPE     P19452   0.849   3.894   6.252  0.1066  0.2230 -0.3555
  172SAPE   O1319453   0.929   3.784   6.189 -0.0629  0.2094  0.3913
  172SAPE   O1419454   0.888   4.033   6.230 -0.6159 -0.5064  0.1466
  172SAPE   O1219455   0.714   3.875   6.188  0.0154 -0.0539  0.2721
  172SAPE   O1119456   0.816   3.859   6.405 -0.3200  0.1058 -0.3930
  172SAPE    C119457   0.824   3.967   6.500  0.1405  0.0529  0.8057
  172SAPE    HA19458   0.780   4.063   6.466 -0.0470 -0.0247  0.8248
  172SAPE    HB19459   0.789   3.924   6.597 -2.0824 -1.0670 -0.4619
  172SAPE    C219460   0.977   3.998   6.535  0.0588 -0.3268  0.1245
  172SAPE    HS19461   1.029   4.020   6.440 -1.3530 -1.1887 -0.8758
  172SAPE   O2119462   1.033   3.883   6.596  0.1445 -0.3203 -0.3194
  172SAPE   C2119463   1.160   3.872   6.604  0.5783  0.1177 -0.2966
  172SAPE   O2219464   1.242   3.937   6.546 -0.5941  0.0223 -0.6135
  172SAPE   C2219465   1.198   3.741   6.677 -0.6370  0.4531  0.2980
  172SAPE   H2R19466   1.115   3.667   6.669  0.6665 -0.8128 -1.9820
  172SAPE   H2S19467   1.277   3.692   6.615 -2.2318 -1.4754 -0.2788
  172SAPE    C319468   0.987   4.122   6.629 -0.2547  0.1301 -0.0431
  172SAPE    HX19469   0.930   4.209   6.589 -2.0343 -0.1249  1.8523
  172SAPE    HY19470   1.095   4.145   6.616  0.1710 -1.4613  0.6631
  172SAPE   O3119471   0.963   4.101   6.770  0.1460  0.2009  0.3870
  172SAPE   C3119472   0.843   4.104   6.816  0.8503 -0.2155 -0.1715
  172SAPE   O3219473   0.747   4.150   6.761 -0.4228 -0.2141  0.1573
  172SAPE   C3219474   0.838   4.050   6.959 -0.4318 -0.0536  0.0253
  172SAPE   H2X19475   0.944   4.042   6.990 -0.5997  0.2276  0.6637
  172SAPE   H2Y19476   0.789   3.950   6.958  0.7326 -0.6366 -0.8068
  172SAPE   C2319477   1.242   3.757   6.827 -0.1013  0.0254  0.0396
  172SAPE   H3R19478   1.209   3.858   6.859  2.8777  0.8030  0.7635
  172SAPE   H3S19479   1.351   3.754   6.845  0.0931  0.3933 -1.0276
  172SAPE   C2419480   1.174   3.657   6.927  0.6836  0.1883 -0.2368
  172SAPE   H4R19481   1.237   3.646   7.017 -0.5404 -1.8698  0.3937
  172SAPE   H4S19482   1.182   3.556   6.881 -0.4884  0.9543 -2.2095
  172SAPE   C2519483   1.029   3.693   6.945  0.7697  0.7473  0.2759
  172SAPE   H5R19484   0.967   3.718   6.858  0.4299 -1.0248 -0.0115
  172SAPE   C2619485   0.960   3.685   7.060  0.2814  0.6127 -0.8675
  172SAPE   H6R19486   0.852   3.707   7.058 -0.0214 -0.6586  0.3946
  172SAPE   C2719487   1.013   3.654   7.195  0.3932  0.4049 -0.3172
  172SAPE   H7R19488   0.947   3.711   7.264 -0.2608  0.7986 -1.2553
  172SAPE   H7S19489   1.115   3.699   7.203  1.3878 -1.3349 -2.5425
  172SAPE   C2819490   1.027   3.511   7.236  0.4730  0.8418  0.0031
  172SAPE   H8R19491   1.013   3.435   7.158  1.5063  0.2854  0.3571
  172SAPE   C2919492   1.049   3.469   7.365  0.3175  0.5658  0.0758
  172SAPE   H9R19493   1.054   3.362   7.389  1.3180 -0.4357 -4.2596
  172SAPE  C21019494   1.079   3.554   7.487 -1.2476 -0.4362 -0.5854
  172SAPE  H10R19495   1.020   3.517   7.573  0.1979  0.5513  0.8680
  172SAPE  H10S19496   1.048   3.660   7.475 -0.8427 -0.3522 -0.9281
  172SAPE  C21119497   1.231   3.543   7.515 -1.0824  0.4193  0.1363
  172SAPE  H11R19498   1.300   3.557   7.430 -1.3444  0.8314 -0.0116
  172SAPE  C21219499   1.291   3.521   7.636  0.1519 -0.7797 -0.6799
  172SAPE  H12R19500   1.401   3.518   7.640  0.1959 -4.1489 -2.6816
  172SAPE  C21319501   1.222   3.515   7.773 -1.1900  0.3896 -0.6068
  172SAPE  H13R19502   1.250   3.415   7.814 -0.6277  0.5147 -0.6882
  172SAPE  H13S19503   1.111   3.519   7.775 -1.1808  0.6587 -0.5638
  172SAPE  C21419504   1.279   3.623   7.857  0.0556 -0.2879  0.0166
  172SAPE  H14R19505   1.262   3.728   7.829 -0.2033  0.3667  2.4368
  172SAPE  C21519506   1.321   3.602   7.984  0.4331  0.0739 -0.0337
  172SAPE  H15R19507   1.350   3.689   8.046 -1.4652  0.8748 -0.2466
  172SAPE  C21619508   1.330   3.478   8.060 -0.6258 -0.3109 -0.7935
  172SAPE  H16R19509   1.428   3.426   8.052 -0.5384 -0.1639 -0.6654
  172SAPE  H16S19510   1.262   3.397   8.025 -1.6173  0.1358  0.0524
  172SAPE  C21719511   1.301   3.498   8.208  0.6654 -0.7539  0.6774
  172SAPE  H17R19512   1.283   3.398   8.254  0.3050 -0.6181  0.8326
  172SAPE  H17S19513   1.205   3.553   8.217  0.6509 -0.4849 -1.0557
  172SAPE  C21819514   1.397   3.587   8.282 -0.8946 -0.1258 -0.1502
  172SAPE  H18R19515   1.375   3.694   8.264 -0.4326  0.7883  4.0736
  172SAPE  H18S19516   1.492   3.554   8.236  1.6070  4.5086  1.3073
  172SAPE  C21919517   1.394   3.564   8.437  0.6064 -0.0160 -0.3839
  172SAPE  H19R19518   1.472   3.625   8.488  0.7250 -1.5000  1.2809
  172SAPE  H19S19519   1.431   3.460   8.452 -2.6305 -1.3374 -1.1826
  172SAPE  C22019520   1.259   3.597   8.501  0.0110 -0.0062  0.0870
  172SAPE  H20R19521   1.270   3.595   8.611  3.5432 -0.9368 -0.2022
  172SAPE  H20S19522   1.179   3.531   8.463  0.8526 -0.6449 -0.6038
  172SAPE  H20T19523   1.247   3.705   8.478 -0.9973 -0.2489 -0.5508
  172SAPE   C3319524   0.762   4.132   7.064 -0.3109 -0.8508  0.4014
  172SAPE   H3X19525   0.728   4.078   7.155 -5.0829  2.0886  0.5080
  172SAPE   H3Y19526   0.665   4.167   7.022 -0.9479 -2.5611  0.4041
  172SAPE   C3419527   0.842   4.250   7.123  0.6285 -0.4454 -0.5352
  172SAPE   H4X19528   0.847   4.338   7.055 -2.1653 -0.8919 -1.3875
  172SAPE   H4Y19529   0.945   4.211   7.138  1.7253  1.9082 -1.6804
  172SAPE   C3519530   0.771   4.287   7.251  1.0927 -0.0559  0.1315
  172SAPE   H5X19531   0.743   4.204   7.319  4.1606 -0.1452  1.3556
  172SAPE   H5Y19532   0.674   4.334   7.222  2.4765  0.9079 -3.1211
  172SAPE   C3619533   0.839   4.398   7.332 -0.4450 -0.3066 -0.7504
  172SAPE   H6X19534   0.780   4.416   7.424  0.2241 -0.7672 -0.2266
  172SAPE   H6Y19535   0.849   4.494   7.277  0.5897  0.0104 -0.0204
  172SAPE   C3719536   0.971   4.352   7.391  0.7730 -0.0863  1.0119
  172SAPE   H7X19537   1.021   4.439   7.439  1.5889  0.0849 -0.1479
  172SAPE   H7Y19538   1.040   4.330   7.307 -0.6666 -3.8935  0.7368
  172SAPE   C3819539   0.948   4.256   7.508 -0.3990 -0.0142 -0.0690
  172SAPE   H8X19540   0.841   4.243   7.536 -0.0651 -1.9368  0.3826
  172SAPE   H8Y19541   1.015   4.281   7.592 -1.1256 -0.0801  0.5393
  172SAPE   C3919542   0.979   4.112   7.463 -0.1673 -0.4027  0.7038
  172SAPE   H9X19543   1.084   4.086   7.438 -0.1177 -1.9951  2.5121
  172SAPE   H9Y19544   0.911   4.095   7.377 -0.1591  1.0062  0.3986
  172SAPE  C31019545   0.953   4.000   7.558 -0.0355  0.0367  0.3539
  172SAPE  H10X19546   0.986   3.912   7.499 -0.0065  0.8307 -0.8245
  172SAPE  H10Y19547   0.843   3.980   7.565  0.4106 -2.7306  0.1094
  172SAPE  C31119548   1.023   4.014   7.695 -0.7452 -0.4077 -0.9620
  172SAPE  H11X19549   0.974   4.107   7.730  0.4077  0.1585 -0.8062
  172SAPE  H11Y19550   1.134   4.023   7.687 -0.6733 -0.3749 -0.0045
  172SAPE  C31219551   1.002   3.894   7.785 -0.1377 -0.2554  0.4702
  172SAPE  H12X19552   1.045   3.797   7.754  0.5365 -0.0549  0.7628
  172SAPE  H12Y19553   0.892   3.876   7.781 -0.3148  0.8472  0.1260
  172SAPE  C31319554   1.061   3.934   7.920  0.2952 -0.1804  0.2719
  172SAPE  H13X19555   1.015   4.032   7.946 -0.7230 -1.4833  3.6959
  172SAPE  H13Y19556   1.171   3.930   7.925  0.2080 -1.4594  1.4904
  172SAPE  C31419557   1.005   3.849   8.036  0.4317  0.4039 -0.3014
  172SAPE  H14X19558   1.060   3.754   8.023  1.2524  0.4443  2.5822
  172SAPE  H14Y19559   0.894   3.847   8.026  0.1406  0.5650  2.6769
  172SAPE  C31519560   1.030   3.905   8.180  0.1360 -0.0842  0.2713
  172SAPE  H15X19561   1.136   3.931   8.200 -0.1874  1.6158 -0.1012
  172SAPE  H15Y19562   0.999   3.817   8.241 -0.5971 -0.2260 -0.2973
  172SAPE  C31619563   0.929   4.006   8.226  0.0824  0.6919  0.3906
  172SAPE  H16X19564   0.839   3.944   8.247  0.4695  0.0257  0.1273
  172SAPE  H16Y19565   0.910   4.087   8.153  0.1583  1.4004  1.1547
  172SAPE  C31719566   0.960   4.069   8.370  0.4157  0.6537  1.5879
  172SAPE  H17X19567   0.874   4.136   8.391 -2.7746 -2.0297 -2.2036
  172SAPE  H17Y19568   1.054   4.130   8.371  0.7099  0.2539  0.0599
  172SAPE  C31819569   0.976   3.974   8.486  0.5647  0.0868 -0.3743
  172SAPE  H18X19570   0.959   4.028   8.581 -1.4381 -1.8247  0.3736
  172SAPE  H18Y19571   1.081   3.936   8.488  1.0362  1.3384 -0.7829
  172SAPE  H18Z19572   0.915   3.882   8.478  0.4910  0.2006 -1.1605
  173SOPE     N19573   1.249   1.135  10.857  0.0239 -0.7824 -0.4165
  173SOPE   HN119574   1.345   1.168  10.838  0.6977  0.6640  4.6703
  173SOPE   HN219575   1.242   1.097  10.954  1.2816  1.0851  0.4306
  173SOPE   HN319576   1.233   1.058  10.789 -0.0080 -1.6386  0.5434
  173SOPE   C1219577   1.159   1.247  10.825 -0.2652  0.9253 -0.5372
  173SOPE  H12A19578   1.067   1.191  10.799  0.3105  0.2541 -1.1917
  173SOPE  H12B19579   1.186   1.300  10.732 -0.1124 -1.6163 -2.0055
  173SOPE   C1119580   1.142   1.343  10.942  0.1000 -0.3394  0.1186
  173SOPE  H11A19581   1.241   1.386  10.970 -0.6437  1.0596  0.6929
  173SOPE  H11B19582   1.098   1.292  11.030 -1.5451 -0.6801 -0.8847
  173SOPE     P19583   1.075   1.593  10.864  0.0514 -0.0299  0.5749
  173SOPE   O1319584   1.197   1.589  10.774  0.1546 -0.2929 -0.4067
  173SOPE   O1419585   1.088   1.667  10.991  0.1697  0.2764  0.7242
  173SOPE   O1219586   1.043   1.439  10.914 -0.0975 -0.0198  0.1531
  173SOPE   O1119587   0.951   1.650  10.780 -0.2804  0.2065 -0.1364
  173SOPE    C119588   0.842   1.560  10.751 -0.5722  0.1671 -0.1034
  173SOPE    HA19589   0.751   1.618  10.725  0.4968  1.4641 -1.0111
  173SOPE    HB19590   0.814   1.499  10.840 -0.5477  1.5272  0.8502
  173SOPE    C219591   0.873   1.474  10.630 -0.6500 -0.3222  0.1487
  173SOPE    HS19592   0.972   1.425  10.644 -0.4805  0.4306  1.7044
  173SOPE   O2119593   0.870   1.577  10.527 -0.2868 -0.0632  0.1398
  173SOPE   C2119594   0.937   1.542  10.414 -0.5519 -0.4155 -0.5803
  173SOPE   O2219595   1.024   1.460  10.411  0.5450  0.6165  0.1112
  173SOPE   C2219596   0.871   1.619  10.298  0.2932  0.2755 -0.2298
  173SOPE   H2R19597   0.894   1.727  10.301 -0.4987  0.4422 -0.1841
  173SOPE   H2S19598   0.761   1.606  10.304  0.5161 -0.8434  1.7675
  173SOPE    C319599   0.769   1.355  10.608 -0.7117 -0.0926  0.0717
  173SOPE    HX19600   0.668   1.398  10.621 -0.8259  0.5529 -2.7578
  173SOPE    HY19601   0.777   1.274  10.684  3.0781  1.5658  1.5825
  173SOPE   O3119602   0.773   1.303  10.478  0.7621  0.8566 -0.2046
  173SOPE   C3119603   0.873   1.220  10.464  0.1257  0.3886  0.7228
  173SOPE   O3219604   0.948   1.185  10.553  0.1246  0.8131 -0.2604
  173SOPE   C3219605   0.884   1.183  10.314 -0.3278  0.1450 -0.5415
  173SOPE   H2X19606   0.882   1.264  10.239 -3.9177 -0.5596 -1.2838
  173SOPE   H2Y19607   0.802   1.111  10.294 -1.5437  0.7065  2.1260
  173SOPE   C2319608   0.922   1.560  10.161 -0.3376  0.1464 -0.3835
  173SOPE   H3R19609   0.881   1.456  10.156 -3.8958  1.3016  2.3923
  173SOPE   H3S19610   1.032   1.560  10.150 -0.4431 -0.0374 -1.4942
  173SOPE   C2419611   0.861   1.625  10.036  0.1935 -0.2952 -0.1516
  173SOPE   H4R19612   0.752   1.608  10.041  0.0694  0.5539  0.1242
  173SOPE   H4S19613   0.883   1.731  10.061  0.5131 -0.2051 -0.8090
  173SOPE   C2519614   0.929   1.589   9.906 -0.0652 -0.0447 -0.3123
  173SOPE   H5R19615   1.039   1.601   9.917  0.2742 -2.0333 -1.4405
  173SOPE   H5S19616   0.921   1.480   9.888 -0.0018 -0.0947 -0.0510
  173SOPE   C2619617   0.886   1.685   9.791  0.5243  0.2949 -0.4564
  173SOPE   H6R19618   0.776   1.665   9.785  1.0674 -2.6623 -1.1298
  173SOPE   H6S19619   0.908   1.790   9.821  1.0694  0.3334 -0.9803
  173SOPE   C2719620   0.957   1.647   9.660 -0.5330  0.2055  0.3002
  173SOPE   H7R19621   1.066   1.662   9.675 -0.6370  0.7776  0.4831
  173SOPE   H7S19622   0.943   1.539   9.636  0.4385  0.2815 -0.6380
  173SOPE   C2819623   0.912   1.743   9.549  0.4661  0.6601 -0.2651
  173SOPE   H8R19624   0.944   1.692   9.455 -3.4114 -4.0434  0.7616
  173SOPE   H8S19625   0.802   1.727   9.549  0.3461  1.3479  2.1566
  173SOPE   C2919626   0.942   1.891   9.550 -0.4562  0.8322 -0.5482
  173SOPE   H9119627   0.881   1.951   9.619  0.5946 -0.4528  1.5607
  173SOPE  C21019628   1.045   1.950   9.479 -0.6109  0.0875 -0.1049
  173SOPE  H10119629   1.054   2.060   9.485  0.3778  0.0534 -0.8426
  173SOPE  C21119630   1.147   1.887   9.389  0.3260 -0.0358  0.1897
  173SOPE  H11R19631   1.159   1.781   9.421 -0.6995 -1.4945 -3.9368
  173SOPE  H11S19632   1.243   1.943   9.388 -0.0482  0.5921 -0.5236
  173SOPE  C21219633   1.080   1.879   9.247  0.0036  0.2484  0.1149
  173SOPE  H12R19634   1.056   1.981   9.211  0.1319  0.0236 -0.6043
  173SOPE  H12S19635   0.981   1.830   9.254 -0.1409  0.5321  0.0296
  173SOPE  C21319636   1.166   1.789   9.155 -0.4780 -0.3599 -0.4013
  173SOPE  H13R19637   1.200   1.704   9.218 -0.0640 -1.1419 -1.6771
  173SOPE  H13S19638   1.256   1.843   9.119 -0.7342  0.3256 -0.0484
  173SOPE  C21419639   1.086   1.738   9.032 -0.0332  0.1917 -0.4471
  173SOPE  H14R19640   1.067   1.823   8.963 -1.8524  0.5784  0.4879
  173SOPE  H14S19641   0.988   1.692   9.058  0.4342 -1.0393 -0.8177
  173SOPE  C21519642   1.169   1.643   8.951 -0.5411  0.2445  1.1010
  173SOPE  H15R19643   1.195   1.547   9.002 -1.4223 -1.2305 -1.1048
  173SOPE  H15S19644   1.263   1.693   8.921 -0.4886 -0.7776 -0.5176
  173SOPE  C21619645   1.094   1.603   8.828 -0.1894  0.2977 -0.8656
  173SOPE  H16R19646   1.050   1.686   8.769 -0.5570 -0.2094 -1.3116
  173SOPE  H16S19647   1.013   1.531   8.856  1.3560 -1.1467  0.0219
  173SOPE  C21719648   1.183   1.524   8.721 -0.3881  0.2437  0.0429
  173SOPE  H17R19649   1.204   1.425   8.768 -1.9530 -1.2604 -2.2968
  173SOPE  H17S19650   1.280   1.574   8.699 -0.0076  0.3715  1.9292
  173SOPE  C21819651   1.108   1.507   8.588 -0.7345  0.5724 -0.3006
  173SOPE  H18R19652   1.087   1.609   8.550  0.7739  1.5817  1.4607
  173SOPE  H18S19653   1.009   1.458   8.591 -1.1545  1.5175  1.6216
  173SOPE  H18T19654   1.171   1.461   8.509 -1.9128  0.1726 -1.0184
  173SOPE   C3319655   1.031   1.121  10.285 -0.2931 -0.2875  0.0693
  173SOPE   H3X19656   1.041   1.036  10.355 -0.6028  0.3083  0.8438
  173SOPE   H3Y19657   1.107   1.199  10.306 -2.2620  1.3580  1.2191
  173SOPE   C3419658   1.044   1.089  10.128  0.1944  0.2500 -0.3131
  173SOPE   H4X19659   1.145   1.054  10.098 -0.0208  1.7896 -3.0225
  173SOPE   H4Y19660   1.025   1.186  10.077 -1.2132 -1.1608 -2.5553
  173SOPE   C3519661   0.935   0.985  10.072 -0.1068 -0.1420  0.1974
  173SOPE   H5X19662   0.840   1.034  10.099  0.4000  0.1117  1.5572
  173SOPE   H5Y19663   0.936   0.892  10.132 -0.2413 -0.3378 -0.1006
  173SOPE   C3619664   0.960   0.943   9.923 -0.3989  0.3254  0.3006
  173SOPE   H6X19665   0.891   0.856   9.913  0.0786 -0.1545  1.0774
  173SOPE   H6Y19666   1.068   0.920   9.912 -0.2068  0.5106  1.6665
  173SOPE   C3719667   0.908   1.046   9.824 -0.0384  0.3724  0.7339
  173SOPE   H7X19668   0.951   1.143   9.855 -0.4401  0.7190  0.2089
  173SOPE   H7Y19669   0.800   1.057   9.847 -0.5388 -1.1636 -0.7901
  173SOPE   C3819670   0.948   1.010   9.683  0.1982 -0.0891  0.2543
  173SOPE   H8X19671   0.921   0.902   9.671  0.5744 -0.2761  1.0396
  173SOPE   H8Y19672   1.056   1.028   9.665  0.5341 -0.2572  2.0548
  173SOPE   C3919673   0.864   1.085   9.578  0.2467 -0.9222  0.4503
  173SOPE   H9X19674   0.905   1.187   9.564 -2.2858  0.2260  1.0025
  173SOPE   H9Y19675   0.757   1.082   9.608  0.1645 -0.7785  0.1771
  173SOPE  C31019676   0.869   1.003   9.444  0.1018  0.8235  0.4890
  173SOPE  H10X19677   0.843   0.899   9.470 -1.7634  1.6041  1.8898
  173SOPE  H10Y19678   0.973   0.991   9.408 -0.5081 -1.1660 -0.6806
  173SOPE  C31119679   0.766   1.052   9.335 -0.0578 -1.0088 -0.1000
  173SOPE  H11X19680   0.788   1.158   9.308 -1.6682 -1.0793 -1.8610
  173SOPE  H11Y19681   0.660   1.051   9.368  0.0216  1.2548  0.2830
  173SOPE  C31219682   0.780   0.963   9.207 -0.0129  0.5217  0.3444
  173SOPE  H12X19683   0.725   0.869   9.228  2.2055 -0.9134 -0.1568
  173SOPE  H12Y19684   0.888   0.949   9.185  0.0021 -0.8409  1.2692
  173SOPE  C31319685   0.738   1.032   9.076  0.1678  0.5432 -0.0339
  173SOPE  H13X19686   0.787   1.132   9.073 -1.1391  1.1546 -1.5717
  173SOPE  H13Y19687   0.629   1.053   9.068  0.1493  0.9285  1.0788
  173SOPE  C31419688   0.782   0.945   8.954 -0.6434  0.0892 -0.6677
  173SOPE  H14X19689   0.740   0.847   8.985 -0.5328  0.6168  1.2136
  173SOPE  H14Y19690   0.893   0.952   8.956 -0.7863  2.9841  2.2555
  173SOPE  C31519691   0.737   1.001   8.821 -0.3196  0.1494 -0.0096
  173SOPE  H15X19692   0.768   1.108   8.818  1.9025 -0.4830  0.0329
  173SOPE  H15Y19693   0.626   0.992   8.820 -0.5880  2.9388 -0.8258
  173SOPE  C31619694   0.805   0.937   8.698 -0.3247 -0.0800 -0.0311
  173SOPE  H16X19695   0.781   0.829   8.693 -1.0242  0.1061 -0.8784
  173SOPE  H16Y19696   0.914   0.956   8.713 -0.4229  0.5015 -0.0299
  173SOPE  C31719697   0.766   1.005   8.572  0.3253  0.3747  0.4073
  173SOPE  H17X19698   0.794   1.111   8.585 -0.2097  0.7187 -1.1201
  173SOPE  H17Y19699   0.655   1.005   8.559  0.4610 -0.6746 -0.9674
  173SOPE  C31819700   0.820   0.957   8.441 -0.4831  0.1270 -0.5175
  173SOPE  H18X19701   0.753   0.995   8.361 -0.3605  1.5722  0.0586
  173SOPE  H18Y19702   0.817   0.846   8.432  0.0270  0.1905 -1.6196
  173SOPE  H18Z19703   0.923   0.995   8.425 -0.2313 -0.6635 -0.8241
  174SOPE     N19704   0.800   0.701  11.187  0.8623 -0.1612 -0.0844
  174SOPE   HN119705   0.751   0.669  11.102  0.3941  0.6807 -0.1323
  174SOPE   HN219706   0.793   0.628  11.262  0.0736 -0.4645 -0.4512
  174SOPE   HN319707   0.756   0.789  11.220  2.1454 -0.5021  2.7727
  174SOPE   C1219708   0.936   0.744  11.158 -0.3988  0.3922 -0.6799
  174SOPE  H12A19709   1.008   0.681  11.216 -0.8105 -0.8453 -1.4900
  174SOPE  H12B19710   0.948   0.845  11.202  0.6334 -0.5045  1.1828
  174SOPE   C1119711   0.971   0.733  11.003  0.4759 -0.5214 -0.4861
  174SOPE  H11A19712   0.967   0.625  10.979 -1.3234 -0.2344 -1.6059
  174SOPE  H11B19713   1.066   0.787  10.983 -0.7141  1.8014 -0.0908
  174SOPE     P19714   0.761   0.725  10.830  0.4681 -0.1974 -0.4161
  174SOPE   O1319715   0.654   0.825  10.799 -0.5069 -0.1122  0.4674
  174SOPE   O1419716   0.722   0.602  10.895  0.6043  0.2565 -0.4829
  174SOPE   O1219717   0.861   0.793  10.930 -0.9369  0.5766 -0.1998
  174SOPE   O1119718   0.844   0.691  10.705 -0.1633 -0.0991  0.3981
  174SOPE    C119719   0.925   0.793  10.636  0.6476  0.9847  0.5438
  174SOPE    HA19720   1.027   0.790  10.680  0.3085  1.0613  1.3385
  174SOPE    HB19721   0.883   0.893  10.660 -3.3366 -0.2291 -0.9887
  174SOPE    C219722   0.935   0.769  10.482 -0.3625  0.9463 -0.8577
  174SOPE    HS19723   0.962   0.866  10.435  0.2311  0.5919 -1.2521
  174SOPE   O2119724   0.811   0.713  10.429  0.4497  0.1648  0.1907
  174SOPE   C2119725   0.706   0.787  10.446  0.5194  0.2214  0.7281
  174SOPE   O2219726   0.708   0.905  10.474 -0.4023 -0.3009 -0.2649
  174SOPE   C2219727   0.577   0.707  10.406 -0.7481  0.3792 -0.3632
  174SOPE   H2R19728   0.513   0.692  10.495  2.7700  1.1155  2.4090
  174SOPE   H2S19729   0.606   0.606  10.371 -2.5812 -0.6405  0.9381
  174SOPE    C319730   1.034   0.653  10.466 -0.4464 -0.1535  0.9810
  174SOPE    HX19731   0.982   0.558  10.493  2.1254 -1.9715 -0.2125
  174SOPE    HY19732   1.123   0.659  10.532 -1.2785  0.1136  2.0868
  174SOPE   O3119733   1.076   0.645  10.328 -0.0786 -0.3222  0.1924
  174SOPE   C3119734   1.004   0.564  10.239  0.4594 -0.3199  0.5183
  174SOPE   O3219735   0.908   0.499  10.270  0.1164  0.0258 -0.5033
  174SOPE   C3219736   1.049   0.581  10.100 -0.0934 -0.3015 -0.3225
  174SOPE   H2X19737   1.160   0.571  10.096 -0.0384  0.6404 -1.1529
  174SOPE   H2Y19738   1.030   0.686  10.071  3.3832  0.2545 -0.8089
  174SOPE   C2319739   0.495   0.790  10.305  0.3063  0.6249 -0.7402
  174SOPE   H3R19740   0.474   0.892  10.342  4.0788  1.5219 -0.8685
  174SOPE   H3S19741   0.402   0.734  10.282 -0.2424  1.0283  0.4549
  174SOPE   C2419742   0.562   0.796  10.167 -0.0283 -0.3565 -0.1520
  174SOPE   H4R19743   0.498   0.860  10.102  0.0708  0.7633  0.8321
  174SOPE   H4S19744   0.658   0.851  10.179 -0.2823  0.1929 -0.6195
  174SOPE   C2519745   0.586   0.659  10.105  0.2045  0.0513  0.5920
  174SOPE   H5R19746   0.678   0.608  10.142 -0.7280 -0.3648  2.3975
  174SOPE   H5S19747   0.496   0.602  10.134 -0.3889  1.8921  2.5440
  174SOPE   C2619748   0.591   0.661   9.951 -0.2385  0.4075 -0.8509
  174SOPE   H6R19749   0.664   0.735   9.910 -0.6108  0.5181 -1.3235
  174SOPE   H6S19750   0.629   0.563   9.917  0.5470  0.3389  0.1798
  174SOPE   C2719751   0.460   0.682   9.879  0.2066 -0.1764  0.8858
  174SOPE   H7R19752   0.382   0.626   9.936  1.6735 -2.6084  0.5918
  174SOPE   H7S19753   0.439   0.791   9.877 -0.4123 -0.2750 -3.3544
  174SOPE   C2819754   0.471   0.649   9.729 -0.2067  0.4400 -0.4413
  174SOPE   H8R19755   0.522   0.551   9.727 -0.0405  0.5234 -0.2767
  174SOPE   H8S19756   0.377   0.621   9.676 -0.4405  1.3742 -0.5359
  174SOPE   C2919757   0.541   0.759   9.647  0.1944 -0.1333 -0.3143
  174SOPE   H9119758   0.644   0.788   9.674 -1.4333  2.6822  3.1966
  174SOPE  C21019759   0.504   0.820   9.534 -0.0220 -0.7272  0.6791
  174SOPE  H10119760   0.576   0.879   9.476 -0.5985 -1.0916 -0.4171
  174SOPE  C21119761   0.378   0.787   9.465 -0.4997 -0.3217 -0.0766
  174SOPE  H11R19762   0.301   0.867   9.471  0.5163  0.5055  2.0710
  174SOPE  H11S19763   0.331   0.691   9.498  0.8932 -0.5656  1.2381
  174SOPE  C21219764   0.416   0.770   9.318  0.6021 -0.5169 -0.4977
  174SOPE  H12R19765   0.465   0.674   9.291  1.8698  0.3283 -1.2018
  174SOPE  H12S19766   0.476   0.852   9.274 -2.1262  1.9259  0.1788
  174SOPE  C21319767   0.292   0.764   9.235 -0.1770 -0.0508 -0.2108
  174SOPE  H13R19768   0.248   0.864   9.216 -2.1193 -1.3685 -2.9868
  174SOPE  H13S19769   0.208   0.711   9.283 -0.3400  1.6685  1.4934
  174SOPE  C21419770   0.321   0.715   9.093 -0.8309  0.7462  0.4715
  174SOPE  H14R19771   0.347   0.607   9.088 -1.1052  0.5975  2.1995
  174SOPE  H14S19772   0.410   0.774   9.061 -0.6736  0.2701  0.0303
  174SOPE  C21519773   0.206   0.727   8.994  0.0461 -0.0655  0.6119
  174SOPE  H15R19774   0.141   0.812   9.021 -0.5242 -0.6656  1.1630
  174SOPE  H15S19775   0.143   0.635   8.992  1.2776 -0.8993 -0.7860
  174SOPE  C21619776   0.262   0.740   8.852  0.4807 -0.8434 -0.1702
  174SOPE  H16R19777   0.176   0.735   8.782  0.8900  1.7891 -0.9096
  174SOPE  H16S19778   0.332   0.657   8.825  2.6187  0.0806  2.3304
  174SOPE  C21719779   0.344   0.864   8.822  0.2910 -0.1633 -0.3696
  174SOPE  H17R19780   0.433   0.866   8.889  0.9825 -2.2012 -1.1848
  174SOPE  H17S19781   0.275   0.950   8.832  0.9262  0.1766  1.3529
  174SOPE  C21819782   0.398   0.845   8.680 -0.3158  0.2507 -0.3657
  174SOPE  H18R19783   0.480   0.918   8.659 -1.4725  2.3254  2.0040
  174SOPE  H18S19784   0.316   0.854   8.606 -1.1917  0.9679  0.6742
  174SOPE  H18T19785   0.450   0.748   8.665  1.0203  0.5070  2.4102
  174SOPE   C3319786   0.980   0.490  10.000  0.2560  0.5575 -0.2035
  174SOPE   H3X19787   0.869   0.489  10.001  0.2132 -2.1602 -2.0347
  174SOPE   H3Y19788   1.002   0.391  10.045 -1.9008 -0.0209 -0.3552
  174SOPE   C3419789   1.030   0.501   9.856 -0.2259  0.3807 -0.2819
  174SOPE   H4X19790   0.996   0.408   9.806  0.3123  1.1515 -2.0847
  174SOPE   H4Y19791   1.141   0.503   9.858 -0.1337 -2.8992  0.1780
  174SOPE   C3519792   0.966   0.616   9.782 -0.0026 -0.6262 -0.3631
  174SOPE   H5X19793   1.027   0.707   9.801 -1.9637  1.0486 -1.8999
  174SOPE   H5Y19794   0.867   0.638   9.828  0.1135 -0.7158 -0.0633
  174SOPE   C3619795   0.958   0.587   9.631 -0.5341 -0.1436 -0.5600
  174SOPE   H6X19796   1.056   0.558   9.588 -0.3572 -0.2938 -0.0678
  174SOPE   H6Y19797   0.929   0.678   9.574 -1.6930  0.1548  0.4771
  174SOPE   C3719798   0.843   0.489   9.600  0.1386  0.7953  0.1194
  174SOPE   H7X19799   0.757   0.544   9.643  1.3291  0.8773  2.4934
  174SOPE   H7Y19800   0.848   0.392   9.654  1.6525 -0.5188 -2.2653
  174SOPE   C3819801   0.819   0.461   9.451  0.2036  0.5569 -0.6725
  174SOPE   H8X19802   0.897   0.393   9.411 -0.4059 -0.1832 -0.5967
  174SOPE   H8Y19803   0.837   0.557   9.399 -0.2028  0.5646 -0.8011
  174SOPE   C3919804   0.682   0.405   9.416 -0.6937  0.0665  0.3920
  174SOPE   H9X19805   0.599   0.476   9.435 -0.6334  1.2437 -3.3167
  174SOPE   H9Y19806   0.659   0.317   9.480 -0.1746 -0.3102  0.0588
  174SOPE  C31019807   0.679   0.372   9.270  0.3669 -0.1288 -0.5612
  174SOPE  H10X19808   0.766   0.309   9.239  0.5532 -0.1441 -0.0020
  174SOPE  H10Y19809   0.692   0.469   9.218  2.0915 -0.5687 -0.9800
  174SOPE  C31119810   0.540   0.323   9.233  0.7287 -0.0243 -0.2571
  174SOPE  H11X19811   0.464   0.393   9.275  1.0652  1.1826 -1.6278
  174SOPE  H11Y19812   0.515   0.224   9.276 -0.9487  0.4562 -0.0660
  174SOPE  C31219813   0.505   0.312   9.085  0.2512  0.4150 -0.7592
  174SOPE  H12X19814   0.513   0.415   9.044  0.6643  0.1545 -1.3401
  174SOPE  H12Y19815   0.396   0.290   9.084  0.6241 -1.4353 -0.9281
  174SOPE  C31319816   0.570   0.205   9.010 -0.0013 -0.0274  0.4276
  174SOPE  H13X19817   0.678   0.209   9.036  0.8253 -2.6659 -2.3357
  174SOPE  H13Y19818   0.570   0.228   8.902 -3.0508 -1.9145 -0.0346
  174SOPE  C31419819   0.516   0.061   9.032  0.8764  0.5129  0.1344
  174SOPE  H14X19820   0.410   0.068   9.066  1.1754  0.7232  1.0154
  174SOPE  H14Y19821   0.561   0.018   9.124  1.2530 -0.4718 -0.5020
  174SOPE  C31519822   0.511  -0.044   8.918  0.0582  0.3919 -0.1758
  174SOPE  H15X19823   0.495  -0.143   8.965  3.1453  0.5062  1.1968
  174SOPE  H15Y19824   0.611  -0.039   8.872  0.9840  0.7155  1.8156
  174SOPE  C31619825   0.396  -0.013   8.813 -0.3886  0.4164  0.4633
  174SOPE  H16X19826   0.423   0.071   8.746  1.9471 -1.1809 -0.6930
  174SOPE  H16Y19827   0.307   0.015   8.873 -0.8531 -2.5912  1.2744
  174SOPE  C31719828   0.377  -0.132   8.726 -0.4063 -0.4106 -0.3905
  174SOPE  H17X19829   0.356  -0.204   8.808 -3.0772  2.6588  1.7637
  174SOPE  H17Y19830   0.470  -0.160   8.673  0.2028  2.7213 -1.1284
  174SOPE  C31819831   0.260  -0.118   8.627  0.3890  0.1618  0.8150
  174SOPE  H18X19832   0.171  -0.071   8.676 -1.5843 -2.2535 -0.3408
  174SOPE  H18Y19833   0.245  -0.221   8.589  1.2335  0.0919  0.6664
  174SOPE  H18Z19834   0.287  -0.055   8.539 -0.4460  0.7847  0.9978
  175SOPE     N19835   2.460   3.223  10.774  0.3680  0.0862  0.2085
  175SOPE   HN119836   2.451   3.286  10.692 -2.4542 -0.7658 -0.1765
  175SOPE   HN219837   2.494   3.290  10.846 -0.7862  1.9764 -0.9711
  175SOPE   HN319838   2.531   3.152  10.744  1.7503  1.1193  0.9727
  175SOPE   C1219839   2.332   3.176  10.821 -0.0797  1.0427 -0.5363
  175SOPE  H12A19840   2.297   3.254  10.892 -1.2812 -0.8770  1.0324
  175SOPE  H12B19841   2.341   3.082  10.879 -1.2914  0.9704 -0.4658
  175SOPE   C1119842   2.236   3.156  10.710 -0.2595 -0.7245 -0.3558
  175SOPE  H11A19843   2.142   3.109  10.746 -0.4149 -0.6687 -0.6838
  175SOPE  H11B19844   2.284   3.078  10.647  1.6717 -0.2028  0.4331
  175SOPE     P19845   2.085   3.319  10.555  0.2493  0.1188 -0.2148
  175SOPE   O1319846   2.049   3.466  10.572  0.4698 -0.3944  0.2331
  175SOPE   O1419847   1.973   3.219  10.582 -0.5761 -0.1780 -0.1045
  175SOPE   O1219848   2.216   3.274  10.635  0.2742 -0.6590  0.3187
  175SOPE   O1119849   2.136   3.286  10.413 -0.0803 -0.0275  0.3670
  175SOPE    C119850   2.249   3.218  10.375 -0.0733  0.5381  0.0369
  175SOPE    HA19851   2.267   3.131  10.441  3.4487  1.4369  0.3413
  175SOPE    HB19852   2.326   3.296  10.395 -1.5753  1.2823  3.3286
  175SOPE    C219853   2.224   3.180  10.223  0.1405  0.0408 -0.1036
  175SOPE    HS19854   2.208   3.269  10.158 -0.4954 -0.6170 -0.8442
  175SOPE   O2119855   2.108   3.087  10.223 -0.2605  0.1172 -0.4652
  175SOPE   C2119856   2.024   3.106  10.124  0.1861 -0.0143 -0.0813
  175SOPE   O2219857   2.038   3.183  10.028 -0.1439  0.5504 -0.0047
  175SOPE   C2219858   1.915   2.990  10.147 -0.1974  0.1646 -0.1017
  175SOPE   H2R19859   1.831   3.030  10.206 -1.9163 -1.3177 -1.4761
  175SOPE   H2S19860   1.972   2.921  10.213  2.3085  2.3863  0.1594
  175SOPE    C319861   2.356   3.117  10.166 -0.6186  0.3013  0.6512
  175SOPE    HX19862   2.366   3.016  10.211  0.8444  0.2686  0.2862
  175SOPE    HY19863   2.443   3.178  10.197 -0.3752  0.7216 -0.8094
  175SOPE   O3119864   2.345   3.114  10.023 -0.6220 -0.2829 -0.2855
  175SOPE   C3119865   2.307   3.009   9.966  0.6404 -0.2519 -0.6902
  175SOPE   O3219866   2.284   2.897  10.008  0.2090  0.1660 -0.2440
  175SOPE   C3219867   2.268   3.041   9.818 -0.0319  1.0034  0.4286
  175SOPE   H2X19868   2.353   3.059   9.749 -0.6802 -0.6662 -0.8349
  175SOPE   H2Y19869   2.222   3.141   9.835 -0.7153  0.7037  0.3567
  175SOPE   C2319870   1.865   2.921  10.021 -0.4894 -0.4530  0.1206
  175SOPE   H3R19871   1.779   2.861  10.059 -0.5534  0.2365  1.0779
  175SOPE   H3S19872   1.932   2.855   9.963  0.3804  0.2052  0.3670
  175SOPE   C2419873   1.805   3.016   9.917  0.1504 -0.1339  0.0294
  175SOPE   H4R19874   1.720   3.071   9.964 -0.6187  0.1614 -1.6443
  175SOPE   H4S19875   1.872   3.092   9.870  0.3746  0.0859  0.7074
  175SOPE   C2519876   1.728   2.930   9.811 -0.5863 -0.1304 -0.3845
  175SOPE   H5R19877   1.792   2.858   9.756  0.5637  1.3158 -0.9854
  175SOPE   H5S19878   1.664   2.867   9.876  0.1181 -0.2791  0.1732
  175SOPE   C2619879   1.629   3.007   9.718  0.3576 -0.3889 -0.4661
  175SOPE   H6R19880   1.582   3.091   9.773 -1.4330 -0.6726 -1.5040
  175SOPE   H6S19881   1.688   3.047   9.632  0.8578 -0.0456  0.0359
  175SOPE   C2719882   1.519   2.909   9.678 -0.0126  0.3935 -0.1244
  175SOPE   H7R19883   1.466   2.860   9.763  0.3845  1.1539  0.5690
  175SOPE   H7S19884   1.440   2.967   9.626 -0.6119 -0.5147 -0.2449
  175SOPE   C2819885   1.565   2.796   9.580  0.6978  0.2479 -0.0318
  175SOPE   H8R19886   1.631   2.724   9.634 -0.1766 -0.5719 -0.0318
  175SOPE   H8S19887   1.473   2.740   9.552  1.2297 -0.5273 -0.2571
  175SOPE   C2919888   1.626   2.853   9.460  0.2488  0.5431 -0.2396
  175SOPE   H9119889   1.733   2.874   9.475  0.0127  1.5289  0.1094
  175SOPE  C21019890   1.563   2.901   9.350 -0.0422  0.5128  0.2161
  175SOPE  H10119891   1.624   2.945   9.270  0.4523  0.0276  0.3295
  175SOPE  C21119892   1.418   2.908   9.324  0.2053 -0.4708 -0.3725
  175SOPE  H11R19893   1.386   2.991   9.257 -1.1081 -1.1153 -0.5760
  175SOPE  H11S19894   1.377   2.916   9.427 -0.9849 -0.9865 -0.7869
  175SOPE  C21219895   1.340   2.789   9.272  0.0920 -0.3240  0.4741
  175SOPE  H12R19896   1.233   2.814   9.285  0.5050  1.0515  1.3103
  175SOPE  H12S19897   1.361   2.705   9.342 -0.9278 -0.1265  1.0253
  175SOPE  C21319898   1.370   2.759   9.122  0.1218  0.3110  0.4578
  175SOPE  H13R19899   1.478   2.732   9.116  0.0171  0.1357 -0.9702
  175SOPE  H13S19900   1.356   2.841   9.048 -1.1604 -0.8316 -0.6037
  175SOPE  C21419901   1.285   2.639   9.066 -0.8874  0.5126 -1.0176
  175SOPE  H14R19902   1.177   2.656   9.086 -0.8250 -0.2230 -0.0030
  175SOPE  H14S19903   1.316   2.546   9.118 -0.9411 -0.9380 -3.5101
  175SOPE  C21519904   1.305   2.607   8.918 -0.0596 -0.8729  0.1356
  175SOPE  H15R19905   1.245   2.518   8.890 -1.6291 -0.0666  0.8002
  175SOPE  H15S19906   1.408   2.578   8.890 -0.6644  0.5803 -4.1208
  175SOPE  C21619907   1.270   2.728   8.822 -0.2245 -0.6721  0.3644
  175SOPE  H16R19908   1.265   2.681   8.722  1.0235  1.0540 -0.5450
  175SOPE  H16S19909   1.342   2.812   8.835 -1.2570  0.4222 -0.8173
  175SOPE  C21719910   1.135   2.793   8.844  0.2214  1.2444 -0.0957
  175SOPE  H17R19911   1.126   2.830   8.949  0.5086  1.0222  0.0080
  175SOPE  H17S19912   1.052   2.724   8.818  0.2819  1.2274 -0.2393
  175SOPE  C21819913   1.113   2.922   8.762 -0.5293 -0.9064  0.3120
  175SOPE  H18R19914   1.013   2.966   8.782  0.3166  0.3158  2.0620
  175SOPE  H18S19915   1.109   2.898   8.654 -0.1004 -1.0403  0.3250
  175SOPE  H18T19916   1.194   2.996   8.781 -0.1077 -1.3545  0.2827
  175SOPE   C3319917   2.160   2.961   9.743  0.4608  0.0640 -0.2982
  175SOPE   H3X19918   2.086   2.939   9.822  0.9394 -0.6131 -0.0304
  175SOPE   H3Y19919   2.215   2.874   9.700  2.8766  1.0595  0.6560
  175SOPE   C3419920   2.093   3.047   9.636  0.1899  0.4559  0.6696
  175SOPE   H4X19921   2.157   3.116   9.577 -0.2538  1.4840  1.3812
  175SOPE   H4Y19922   2.016   3.116   9.676  0.7438  2.9610 -2.4065
  175SOPE   C3519923   2.017   2.967   9.528 -0.1116 -0.1765  0.0947
  175SOPE   H5X19924   1.926   3.025   9.503  0.7036  1.1482  0.1449
  175SOPE   H5Y19925   1.980   2.876   9.579 -0.9123  0.4749  0.6898
  175SOPE   C3619926   2.110   2.927   9.408  0.0190  0.7530  0.4963
  175SOPE   H6X19927   2.168   2.844   9.455 -2.6727 -2.3977 -1.5821
  175SOPE   H6Y19928   2.177   3.014   9.391 -0.8621  1.2879 -0.2708
  175SOPE   C3719929   2.035   2.874   9.283 -0.6719 -0.2457  0.3193
  175SOPE   H7X19930   1.960   2.802   9.324 -1.0669  0.3742  0.7043
  175SOPE   H7Y19931   2.114   2.825   9.222 -0.2527 -0.1450  0.7753
  175SOPE   C3819932   1.972   2.986   9.202  0.0486  0.0401 -0.2313
  175SOPE   H8X19933   2.047   3.031   9.134 -1.7674 -0.5973 -2.7447
  175SOPE   H8Y19934   1.925   3.059   9.271  1.3203 -0.0611  0.7395
  175SOPE   C3919935   1.864   2.932   9.099 -0.3703 -1.2576 -0.0952
  175SOPE   H9X19936   1.836   3.010   9.025  1.6524 -2.1101 -1.7899
  175SOPE   H9Y19937   1.780   2.898   9.164  2.4940 -1.5052  3.6057
  175SOPE  C31019938   1.910   2.807   9.014 -0.5648 -0.5807  0.2033
  175SOPE  H10X19939   1.944   2.726   9.082 -0.9733 -0.5588  0.4372
  175SOPE  H10Y19940   1.993   2.831   8.945  0.4147  0.8387  1.8133
  175SOPE  C31119941   1.791   2.755   8.927  0.2222  0.2268  0.3840
  175SOPE  H11X19942   1.762   2.843   8.866 -1.6151 -0.1600  0.6485
  175SOPE  H11Y19943   1.700   2.732   8.986  1.6509 -0.8482  2.2067
  175SOPE  C31219944   1.820   2.626   8.849 -0.1484 -0.7353 -0.0038
  175SOPE  H12X19945   1.847   2.545   8.921 -0.3895 -0.2550  0.6300
  175SOPE  H12Y19946   1.905   2.647   8.781 -0.2958 -1.7835 -0.5352
  175SOPE  C31319947   1.692   2.576   8.779 -0.3036  0.6439  0.7519
  175SOPE  H13X19948   1.673   2.655   8.702 -3.9750  2.6834  3.5585
  175SOPE  H13Y19949   1.617   2.592   8.859 -0.4540 -0.3401  0.8068
  175SOPE  C31419950   1.695   2.433   8.716 -0.1006 -0.6110 -0.3726
  175SOPE  H14X19951   1.737   2.362   8.791 -0.1189  0.2036  0.4207
  175SOPE  H14Y19952   1.761   2.433   8.627  0.6136 -0.6072  0.1478
  175SOPE  C31519953   1.556   2.376   8.685  0.5560 -0.1429  0.4351
  175SOPE  H15X19954   1.480   2.444   8.640  1.3103  0.5639  0.2153
  175SOPE  H15Y19955   1.519   2.325   8.776  1.8127 -0.7432  0.6248
  175SOPE  C31619956   1.567   2.264   8.581 -0.2451  0.5455 -0.2298
  175SOPE  H16X19957   1.661   2.212   8.609  0.3396  1.2528 -0.8360
  175SOPE  H16Y19958   1.580   2.321   8.486  0.7414  0.7494  0.0201
  175SOPE  C31719959   1.446   2.171   8.598 -0.3281  0.0155  0.4928
  175SOPE  H17X19960   1.347   2.218   8.610 -2.1676 -3.5106 -0.3506
  175SOPE  H17Y19961   1.453   2.121   8.698  3.4393 -1.5370 -0.4325
  175SOPE  C31819962   1.433   2.067   8.486  0.2522 -0.2399  0.2003
  175SOPE  H18X19963   1.522   2.004   8.463  1.5740  1.1024  1.5724
  175SOPE  H18Y19964   1.406   2.124   8.395  0.4491  3.6102  2.4756
  175SOPE  H18Z19965   1.354   1.994   8.515 -0.1509 -0.6038 -1.7543
  176SOPE     N19966   3.001   2.122  10.673 -0.0293 -0.0452  1.0469
  176SOPE   HN119967   2.925   2.082  10.616  0.6031  0.0707  0.1208
  176SOPE   HN219968   3.072   2.167  10.612 -1.2749  1.4994  0.7034
  176SOPE   HN319969   3.044   2.048  10.732  0.9515  1.2939  2.0538
  176SOPE   C1219970   2.937   2.205  10.780 -0.1036  0.2010 -0.0883
  176SOPE  H12A19971   2.903   2.299  10.732  0.5178 -0.1704 -1.2863
  176SOPE  H12B19972   3.018   2.219  10.855  1.4688  0.7717 -1.8313
  176SOPE   C1119973   2.819   2.135  10.845  0.1291 -0.2534  0.2057
  176SOPE  H11A19974   2.794   2.204  10.929  0.9978  1.8570 -1.2547
  176SOPE  H11B19975   2.850   2.045  10.903 -1.8079  0.7689  2.9174
  176SOPE     P19976   2.583   2.174  10.737  0.0468 -0.0452  0.2900
  176SOPE   O1319977   2.594   2.306  10.790  0.6977  0.3497 -0.7467
  176SOPE   O1419978   2.478   2.087  10.795 -0.2059 -0.1167 -0.4255
  176SOPE   O1219979   2.719   2.099  10.741  0.1633 -0.0360  0.2431
  176SOPE   O1119980   2.557   2.184  10.584 -0.4667 -0.4853  0.5718
  176SOPE    C119981   2.546   2.063  10.504 -0.3888  0.1837  0.0158
  176SOPE    HA19982   2.556   1.974  10.571  0.7757  1.3553  1.4284
  176SOPE    HB19983   2.630   2.051  10.434  0.6169  0.4823  1.1599
  176SOPE    C219984   2.417   2.061  10.427  0.5707 -0.3425 -0.0188
  176SOPE    HS19985   2.404   1.986  10.346 -1.8767  0.4346 -0.3935
  176SOPE   O2119986   2.390   2.186  10.361  0.1338  0.2792  0.4491
  176SOPE   C2119987   2.471   2.209  10.261 -0.3918 -0.2198 -0.3542
  176SOPE   O2219988   2.559   2.139  10.214 -0.2123 -0.3632  0.4369
  176SOPE   C2219989   2.433   2.346  10.210 -1.0618  0.3682  0.4286
  176SOPE   H2R19990   2.408   2.422  10.288 -0.5955  0.2529  0.6916
  176SOPE   H2S19991   2.337   2.326  10.159 -0.7620  0.9589 -0.3692
  176SOPE    C319992   2.290   2.031  10.508  0.6508  0.5222 -0.2095
  176SOPE    HX19993   2.274   2.106  10.588 -1.6098 -0.9051  0.7268
  176SOPE    HY19994   2.317   1.939  10.563 -3.7815 -0.5774  0.2685
  176SOPE   O3119995   2.172   1.995  10.441  0.1827 -0.3794 -0.1202
  176SOPE   C3119996   2.073   2.072  10.446  0.0809 -0.4854 -0.0556
  176SOPE   O3219997   2.078   2.190  10.484  0.1091  0.7019 -0.0358
  176SOPE   C3219998   1.950   1.991  10.398  0.3199 -0.2376 -0.8066
  176SOPE   H2X19999   1.880   2.060  10.347  0.8564  0.9867  0.0803
  176SOPE   H2Y20000   1.906   1.948  10.491 -1.1826  1.4132 -0.7215
  176SOPE   C2320001   2.544   2.413  10.109 -0.3371  0.2868  0.9060
  176SOPE   H3R20002   2.644   2.415  10.158 -0.1655 -0.6508  0.6178
  176SOPE   H3S20003   2.513   2.517  10.085  1.6607  0.2717 -2.0473
  176SOPE   C2420004   2.560   2.337   9.978  0.2703  0.4510  0.1718
  176SOPE   H4R20005   2.651   2.374   9.925  1.2114 -1.1376  0.6635
  176SOPE   H4S20006   2.574   2.228   9.995 -0.6798 -0.5978 -4.9302
  176SOPE   C2520007   2.443   2.354   9.878  0.2888 -0.2651 -0.4031
  176SOPE   H5R20008   2.347   2.360   9.934 -0.3933  3.9577 -1.8486
  176SOPE   H5S20009   2.451   2.442   9.811 -2.6754  0.0525 -0.4064
  176SOPE   C2620010   2.443   2.244   9.770  0.3019  0.4617 -0.0815
  176SOPE   H6R20011   2.386   2.283   9.682  0.4702 -2.2264 -1.4379
  176SOPE   H6S20012   2.544   2.232   9.725  0.9553  0.6012  1.3433
  176SOPE   C2720013   2.376   2.110   9.806 -0.4248  0.2327 -0.4197
  176SOPE   H7R20014   2.442   2.069   9.885  1.7633  2.0490 -1.2413
  176SOPE   H7S20015   2.277   2.127   9.854  0.6002 -1.3814  2.3732
  176SOPE   C2820016   2.366   2.013   9.683  0.0153  0.2455  0.3777
  176SOPE   H8R20017   2.297   1.932   9.714  0.5931 -0.8312 -1.0719
  176SOPE   H8S20018   2.330   2.073   9.596  2.8444  1.4498 -0.0319
  176SOPE   C2920019   2.504   1.950   9.654 -0.5916  0.0688  0.0373
  176SOPE   H9120020   2.548   1.887   9.734 -0.9349  0.1801  0.3153
  176SOPE  C21020021   2.582   1.964   9.544  0.1337  0.6067  0.3656
  176SOPE  H10120022   2.679   1.914   9.536  1.8704  3.7498  0.8788
  176SOPE  C21120023   2.555   2.063   9.431  0.1304 -0.1876 -0.8152
  176SOPE  H11R20024   2.628   2.147   9.428 -0.0489 -0.0506 -1.6293
  176SOPE  H11S20025   2.454   2.109   9.430 -0.9776 -2.5697  0.1606
  176SOPE  C21220026   2.547   1.994   9.294  0.2136  1.0421  0.1937
  176SOPE  H12R20027   2.468   1.916   9.292 -0.1268  1.3945 -0.5595
  176SOPE  H12S20028   2.649   1.956   9.274  0.1942  0.3700  1.3484
  176SOPE  C21320029   2.528   2.094   9.179 -0.0731 -0.0695  0.0629
  176SOPE  H13R20030   2.619   2.149   9.146  0.3591  0.4310  2.0581
  176SOPE  H13S20031   2.449   2.167   9.208  1.2232  0.4784  2.2681
  176SOPE  C21420032   2.482   2.006   9.055 -0.3302  0.2719 -1.0206
  176SOPE  H14R20033   2.385   1.953   9.067  0.9993 -1.6830  1.4839
  176SOPE  H14S20034   2.556   1.929   9.027  0.4587  0.7749 -0.3535
  176SOPE  C21520035   2.457   2.097   8.936  0.4234 -0.5635  0.3492
  176SOPE  H15R20036   2.385   2.176   8.966 -1.5012 -1.6654 -1.2350
  176SOPE  H15S20037   2.407   2.031   8.862 -1.7732  0.7507  0.6246
  176SOPE  C21620038   2.579   2.167   8.879 -0.5235  0.0750 -0.1374
  176SOPE  H16R20039   2.664   2.097   8.876 -0.3479  0.2266  1.2560
  176SOPE  H16S20040   2.614   2.242   8.953 -0.2309 -0.3474  0.1454
  176SOPE  C21720041   2.541   2.228   8.750  0.0004  0.2082 -0.9734
  176SOPE  H17R20042   2.453   2.294   8.763 -0.6340 -0.8424  0.1568
  176SOPE  H17S20043   2.517   2.144   8.682  0.9006  0.7567 -1.9934
  176SOPE  C21820044   2.662   2.307   8.710  0.1083 -0.5522 -0.4762
  176SOPE  H18R20045   2.749   2.238   8.720 -1.6063 -2.3961  2.4050
  176SOPE  H18S20046   2.682   2.402   8.763 -0.3327 -0.1495 -1.0321
  176SOPE  H18T20047   2.661   2.332   8.602 -2.1355 -0.7400 -0.5248
  176SOPE   C3320048   1.968   1.879  10.287  0.0699 -0.7141  0.1292
  176SOPE   H3X20049   2.044   1.803  10.315 -0.3973 -0.8402  1.0810
  176SOPE   H3Y20050   2.004   1.924  10.192  2.2502 -1.5355  0.5206
  176SOPE   C3420051   1.837   1.799  10.258  1.1499  1.1473  0.5368
  176SOPE   H4X20052   1.753   1.866  10.231 -0.7764 -1.1845  0.5218
  176SOPE   H4Y20053   1.804   1.757  10.356  0.3752  1.2219  0.3126
  176SOPE   C3520054   1.865   1.685  10.167  0.4312  0.0086  0.3468
  176SOPE   H5X20055   1.947   1.625  10.212 -1.0263 -3.3909 -1.3080
  176SOPE   H5Y20056   1.914   1.708  10.070 -0.5954 -1.0909 -0.4559
  176SOPE   C3620057   1.743   1.599  10.131  0.3912 -0.1545  0.5666
  176SOPE   H6X20058   1.778   1.505  10.083  1.5856  0.2641  0.6049
  176SOPE   H6Y20059   1.684   1.656  10.056 -0.3878 -0.0971  1.2238
  176SOPE   C3720060   1.644   1.566  10.243 -0.1945 -0.1322  0.2413
  176SOPE   H7X20061   1.604   1.666  10.271 -0.3571 -0.7092  2.1274
  176SOPE   H7Y20062   1.705   1.525  10.326  0.8503  0.7518 -0.0815
  176SOPE   C3820063   1.537   1.465  10.209  0.0943 -0.8515 -0.2620
  176SOPE   H8X20064   1.477   1.453  10.302  2.2182  0.3561  1.2927
  176SOPE   H8Y20065   1.584   1.368  10.182  1.8362 -0.6720  1.9780
  176SOPE   C3920066   1.429   1.505  10.107 -0.1823  0.4321  0.6865
  176SOPE   H9X20067   1.493   1.550  10.028  3.2667 -1.4147  2.3309
  176SOPE   H9Y20068   1.350   1.574  10.145 -1.7580 -0.0767 -1.5587
  176SOPE  C31020069   1.341   1.381  10.058  0.0257 -0.1782  0.9108
  176SOPE  H10X20070   1.252   1.387  10.125 -0.3582 -0.0744  0.3950
  176SOPE  H10Y20071   1.386   1.283  10.086 -1.3345 -0.1584  3.3007
  176SOPE  C31120072   1.312   1.397   9.912  0.2086 -0.1808 -0.6546
  176SOPE  H11X20073   1.402   1.392   9.847  0.4432  2.3611 -0.5763
  176SOPE  H11Y20074   1.266   1.498   9.914  0.2587 -0.1340 -1.7137
  176SOPE  C31220075   1.202   1.307   9.863 -0.0681  0.1366 -0.3206
  176SOPE  H12X20076   1.109   1.329   9.919 -0.6540 -0.4823 -1.0577
  176SOPE  H12Y20077   1.217   1.200   9.890 -1.1959  0.4592  1.6967
  176SOPE  C31320078   1.171   1.323   9.715  0.2324 -0.3583  0.0141
  176SOPE  H13X20079   1.155   1.429   9.687  1.4823 -0.2109 -0.1635
  176SOPE  H13Y20080   1.078   1.274   9.678  0.7644  0.6517 -2.8344
  176SOPE  C31420081   1.288   1.273   9.627 -0.6210 -0.0572  0.2100
  176SOPE  H14X20082   1.295   1.162   9.634 -2.3314 -0.0670  2.1536
  176SOPE  H14Y20083   1.386   1.313   9.661  0.0521 -0.2207 -1.4673
  176SOPE  C31520084   1.283   1.316   9.480 -0.3494  0.1471 -0.4594
  176SOPE  H15X20085   1.388   1.312   9.445 -0.1069 -0.6477  0.3531
  176SOPE  H15Y20086   1.254   1.421   9.457  1.6356  0.4343 -1.8176
  176SOPE  C31620087   1.208   1.217   9.382 -0.4259  0.4325 -0.3628
  176SOPE  H16X20088   1.103   1.223   9.417 -0.5855  0.5990 -0.8684
  176SOPE  H16Y20089   1.253   1.116   9.400  0.9529  1.2616  0.9834
  176SOPE  C31720090   1.228   1.265   9.236 -0.1370 -0.2144  0.2243
  176SOPE  H17X20091   1.332   1.279   9.200 -0.1156 -0.1393  0.3143
  176SOPE  H17Y20092   1.183   1.366   9.230 -0.5633 -0.4674 -0.8907
  176SOPE  C31820093   1.157   1.185   9.127  0.1049 -0.0562  0.8130
  176SOPE  H18X20094   1.050   1.170   9.152 -0.3504  0.6888 -0.6637
  176SOPE  H18Y20095   1.210   1.087   9.130 -0.8919 -0.5849  1.9141
  176SOPE  H18Z20096   1.163   1.239   9.031 -0.0928  0.8621  1.3115
  177SOPE     N20097   2.073   5.915  11.036  0.9772  0.6812  0.8233
  177SOPE   HN120098   2.137   5.851  11.087  1.2847  0.4436  0.1494
  177SOPE   HN220099   1.974   5.894  11.062  0.9383 -0.0916  0.0864
  177SOPE   HN320100   2.073   5.899  10.933 -0.8031  0.8413  0.7712
  177SOPE   C1220101   2.127   6.051  11.079  0.4784 -0.0624  0.4005
  177SOPE  H12A20102   2.229   6.053  11.033  0.5047 -1.3793  0.3854
  177SOPE  H12B20103   2.132   6.051  11.190 -0.3814 -0.1164  0.4405
  177SOPE   C1120104   2.058   6.177  11.020 -0.1177  0.1950  0.5648
  177SOPE  H11A20105   2.088   6.172  10.913  0.8134 -1.5278  0.8852
  177SOPE  H11B20106   2.107   6.271  11.055  1.5419 -0.5365  0.2562
  177SOPE     P20107   1.803   6.116  10.955  0.5751  0.2840  0.1147
  177SOPE   O1320108   1.673   6.194  10.961 -0.2834  0.0289 -0.3259
  177SOPE   O1420109   1.803   5.973  10.990  0.4536 -0.4538  0.3108
  177SOPE   O1220110   1.916   6.181  11.046  0.3301 -0.1446  0.3989
  177SOPE   O1120111   1.855   6.126  10.815  0.1517  0.6215  0.1144
  177SOPE    C120112   1.840   6.229  10.724  0.4617 -0.1643 -0.5271
  177SOPE    HA20113   1.939   6.278  10.710  0.5344  0.1561  0.9896
  177SOPE    HB20114   1.772   6.309  10.759  0.1711 -0.8457  0.4764
  177SOPE    C220115   1.795   6.186  10.587 -0.1986 -0.3874  0.4655
  177SOPE    HS20116   1.879   6.205  10.516  0.0686 -0.5822  0.7286
  177SOPE   O2120117   1.674   6.263  10.543  0.1615 -0.0443  0.7082
  177SOPE   C2120118   1.701   6.387  10.497  0.6527 -0.1704  0.3171
  177SOPE   O2220119   1.811   6.434  10.483  0.2499  0.1331  0.3237
  177SOPE   C2220120   1.566   6.442  10.437 -0.5212  0.2634  0.0599
  177SOPE   H2R20121   1.486   6.421  10.511 -0.8245 -2.6548 -1.0186
  177SOPE   H2S20122   1.540   6.393  10.341  3.2847 -0.1129 -0.8749
  177SOPE    C320123   1.759   6.037  10.561  0.5799  0.3684  0.8089
  177SOPE    HX20124   1.660   6.021  10.610 -1.2901  0.2708 -2.8873
  177SOPE    HY20125   1.822   5.965  10.619 -1.3372 -1.5084  0.6297
  177SOPE   O3120126   1.764   5.998  10.423 -0.2555  0.2484 -0.1880
  177SOPE   C3120127   1.656   6.011  10.353  1.0841  0.4188 -0.2341
  177SOPE   O3220128   1.558   6.081  10.376 -0.3665 -0.4052  0.1824
  177SOPE   C3220129   1.666   5.893  10.245 -0.9280  0.4033  0.6092
  177SOPE   H2X20130   1.626   5.813  10.312  0.3103  1.3877  2.5921
  177SOPE   H2Y20131   1.773   5.875  10.222 -0.9348  3.1035 -1.7201
  177SOPE   C2320132   1.582   6.599  10.405 -0.1070 -0.6665  0.3021
  177SOPE   H3R20133   1.680   6.606  10.354  0.0590 -2.0282  0.3966
  177SOPE   H3S20134   1.584   6.659  10.498 -0.9419 -0.9287  0.4926
  177SOPE   C2420135   1.476   6.645  10.308  0.2423  0.5824  0.0882
  177SOPE   H4R20136   1.373   6.643  10.350  1.0019  0.2071  1.9649
  177SOPE   H4S20137   1.488   6.755  10.314 -0.7816  0.6207  1.6843
  177SOPE   C2520138   1.484   6.612  10.161  0.3035 -0.2238 -0.5345
  177SOPE   H5R20139   1.561   6.666  10.103 -0.0180  0.7523 -0.0822
  177SOPE   H5S20140   1.498   6.502  10.156  1.3786 -0.1991  1.4368
  177SOPE   C2620141   1.346   6.654  10.099  0.4554  0.0357 -0.6758
  177SOPE   H6R20142   1.265   6.611  10.162  1.9078 -0.6650  0.7596
  177SOPE   H6S20143   1.348   6.765  10.096 -0.2539  0.0201 -1.9021
  177SOPE   C2720144   1.331   6.598   9.958  0.5236  0.3213  0.0237
  177SOPE   H7R20145   1.413   6.654   9.907 -1.8881 -0.0945 -4.6432
  177SOPE   H7S20146   1.356   6.491   9.972  2.9742  0.4794 -2.6396
  177SOPE   C2820147   1.198   6.628   9.883  0.2125 -0.2890 -0.7595
  177SOPE   H8R20148   1.188   6.574   9.787  0.9376 -1.5002 -0.1507
  177SOPE   H8S20149   1.108   6.606   9.945  0.0099 -0.3264 -1.0650
  177SOPE   C2920150   1.197   6.776   9.844 -0.1468  0.3554 -0.4268
  177SOPE   H9120151   1.259   6.842   9.906 -0.5029  0.9818 -0.7320
  177SOPE  C21020152   1.109   6.832   9.766 -0.1249 -0.2075  0.8005
  177SOPE  H10120153   1.125   6.936   9.736 -1.3972  0.0502  0.9731
  177SOPE  C21120154   1.000   6.766   9.682  0.3072  0.4368  0.0012
  177SOPE  H11R20155   0.903   6.783   9.734  1.1949  0.0174  1.8171
  177SOPE  H11S20156   1.010   6.656   9.694 -1.0726  0.3100  0.0456
  177SOPE  C21220157   0.988   6.819   9.539 -0.2197  0.6847  0.3796
  177SOPE  H12R20158   1.087   6.828   9.490 -0.0857  0.4894  0.6116
  177SOPE  H12S20159   0.954   6.924   9.552  2.0316  1.3644  0.9391
  177SOPE  C21320160   0.884   6.755   9.452  1.0533  0.3681 -0.3215
  177SOPE  H13R20161   0.790   6.776   9.508  0.5543 -0.2185 -0.9329
  177SOPE  H13S20162   0.892   6.645   9.445 -1.1007  0.1235  0.5126
  177SOPE  C21420163   0.860   6.823   9.318  0.3003  0.1052 -0.6527
  177SOPE  H14R20164   0.864   6.933   9.332  0.4124  0.1849 -1.3252
  177SOPE  H14S20165   0.763   6.794   9.273  0.6386  0.2756 -1.5031
  177SOPE  C21520166   0.963   6.785   9.211  0.4844  0.5391 -0.5439
  177SOPE  H15R20167   0.978   6.675   9.215  1.4305  0.6976  0.4293
  177SOPE  H15S20168   1.068   6.817   9.230  0.2184  1.1884 -0.1373
  177SOPE  C21620169   0.921   6.839   9.070  0.7537 -0.0527 -0.2110
  177SOPE  H16R20170   0.917   6.950   9.073 -1.9098 -0.1345  1.2625
  177SOPE  H16S20171   0.818   6.803   9.047  1.2859 -1.5783 -0.3119
  177SOPE  C21720172   1.006   6.780   8.951  0.4284 -0.4515  0.1449
  177SOPE  H17R20173   0.973   6.675   8.932  1.6098 -1.1945  1.9922
  177SOPE  H17S20174   1.114   6.766   8.974  0.2229 -5.2702 -1.1794
  177SOPE  C21820175   0.985   6.861   8.825 -0.1117  0.0759 -0.2781
  177SOPE  H18R20176   1.013   6.963   8.856 -2.1988  1.1475 -1.8140
  177SOPE  H18S20177   0.879   6.869   8.794 -0.2125  2.9196  0.6817
  177SOPE  H18T20178   1.039   6.823   8.735  0.3807 -1.4357  0.6422
  177SOPE   C3320179   1.565   5.892  10.127  0.1026  0.0543 -0.0259
  177SOPE   H3X20180   1.464   5.908  10.169 -1.1649 -1.2756 -2.4344
  177SOPE   H3Y20181   1.562   5.800  10.064  2.2481  0.6513 -1.0442
  177SOPE   C3420182   1.603   5.999  10.022  0.7139 -0.2124  0.0080
  177SOPE   H4X20183   1.706   5.979   9.985  1.1053  1.5777  0.0880
  177SOPE   H4Y20184   1.603   6.101  10.066 -1.7762 -0.2148  0.0999
  177SOPE   C3520185   1.502   5.987   9.909  0.3275 -0.5650  0.1300
  177SOPE   H5X20186   1.400   6.010   9.945 -0.0332  0.9649 -1.7789
  177SOPE   H5Y20187   1.511   5.881   9.875 -2.2606 -0.9998  0.7232
  177SOPE   C3620188   1.532   6.079   9.791 -0.0876  0.3089 -0.2863
  177SOPE   H6X20189   1.473   6.038   9.707 -3.1153 -0.8382  2.3203
  177SOPE   H6Y20190   1.640   6.068   9.764  0.2674  1.7012  0.5049
  177SOPE   C3720191   1.491   6.231   9.798 -0.1474 -0.1087 -0.6114
  177SOPE   H7X20192   1.524   6.278   9.892  0.9532  0.3765 -1.2409
  177SOPE   H7Y20193   1.380   6.231   9.797 -0.1570  0.9767  0.3711
  177SOPE   C3820194   1.543   6.303   9.678 -0.0087 -0.1869 -0.2362
  177SOPE   H8X20195   1.515   6.252   9.583 -0.0843  0.1264 -0.3830
  177SOPE   H8Y20196   1.651   6.326   9.678 -0.0023 -0.2053  0.2331
  177SOPE   C3920197   1.464   6.429   9.667  0.8691 -0.0405 -0.7680
  177SOPE   H9X20198   1.486   6.501   9.749  0.0889 -0.5508 -0.0945
  177SOPE   H9Y20199   1.357   6.401   9.674  1.5890 -3.5516 -2.6627
  177SOPE  C31020200   1.483   6.490   9.526 -0.1158  0.1641 -0.1213
  177SOPE  H10X20201   1.441   6.428   9.445 -3.9380  1.7263  0.5651
  177SOPE  H10Y20202   1.594   6.489   9.523 -0.0742 -0.5272  1.0129
  177SOPE  C31120203   1.424   6.626   9.506  0.1519 -0.1991 -0.3032
  177SOPE  H11X20204   1.472   6.703   9.570 -2.7680  1.0232  0.5263
  177SOPE  H11Y20205   1.317   6.628   9.538  0.3723 -0.8090  0.4783
  177SOPE  C31220206   1.401   6.673   9.359 -0.2161  0.7902  0.0715
  177SOPE  H12X20207   1.372   6.780   9.356 -1.9848  0.3168  0.2316
  177SOPE  H12Y20208   1.314   6.611   9.329  0.9186 -1.2922  0.9756
  177SOPE  C31320209   1.519   6.639   9.267  0.4935  0.1817 -1.0331
  177SOPE  H13X20210   1.541   6.531   9.254 -1.2988 -0.3706  0.2920
  177SOPE  H13Y20211   1.607   6.698   9.300  0.6591  0.3284 -1.7353
  177SOPE  C31420212   1.491   6.700   9.123 -0.1213 -0.3618 -0.4309
  177SOPE  H14X20213   1.582   6.729   9.066 -1.0536  0.2112 -1.6339
  177SOPE  H14Y20214   1.429   6.792   9.130  1.4146  0.6728 -0.1855
  177SOPE  C31520215   1.406   6.595   9.042  0.6212 -0.1414 -0.0343
  177SOPE  H15X20216   1.379   6.634   8.941 -1.5659  1.7360  1.2335
  177SOPE  H15Y20217   1.305   6.585   9.086  0.1813 -1.6780 -1.3330
  177SOPE  C31620218   1.467   6.458   9.022  0.2086 -0.7760  0.8173
  177SOPE  H16X20219   1.470   6.405   9.119 -0.2459  0.7490  1.6749
  177SOPE  H16Y20220   1.569   6.482   8.986 -0.4524  2.1309  0.7846
  177SOPE  C31720221   1.395   6.370   8.919 -0.1175 -0.3932  0.4892
  177SOPE  H17X20222   1.284   6.378   8.919 -0.1533 -0.6995 -1.0376
  177SOPE  H17Y20223   1.413   6.263   8.941  0.9724 -0.7749 -2.1008
  177SOPE  C31820224   1.436   6.398   8.772  0.4292  1.1827  0.1613
  177SOPE  H18X20225   1.413   6.504   8.748 -3.0352  0.3329 -0.4774
  177SOPE  H18Y20226   1.374   6.337   8.704  0.8958 -1.2665  1.8674
  177SOPE  H18Z20227   1.543   6.386   8.747 -0.0723 -1.1209 -1.0087
  178SOPE     N20228   5.463   4.831  10.692  0.0869 -0.5788 -0.4549
  178SOPE   HN120229   5.443   4.886  10.606 -1.5429 -2.5826 -1.4071
  178SOPE   HN220230   5.523   4.748  10.679 -0.1426 -0.8877  0.4175
  178SOPE   HN320231   5.370   4.807  10.732 -0.0886  2.0764  0.8547
  178SOPE   C1220232   5.540   4.921  10.781 -0.0821  0.1079 -0.7337
  178SOPE  H12A20233   5.626   4.954  10.720  1.4614 -0.6769  0.9660
  178SOPE  H12B20234   5.581   4.859  10.863 -1.2437  2.6638  1.9014
  178SOPE   C1120235   5.466   5.036  10.850 -0.2057 -0.2387  0.3439
  178SOPE  H11A20236   5.551   5.093  10.893 -1.2602  1.4520  0.2576
  178SOPE  H11B20237   5.398   5.004  10.932  0.2396 -1.1660  0.3559
  178SOPE     P20238   5.371   5.261  10.750  0.1468  0.1250 -0.0351
  178SOPE   O1320239   5.347   5.299  10.891  0.4132 -0.5962  0.1588
  178SOPE   O1420240   5.273   5.287  10.642  0.6978  0.5550  0.5903
  178SOPE   O1220241   5.390   5.105  10.752 -0.4509  0.2208  0.6908
  178SOPE   O1120242   5.519   5.310  10.708  0.6784 -0.0318  0.2304
  178SOPE    C120243   5.597   5.260  10.601  0.7247  0.6424  0.8026
  178SOPE    HA20244   5.537   5.188  10.540  0.5030  1.6995 -0.2600
  178SOPE    HB20245   5.686   5.206  10.638  0.7722 -0.1498 -0.4386
  178SOPE    C220246   5.647   5.359  10.489  0.1167  0.2336 -0.4631
  178SOPE    HS20247   5.555   5.403  10.445 -1.0593  0.6266  2.3026
  178SOPE   O2120248   5.733   5.289  10.394  0.2294  0.0996  0.1390
  178SOPE   C2120249   5.656   5.241  10.292  0.5724  0.1771  0.0824
  178SOPE   O2220250   5.532   5.246  10.277 -0.1561 -0.0854  0.0387
  178SOPE   C2220251   5.748   5.178  10.199  0.1347 -0.4437  0.4170
  178SOPE   H2R20252   5.805   5.106  10.262 -1.7697 -2.2426  0.0887
  178SOPE   H2S20253   5.833   5.247  10.178  0.8055 -1.0523  1.0815
  178SOPE    C320254   5.730   5.461  10.560 -0.1195  0.3959 -0.0406
  178SOPE    HX20255   5.809   5.413  10.622  0.0426  0.0232 -0.5375
  178SOPE    HY20256   5.662   5.509  10.634 -1.1982  4.3812 -3.3968
  178SOPE   O3120257   5.783   5.567  10.476 -0.0888  0.1798 -0.3766
  178SOPE   C3120258   5.901   5.548  10.423  0.4059 -0.0516  0.2325
  178SOPE   O3220259   5.987   5.465  10.442  0.0916  0.3783 -0.3646
  178SOPE   C3220260   5.925   5.661  10.320 -0.1366  0.2135 -0.0017
  178SOPE   H2X20261   5.994   5.735  10.365 -1.3327  2.3371 -1.5661
  178SOPE   H2Y20262   5.830   5.716  10.298 -0.3907  0.0041  0.5571
  178SOPE   C2320263   5.688   5.097  10.079 -0.0822  0.8254  0.2710
  178SOPE   H3R20264   5.607   5.155  10.029  0.9791  2.1131  0.0371
  178SOPE   H3S20265   5.647   5.002  10.120  0.2371  0.1769 -0.8787
  178SOPE   C2420266   5.785   5.044   9.969 -0.0202 -0.4676  0.2116
  178SOPE   H4R20267   5.857   5.123   9.938 -1.7677  1.6307  1.3694
  178SOPE   H4S20268   5.842   4.957  10.009 -1.1394 -0.1075  2.6924
  178SOPE   C2520269   5.705   5.012   9.842  0.0260 -0.2885  1.2201
  178SOPE   H5R20270   5.638   4.924   9.858  0.1446 -0.5348  0.3803
  178SOPE   H5S20271   5.640   5.100   9.821  1.5323  0.8760  1.3163
  178SOPE   C2620272   5.794   4.986   9.721  0.5181  0.5206 -0.5717
  178SOPE   H6R20273   5.835   5.085   9.693  1.0437 -0.0188 -1.7363
  178SOPE   H6S20274   5.876   4.915   9.746  1.4703  1.0846 -2.0440
  178SOPE   C2720275   5.715   4.929   9.607  0.3316  0.1141 -0.3965
  178SOPE   H7R20276   5.661   4.835   9.634 -0.9969  0.6380 -1.1880
  178SOPE   H7S20277   5.637   5.002   9.579 -0.2112  0.0803  0.9989
  178SOPE   C2820278   5.786   4.904   9.468 -0.4690  0.2461  0.6115
  178SOPE   H8R20279   5.855   4.991   9.465 -0.4985  0.3331  2.1216
  178SOPE   H8S20280   5.858   4.820   9.475 -0.0797  0.5821  0.6136
  178SOPE   C2920281   5.712   4.893   9.335  0.6882 -0.5219 -0.1144
  178SOPE   H9120282   5.649   4.980   9.312 -1.9600 -2.4257 -0.4095
  178SOPE  C21020283   5.729   4.796   9.238 -0.3595  0.0505  0.6924
  178SOPE  H10120284   5.661   4.803   9.151 -0.6595 -0.4302  0.8857
  178SOPE  C21120285   5.830   4.680   9.235  0.4000 -0.8389  0.1410
  178SOPE  H11R20286   5.905   4.695   9.315  0.4213 -0.3982  0.0382
  178SOPE  H11S20287   5.884   4.671   9.138  1.9388 -0.7650  0.9750
  178SOPE  C21220288   5.757   4.546   9.264 -0.6108 -0.6292 -0.5198
  178SOPE  H12R20289   5.699   4.553   9.359 -1.5245  0.3060 -1.1370
  178SOPE  H12S20290   5.841   4.474   9.279 -0.2494  0.0412  0.7462
  178SOPE  C21320291   5.655   4.493   9.161  0.0145  0.1926  0.2532
  178SOPE  H13R20292   5.583   4.573   9.135 -0.7000 -0.5166  0.0413
  178SOPE  H13S20293   5.587   4.418   9.207  0.6664 -0.6513 -0.1394
  178SOPE  C21420294   5.720   4.426   9.039 -0.3157  0.9337 -0.2616
  178SOPE  H14R20295   5.675   4.330   9.006  0.1817  0.6680 -0.1537
  178SOPE  H14S20296   5.823   4.404   9.072  0.6777  1.0637 -3.2026
  178SOPE  C21520297   5.729   4.514   8.913  0.7163  0.4736 -0.6753
  178SOPE  H15R20298   5.799   4.600   8.919 -1.3306  2.1503 -0.3726
  178SOPE  H15S20299   5.634   4.556   8.875 -0.1222  0.3015  1.2122
  178SOPE  C21620300   5.787   4.422   8.805 -0.2502  0.0595  0.8800
  178SOPE  H16R20301   5.706   4.367   8.752  0.8541  0.0349 -0.8087
  178SOPE  H16S20302   5.845   4.342   8.855 -0.7357  0.1754  1.6419
  178SOPE  C21720303   5.882   4.488   8.713  0.3450  0.5348  0.6219
  178SOPE  H17R20304   5.907   4.406   8.643 -0.2837 -0.0898  1.1317
  178SOPE  H17S20305   5.976   4.524   8.761  0.9646 -1.0862  0.6310
  178SOPE  C21820306   5.817   4.593   8.629 -0.1228 -0.1834 -0.0456
  178SOPE  H18R20307   5.770   4.672   8.691 -0.2784 -2.2073  2.5128
  178SOPE  H18S20308   5.736   4.537   8.578 -0.9636  1.5110 -0.5790
  178SOPE  H18T20309   5.894   4.629   8.556  0.2595 -3.1183 -1.1722
  178SOPE   C3320310   5.988   5.616  10.182 -0.9350  0.0547 -0.3621
  178SOPE   H3X20311   6.063   5.542  10.217 -0.5056  1.1095  1.0273
  178SOPE   H3Y20312   6.042   5.701  10.134  0.3122  0.0289  0.9664
  178SOPE   C3420313   5.883   5.543  10.096  0.8027  0.4536  0.2299
  178SOPE   H4X20314   5.797   5.605  10.064  0.6136 -0.7329 -1.6713
  178SOPE   H4Y20315   5.838   5.466  10.163  2.3745  0.1370  0.9570
  178SOPE   C3520316   5.936   5.461   9.976  0.0020 -0.8406  0.2664
  178SOPE   H5X20317   6.000   5.373  10.000 -0.5491 -1.3836 -0.2118
  178SOPE   H5Y20318   5.992   5.529   9.907 -1.9435 -0.7550 -1.2842
  178SOPE   C3620319   5.827   5.410   9.874  0.4087 -0.1860 -0.6267
  178SOPE   H6X20320   5.752   5.490   9.856  0.7591  0.0094 -1.2075
  178SOPE   H6Y20321   5.768   5.323   9.911 -0.8864  0.5833 -0.8666
  178SOPE   C3720322   5.873   5.380   9.737 -0.4656 -0.0545  0.7767
  178SOPE   H7X20323   5.947   5.298   9.728 -0.0734  0.4888 -1.4501
  178SOPE   H7Y20324   5.922   5.469   9.691 -1.4648 -0.2166 -0.6380
  178SOPE   C3820325   5.758   5.354   9.631 -0.1189 -0.4337 -0.2132
  178SOPE   H8X20326   5.704   5.451   9.637  1.1004  0.1951  0.8019
  178SOPE   H8Y20327   5.683   5.275   9.655 -0.9381  0.3211 -0.2527
  178SOPE   C3920328   5.824   5.336   9.495 -0.3084  0.2966  0.8094
  178SOPE   H9X20329   5.888   5.245   9.485 -0.4094  0.0534  2.2481
  178SOPE   H9Y20330   5.880   5.424   9.459 -0.8799  0.6621  0.8164
  178SOPE  C31020331   5.706   5.300   9.399 -0.2621 -0.5574  0.8368
  178SOPE  H10X20332   5.631   5.381   9.402 -0.1965 -0.5146  1.2322
  178SOPE  H10Y20333   5.663   5.204   9.434  0.6931 -1.2694  0.1021
  178SOPE  C31120334   5.762   5.265   9.255  0.1740  0.0333  0.0807
  178SOPE  H11X20335   5.817   5.169   9.258 -0.3224 -0.2725 -0.3550
  178SOPE  H11Y20336   5.825   5.352   9.226 -2.6385  1.3596 -2.3117
  178SOPE  C31220337   5.652   5.262   9.152  0.3614 -0.1806  0.5152
  178SOPE  H12X20338   5.624   5.369   9.142 -2.8668 -0.9033  0.9953
  178SOPE  H12Y20339   5.556   5.213   9.182  1.1610 -2.1769 -0.0807
  178SOPE  C31320340   5.699   5.200   9.013 -0.0844  0.2555 -0.4655
  178SOPE  H13X20341   5.726   5.094   9.031  0.6199  0.4919 -0.1174
  178SOPE  H13Y20342   5.787   5.263   8.986  0.4338 -0.8821 -1.4928
  178SOPE  C31420343   5.594   5.209   8.895  0.2945 -0.0064  0.6849
  178SOPE  H14X20344   5.546   5.309   8.907 -1.8585 -1.0877  1.3651
  178SOPE  H14Y20345   5.515   5.136   8.920  0.4033 -0.7794 -1.1978
  178SOPE  C31520346   5.647   5.183   8.757 -0.1913 -0.1789 -0.2751
  178SOPE  H15X20347   5.705   5.089   8.755 -0.0136 -0.1946  2.5316
  178SOPE  H15Y20348   5.720   5.265   8.739 -0.9777 -0.2239 -3.9314
  178SOPE  C31620349   5.546   5.169   8.653 -0.0901 -0.9380  0.3381
  178SOPE  H16X20350   5.493   5.265   8.636  0.0192 -0.5768  1.9282
  178SOPE  H16Y20351   5.483   5.088   8.695  1.3907 -3.2822 -1.8128
  178SOPE  C31720352   5.602   5.131   8.514 -0.7389  0.0068  0.7820
  178SOPE  H17X20353   5.658   5.039   8.540 -1.5972  0.0853  3.0448
  178SOPE  H17Y20354   5.660   5.221   8.485 -1.7784  0.2013 -0.7786
  178SOPE  C31820355   5.499   5.099   8.402  0.6028 -0.3041 -0.0575
  178SOPE  H18X20356   5.425   5.178   8.380 -0.0358 -1.2791 -1.4594
  178SOPE  H18Y20357   5.440   5.011   8.434 -0.6757 -0.3878 -2.5730
  178SOPE  H18Z20358   5.548   5.074   8.305  3.3627  0.4865  1.0785
  179SOPE     N20359   4.708   5.701   6.381  0.5975 -0.6085  0.1137
  179SOPE   HN120360   4.614   5.659   6.393  1.1446 -1.1642  2.7459
  179SOPE   HN220361   4.755   5.673   6.292  0.3370  1.6324 -0.7681
  179SOPE   HN320362   4.761   5.649   6.454 -1.1509  1.2412  2.7796
  179SOPE   C1220363   4.708   5.858   6.409  0.1036  0.2917 -0.3137
  179SOPE  H12A20364   4.612   5.906   6.380  0.5009  1.0947 -0.3002
  179SOPE  H12B20365   4.787   5.896   6.341  0.8386  2.8386  1.8686
  179SOPE   C1120366   4.718   5.876   6.562  0.9548 -0.5343 -0.2267
  179SOPE  H11A20367   4.818   5.855   6.606  1.1486 -1.5043 -1.1194
  179SOPE  H11B20368   4.647   5.805   6.610  0.0465 -0.0741 -0.8850
  179SOPE     P20369   4.562   6.058   6.667 -0.0297 -0.1567  0.1611
  179SOPE   O1320370   4.462   5.949   6.660  0.2543 -0.8996  1.2355
  179SOPE   O1420371   4.523   6.191   6.608  0.0575 -0.4708  0.5249
  179SOPE   O1220372   4.696   6.019   6.589 -0.4574  0.7640  0.1999
  179SOPE   O1120373   4.601   6.078   6.813  0.1868 -0.3296  0.2558
  179SOPE    C120374   4.716   6.152   6.856  0.3314  0.4208 -1.2659
  179SOPE    HA20375   4.689   6.192   6.956 -0.6786 -0.4067 -1.1905
  179SOPE    HB20376   4.733   6.239   6.790 -0.7954  2.6313  1.2865
  179SOPE    C220377   4.854   6.074   6.872  0.4007  0.6432  0.1033
  179SOPE    HS20378   4.899   6.078   6.771  0.8729 -1.0210  0.2217
  179SOPE   O2120379   4.823   5.936   6.911  0.1395  0.0663  0.4244
  179SOPE   C2120380   4.934   5.858   6.903 -0.0125  0.8247  0.6136
  179SOPE   O2220381   5.034   5.881   6.839 -0.0638 -0.4811  0.1902
  179SOPE   C2220382   4.897   5.729   6.973 -0.8631  0.0004  0.8242
  179SOPE   H2R20383   4.973   5.650   6.955 -1.5223 -1.0623  2.5881
  179SOPE   H2S20384   4.812   5.691   6.911  0.4933 -2.0040  0.1424
  179SOPE    C320385   4.949   6.149   6.973  0.1150 -0.2615 -0.3590
  179SOPE    HX20386   4.972   6.249   6.932 -3.0964  0.9021  0.4750
  179SOPE    HY20387   5.042   6.096   7.001 -0.4494  0.0212  2.2633
  179SOPE   O3120388   4.880   6.162   7.098  0.0596  0.3804 -0.6684
  179SOPE   C3120389   4.859   6.288   7.149 -0.2796  0.2845 -0.3266
  179SOPE   O3220390   4.875   6.395   7.088  0.0889 -0.2926  0.0305
  179SOPE   C3220391   4.823   6.263   7.295 -0.3290 -0.1029 -0.3705
  179SOPE   H2X20392   4.920   6.239   7.344 -0.5444  0.8694  0.5474
  179SOPE   H2Y20393   4.747   6.182   7.304 -0.1509 -0.3261 -0.9003
  179SOPE   C2320394   4.852   5.745   7.112  0.1317 -0.6870  0.0080
  179SOPE   H3R20395   4.789   5.662   7.150 -0.5428  0.2900  1.0243
  179SOPE   H3S20396   4.796   5.838   7.132 -0.9149 -0.4485 -3.6394
  179SOPE   C2420397   4.973   5.756   7.211 -0.1014 -0.3301 -0.1880
  179SOPE   H4R20398   5.043   5.670   7.202 -0.1910 -0.3068 -1.2797
  179SOPE   H4S20399   5.034   5.841   7.175 -0.1451 -0.5647 -0.8322
  179SOPE   C2520400   4.923   5.790   7.349 -0.0147 -0.6465  0.7667
  179SOPE   H5R20401   4.893   5.896   7.336  0.1103 -0.2363  3.5228
  179SOPE   H5S20402   4.832   5.728   7.364 -0.5994 -0.1646 -0.6348
  179SOPE   C2620403   5.026   5.780   7.461 -0.3203  0.4190  0.1012
  179SOPE   H6R20404   5.061   5.675   7.463  1.0607  0.8731  0.3807
  179SOPE   H6S20405   5.113   5.846   7.443 -0.1444  0.3841  0.7857
  179SOPE   C2720406   4.967   5.812   7.596 -0.0882 -0.9360 -0.4664
  179SOPE   H7R20407   4.929   5.917   7.593  1.8293 -0.1645  1.0968
  179SOPE   H7S20408   4.880   5.747   7.620  1.2129 -1.6390  2.4722
  179SOPE   C2820409   5.071   5.792   7.711  0.9362 -0.0573 -0.1420
  179SOPE   H8R20410   5.052   5.692   7.756 -2.0284  0.8838  0.7928
  179SOPE   H8S20411   5.175   5.791   7.671  0.2461  0.6552 -1.9885
  179SOPE   C2920412   5.063   5.910   7.811 -0.1119  0.1024  0.7915
  179SOPE   H9120413   5.144   5.984   7.802 -0.6595  0.5374 -0.7615
  179SOPE  C21020414   4.978   5.909   7.910 -0.3205 -0.0526 -0.3457
  179SOPE  H10120415   4.973   5.994   7.980 -0.3639 -0.5842  0.2992
  179SOPE  C21120416   4.877   5.800   7.949  0.1787 -0.5780  0.9034
  179SOPE  H11R20417   4.923   5.700   7.937  0.7709 -0.2618  0.5220
  179SOPE  H11S20418   4.777   5.802   7.901  0.1707 -1.0409  0.9005
  179SOPE  C21220419   4.853   5.813   8.100  0.3492  0.2670  0.1372
  179SOPE  H12R20420   4.800   5.908   8.118  0.6839  0.9988 -2.5860
  179SOPE  H12S20421   4.951   5.824   8.153  1.0887  1.5487 -1.4463
  179SOPE  C21320422   4.768   5.705   8.166  0.1297  0.4763  0.5085
  179SOPE  H13R20423   4.834   5.621   8.195 -0.1331  0.1202  0.0784
  179SOPE  H13S20424   4.689   5.665   8.099  0.6502 -0.3242  0.3601
  179SOPE  C21420425   4.688   5.743   8.289 -0.1149 -0.1542  0.0948
  179SOPE  H14R20426   4.640   5.653   8.333 -1.2888 -0.3036 -1.4590
  179SOPE  H14S20427   4.600   5.801   8.253  0.3349 -0.7394 -2.0077
  179SOPE  C21520428   4.773   5.816   8.394 -0.4538 -0.2244 -0.8525
  179SOPE  H15R20429   4.806   5.915   8.356 -2.0332  0.9805  0.7981
  179SOPE  H15S20430   4.872   5.770   8.412 -0.9018 -0.6518  0.5695
  179SOPE  C21620431   4.700   5.833   8.528 -0.0967 -0.1590 -0.0436
  179SOPE  H16R20432   4.693   5.733   8.577  2.6968 -0.8017 -0.8947
  179SOPE  H16S20433   4.602   5.871   8.493  0.0988 -2.2162 -2.9573
  179SOPE  C21720434   4.769   5.928   8.629 -0.2886 -0.5044  0.3266
  179SOPE  H17R20435   4.724   5.912   8.729 -0.8742 -3.4109 -0.3553
  179SOPE  H17S20436   4.762   6.035   8.601  4.0903 -0.5782 -1.4493
  179SOPE  C21820437   4.922   5.911   8.628  0.4446 -0.6655 -0.7531
  179SOPE  H18R20438   4.965   5.957   8.536 -1.5972 -1.6529 -2.2390
  179SOPE  H18S20439   4.944   5.802   8.632 -0.8717 -1.0750 -3.4392
  179SOPE  H18T20440   4.963   5.960   8.718 -0.3112 -0.7178 -0.3812
  179SOPE   C3320441   4.763   6.382   7.371 -0.7456 -0.4329 -0.5530
  179SOPE   H3X20442   4.672   6.421   7.320 -2.5473 -4.5949 -0.7068
  179SOPE   H3Y20443   4.843   6.457   7.390 -2.3421  1.3248 -0.6375
  179SOPE   C3420444   4.724   6.336   7.514  0.4704  0.0266 -0.0020
  179SOPE   H4X20445   4.632   6.274   7.513  2.5201 -3.1313 -1.3764
  179SOPE   H4Y20446   4.686   6.429   7.562 -0.2820 -0.0607 -0.4285
  179SOPE   C3520447   4.843   6.286   7.596  0.0023 -0.1687  0.8262
  179SOPE   H5X20448   4.926   6.359   7.586 -0.2842 -0.3105 -3.7746
  179SOPE   H5Y20449   4.896   6.199   7.551  1.1888  0.5902  0.7447
  179SOPE   C3620450   4.804   6.247   7.742 -0.0001 -0.2329  1.1629
  179SOPE   H6X20451   4.870   6.168   7.783  0.6317  0.0257  0.6464
  179SOPE   H6Y20452   4.703   6.201   7.733 -0.0978  0.5595 -2.5598
  179SOPE   C3720453   4.800   6.378   7.824 -0.0128  0.0638  0.3416
  179SOPE   H7X20454   4.737   6.455   7.775  1.1838  0.2710 -0.9032
  179SOPE   H7Y20455   4.903   6.417   7.839 -0.5334  2.0975 -1.1956
  179SOPE   C3820456   4.730   6.355   7.968 -0.1958 -0.6081  0.0006
  179SOPE   H8X20457   4.637   6.301   7.940 -0.5511  0.0169 -0.0297
  179SOPE   H8Y20458   4.713   6.456   8.011 -0.5205 -0.0752 -1.3504
  179SOPE   C3920459   4.807   6.264   8.073 -0.1152  0.4084  0.1375
  179SOPE   H9X20460   4.898   6.317   8.108  0.0129 -1.5664  2.9483
  179SOPE   H9Y20461   4.830   6.168   8.022  2.3669  0.9273  0.2096
  179SOPE  C31020462   4.731   6.232   8.206 -0.4078 -0.0268  0.0730
  179SOPE  H10X20463   4.782   6.149   8.259 -0.8873 -0.9569 -0.8855
  179SOPE  H10Y20464   4.625   6.207   8.184  0.0146 -1.3554 -0.4819
  179SOPE  C31120465   4.740   6.352   8.299 -0.0355  0.0183  0.2407
  179SOPE  H11X20466   4.690   6.437   8.247 -0.5008 -1.1073 -1.2145
  179SOPE  H11Y20467   4.844   6.379   8.325 -0.1743  0.5345  0.2581
  179SOPE  C31220468   4.658   6.311   8.427  0.1091 -0.6811 -0.1067
  179SOPE  H12X20469   4.688   6.214   8.471 -0.4054 -0.3128  1.0618
  179SOPE  H12Y20470   4.553   6.298   8.393  0.0393 -3.3994  0.9740
  179SOPE  C31320471   4.672   6.408   8.545 -0.2772  0.2500  0.1986
  179SOPE  H13X20472   4.642   6.511   8.515 -1.7360  0.4609  2.2336
  179SOPE  H13Y20473   4.775   6.401   8.586  0.1741  1.9254 -0.6269
  179SOPE  C31420474   4.578   6.377   8.661 -0.5688  1.1091  0.0141
  179SOPE  H14X20475   4.605   6.275   8.697  0.9418  0.8563 -1.7442
  179SOPE  H14Y20476   4.472   6.379   8.627 -0.9705  1.6932  1.2954
  179SOPE  C31520477   4.610   6.478   8.776 -0.5138 -0.1418 -0.0961
  179SOPE  H15X20478   4.599   6.578   8.730 -3.0304 -1.7202 -3.1342
  179SOPE  H15Y20479   4.708   6.447   8.817  0.4639  2.8962 -0.0614
  179SOPE  C31620480   4.510   6.466   8.892  0.4149  1.1053 -0.4101
  179SOPE  H16X20481   4.516   6.363   8.934 -0.6874  0.0428 -2.7668
  179SOPE  H16Y20482   4.408   6.487   8.853 -0.7360 -0.8942  1.3808
  179SOPE  C31720483   4.538   6.560   9.016 -0.5100  0.8900 -0.0172
  179SOPE  H17X20484   4.542   6.667   8.985 -1.8259  0.7675 -0.6753
  179SOPE  H17Y20485   4.639   6.541   9.056 -0.7626 -0.2361  0.1126
  179SOPE  C31820486   4.443   6.541   9.133  0.8910  0.2951 -0.3428
  179SOPE  H18X20487   4.338   6.543   9.097  0.6176 -1.2848  0.2862
  179SOPE  H18Y20488   4.450   6.626   9.205 -1.7097  0.2637  0.0273
  179SOPE  H18Z20489   4.461   6.444   9.185  2.0654  0.0762 -1.1510
  180SOPE     N20490   4.170   5.907   6.576 -0.6437 -0.1223 -0.3481
  180SOPE   HN120491   4.245   5.903   6.647 -1.9634  1.7814  1.1919
  180SOPE   HN220492   4.099   5.971   6.615  0.3300 -0.8762  2.8329
  180SOPE   HN320493   4.136   5.809   6.568 -0.6687 -0.0885 -0.6825
  180SOPE   C1220494   4.243   5.940   6.443  0.5504  0.1658  0.5521
  180SOPE  H12A20495   4.313   5.856   6.421  0.7196  0.2390  0.8179
  180SOPE  H12B20496   4.302   6.031   6.464  2.5461 -0.8096 -0.6680
  180SOPE   C1120497   4.149   5.955   6.324  0.5718  0.2831  0.2473
  180SOPE  H11A20498   4.106   5.855   6.302 -1.0973  0.6642  1.7229
  180SOPE  H11B20499   4.203   6.005   6.240 -2.0166 -1.1050 -2.3140
  180SOPE     P20500   3.953   6.101   6.242  0.0926 -0.2073 -0.1220
  180SOPE   O1320501   3.950   6.004   6.128 -0.2745 -0.0825  0.6411
  180SOPE   O1420502   3.994   6.239   6.208 -0.1722  0.4901 -0.3254
  180SOPE   O1220503   4.042   6.046   6.362  0.7328  0.2482 -0.1155
  180SOPE   O1120504   3.798   6.099   6.283  0.4075  0.3218 -0.4657
  180SOPE    C120505   3.751   6.015   6.392  0.4003 -0.3109  0.5915
  180SOPE    HA20506   3.825   5.933   6.402 -0.5088 -1.2296  0.0058
  180SOPE    HB20507   3.655   5.968   6.360  1.4095 -0.6647 -2.0866
  180SOPE    C220508   3.725   6.107   6.518  0.0651  0.1593  0.8666
  180SOPE    HS20509   3.806   6.181   6.534  1.0645 -0.6734 -0.2531
  180SOPE   O2120510   3.708   6.031   6.639 -0.4537 -0.2075  0.3618
  180SOPE   C2120511   3.822   6.014   6.706  0.0980 -0.2601  0.5919
  180SOPE   O2220512   3.930   6.044   6.657  0.4362 -0.0387  0.0466
  180SOPE   C2220513   3.809   5.949   6.838 -0.3972  0.2106  0.7836
  180SOPE   H2R20514   3.840   5.844   6.822 -2.6228 -0.4106  0.3145
  180SOPE   H2S20515   3.703   5.958   6.871 -0.7586  0.4429 -0.3904
  180SOPE    C320516   3.595   6.198   6.481 -0.0475 -0.3225 -0.0996
  180SOPE    HX20517   3.519   6.140   6.424  0.0915  2.1321 -2.8688
  180SOPE    HY20518   3.631   6.270   6.405  0.7138 -0.4723  0.1125
  180SOPE   O3120519   3.547   6.267   6.601 -0.0465  0.2515 -0.0907
  180SOPE   C3120520   3.452   6.211   6.683 -0.4260  0.1365  0.0932
  180SOPE   O3220521   3.375   6.123   6.655  0.0892  0.1685  0.4513
  180SOPE   C3220522   3.464   6.279   6.819 -0.1396  0.2399 -0.4919
  180SOPE   H2X20523   3.370   6.334   6.839 -0.1525  0.6116 -1.5352
  180SOPE   H2Y20524   3.551   6.348   6.814  0.3831 -0.4710 -1.2848
  180SOPE   C2320525   3.903   6.014   6.941  0.1597 -0.6029 -0.3515
  180SOPE   H3R20526   3.884   6.123   6.950  1.3789 -0.4688  0.7036
  180SOPE   H3S20527   4.010   5.996   6.916  0.2307  0.3221 -0.7393
  180SOPE   C2420528   3.887   5.939   7.081  0.1813 -0.0028 -0.3287
  180SOPE   H4R20529   3.780   5.912   7.090  0.2704 -0.7127 -1.3017
  180SOPE   H4S20530   3.940   5.841   7.088  0.4500  0.1153 -0.7334
  180SOPE   C2520531   3.906   6.036   7.197  1.1440 -0.0642  0.2317
  180SOPE   H5R20532   4.010   6.075   7.190  0.7587  1.1202  0.9924
  180SOPE   H5S20533   3.833   6.120   7.194  0.9671 -0.2458 -1.8300
  180SOPE   C2620534   3.899   5.953   7.331  0.2705  0.5027 -0.4329
  180SOPE   H6R20535   3.792   5.928   7.350  0.8118 -1.1734  0.4404
  180SOPE   H6S20536   3.957   5.859   7.321  0.1395  0.5008 -1.2539
  180SOPE   C2720537   3.951   6.026   7.458 -0.5502  0.3202 -0.2015
  180SOPE   H7R20538   3.967   5.962   7.547 -0.1240 -1.1496 -1.3283
  180SOPE   H7S20539   4.042   6.079   7.424 -2.1678  1.7109 -2.5455
  180SOPE   C2820540   3.848   6.125   7.517  0.6067 -0.6871  0.0178
  180SOPE   H8R20541   3.809   6.183   7.431 -0.5015 -2.9510 -1.0168
  180SOPE   H8S20542   3.761   6.069   7.555  0.3918 -0.1686  0.2990
  180SOPE   C2920543   3.912   6.211   7.619  0.0125 -0.0849 -0.0485
  180SOPE   H9120544   3.946   6.308   7.579  1.5113 -0.3178  0.6589
  180SOPE  C21020545   3.923   6.177   7.752  0.0197  0.5884 -0.5350
  180SOPE  H10120546   3.955   6.245   7.832 -0.7428  0.1180  0.1826
  180SOPE  C21120547   3.867   6.055   7.826  0.7277 -0.3914  0.2418
  180SOPE  H11R20548   3.885   5.961   7.770  1.8186  0.4029 -0.7477
  180SOPE  H11S20549   3.756   6.065   7.833  0.6415 -0.3593 -1.0817
  180SOPE  C21220550   3.928   6.030   7.962  0.2067  0.7043  0.7912
  180SOPE  H12R20551   3.930   6.120   8.028  0.5990  1.2362  0.0573
  180SOPE  H12S20552   4.036   6.015   7.938 -0.3379 -0.9301 -0.6817
  180SOPE  C21320553   3.880   5.905   8.035  0.5917  0.5944 -0.2642
  180SOPE  H13R20554   3.951   5.819   8.038 -3.1333 -2.6520 -1.2095
  180SOPE  H13S20555   3.803   5.851   7.978 -0.1253  1.1721  0.1497
  180SOPE  C21420556   3.826   5.942   8.173 -0.4519 -0.0650 -0.6639
  180SOPE  H14R20557   3.740   6.012   8.167  0.1039  0.6921  0.1896
  180SOPE  H14S20558   3.900   5.988   8.241 -0.5354 -2.1122  0.8460
  180SOPE  C21520559   3.759   5.830   8.253  0.3351 -0.8242  0.2652
  180SOPE  H15R20560   3.820   5.740   8.229 -0.2572 -1.8673  2.5292
  180SOPE  H15S20561   3.659   5.800   8.218  0.5894  1.2357 -2.3833
  180SOPE  C21620562   3.751   5.855   8.408 -0.3411 -0.1123  0.6703
  180SOPE  H16R20563   3.678   5.939   8.419 -1.8561 -1.3669  0.3814
  180SOPE  H16S20564   3.849   5.882   8.452 -0.3783 -2.2614  2.1537
  180SOPE  C21720565   3.695   5.737   8.488 -0.5356 -0.0104  0.2594
  180SOPE  H17R20566   3.588   5.717   8.462 -0.1987 -3.8856  1.5632
  180SOPE  H17S20567   3.685   5.767   8.594  0.9761  0.9614  0.1428
  180SOPE  C21820568   3.770   5.607   8.476 -0.6056  0.2138  0.1499
  180SOPE  H18R20569   3.876   5.641   8.470 -1.2456  1.9037 -2.2303
  180SOPE  H18S20570   3.748   5.565   8.375  3.1258  1.6137 -1.3316
  180SOPE  H18T20571   3.758   5.545   8.568  0.1952  1.0560  0.8297
  180SOPE   C3320572   3.485   6.180   6.933 -0.4989 -0.0508  1.0988
  180SOPE   H3X20573   3.587   6.138   6.923  0.3479  2.3907 -1.1908
  180SOPE   H3Y20574   3.418   6.092   6.925 -0.1250 -0.2421  0.0933
  180SOPE   C3420575   3.472   6.257   7.059  0.0844 -0.0610 -0.6455
  180SOPE   H4X20576   3.363   6.277   7.072  0.1259  0.4438 -1.0506
  180SOPE   H4Y20577   3.521   6.356   7.058  1.2671 -0.5763  1.8108
  180SOPE   C3520578   3.513   6.176   7.177 -0.2508 -0.1627  0.6045
  180SOPE   H5X20579   3.618   6.140   7.174 -0.2298 -0.1925  1.5728
  180SOPE   H5Y20580   3.455   6.082   7.191  0.4264 -0.7307 -0.3175
  180SOPE   C3620581   3.502   6.263   7.303  0.1226  0.0211  0.1039
  180SOPE   H6X20582   3.407   6.322   7.305  0.0714 -0.0759  0.6566
  180SOPE   H6Y20583   3.592   6.328   7.306 -0.1472  0.3432  1.4310
  180SOPE   C3720584   3.493   6.191   7.438  0.2214  0.4785  0.2656
  180SOPE   H7X20585   3.580   6.126   7.460 -1.0963 -0.7631  1.9570
  180SOPE   H7Y20586   3.406   6.122   7.430  0.1838  0.6243 -0.6819
  180SOPE   C3820587   3.486   6.284   7.554  0.7848 -0.0482 -0.1385
  180SOPE   H8X20588   3.382   6.322   7.557  0.0107 -2.0908  0.3209
  180SOPE   H8Y20589   3.564   6.362   7.540  0.9882  0.1034  1.7421
  180SOPE   C3920590   3.501   6.214   7.693 -0.1940 -0.6360  0.2310
  180SOPE   H9X20591   3.605   6.175   7.689  0.3547  0.9855 -3.0767
  180SOPE   H9Y20592   3.433   6.126   7.690 -0.3136 -0.6095  1.6299
  180SOPE  C31020593   3.474   6.295   7.822  0.3827 -0.0569  0.0177
  180SOPE  H10X20594   3.367   6.327   7.827  0.4961  0.0999  1.5484
  180SOPE  H10Y20595   3.533   6.389   7.826 -1.8621  1.3381  1.6812
  180SOPE  C31120596   3.500   6.216   7.953 -0.3417  0.4467  0.2680
  180SOPE  H11X20597   3.606   6.193   7.976 -0.5208 -1.0348 -0.3544
  180SOPE  H11Y20598   3.449   6.118   7.949 -0.7065  0.6875 -1.4745
  180SOPE  C31220599   3.455   6.297   8.080  1.3335 -0.0444 -0.8742
  180SOPE  H12X20600   3.348   6.320   8.059  1.5770 -0.0027 -2.1052
  180SOPE  H12Y20601   3.515   6.390   8.092  0.9861  0.1025 -0.1878
  180SOPE  C31320602   3.469   6.212   8.212 -0.6360 -0.4902 -0.1190
  180SOPE  H13X20603   3.446   6.267   8.306  0.0099 -0.0253 -0.2316
  180SOPE  H13Y20604   3.574   6.178   8.221 -1.2740 -2.6885 -0.8144
  180SOPE  C31420605   3.368   6.094   8.215  0.5176 -0.0476  0.0577
  180SOPE  H14X20606   3.393   6.043   8.311 -1.0631  1.1708  1.1304
  180SOPE  H14Y20607   3.390   6.027   8.129 -1.3073  2.1432 -2.1857
  180SOPE  C31520608   3.217   6.123   8.193 -0.1324 -0.4608 -0.0778
  180SOPE  H15X20609   3.196   6.166   8.092 -1.8140  0.2556  0.5572
  180SOPE  H15Y20610   3.189   6.204   8.263 -0.0155 -0.9973  0.6023
  180SOPE  C31620611   3.137   5.997   8.223  0.0761  0.8877  0.0090
  180SOPE  H16X20612   3.186   5.949   8.310  3.7486  0.5611 -2.1447
  180SOPE  H16Y20613   3.141   5.920   8.144 -0.5185 -0.1774  0.9973
  180SOPE  C31720614   2.987   6.021   8.259  0.6010  0.9146 -0.0003
  180SOPE  H17X20615   2.929   6.059   8.172  1.1182  0.7773 -0.4044
  180SOPE  H17Y20616   2.982   6.104   8.333  0.1018 -0.4076  1.4955
  180SOPE  C31820617   2.932   5.892   8.312 -0.2376 -1.4059 -0.2536
  180SOPE  H18X20618   2.831   5.904   8.357  2.0095  1.0673  4.5566
  180SOPE  H18Y20619   3.002   5.854   8.390  1.8605  2.8867  0.1279
  180SOPE  H18Z20620   2.924   5.819   8.230 -1.3256 -2.5012  0.8014
  181SOPE     N20621   4.148   3.654   6.038 -0.0939 -0.0874 -0.1831
  181SOPE   HN120622   4.097   3.745   6.038 -1.7261 -0.9833 -0.9827
  181SOPE   HN220623   4.087   3.585   6.086  2.6046 -0.3264  3.0808
  181SOPE   HN320624   4.233   3.664   6.097 -0.8071  1.1194  0.6633
  181SOPE   C1220625   4.197   3.608   5.904 -0.0261 -0.6108  1.0345
  181SOPE  H12A20626   4.103   3.600   5.845 -0.9340 -2.0357  2.6252
  181SOPE  H12B20627   4.235   3.504   5.918 -0.1096 -0.9608 -1.1656
  181SOPE   C1120628   4.302   3.697   5.839 -0.2526 -0.5204  0.4666
  181SOPE  H11A20629   4.263   3.795   5.804 -1.7410 -1.1965  0.1847
  181SOPE  H11B20630   4.337   3.654   5.742  2.0784  0.5733  0.7922
  181SOPE     P20631   4.542   3.639   5.917 -0.2889  0.0844 -0.0448
  181SOPE   O1320632   4.646   3.728   5.869 -0.5817  0.2261 -0.6609
  181SOPE   O1420633   4.528   3.507   5.852  0.3842 -0.0032 -0.1061
  181SOPE   O1220634   4.409   3.719   5.928 -0.2013  0.5189  0.3904
  181SOPE   O1120635   4.566   3.607   6.070  0.7446 -0.2404 -0.5861
  181SOPE    C120636   4.665   3.510   6.101  0.2813  0.1673  0.1958
  181SOPE    HA20637   4.725   3.541   6.189  0.9966 -2.3397  0.6382
  181SOPE    HB20638   4.741   3.505   6.020 -0.2485 -0.3552 -0.2746
  181SOPE    C220639   4.600   3.377   6.138  0.5174  0.0228 -1.1222
  181SOPE    HS20640   4.541   3.352   6.047 -0.6241  2.6395 -1.1648
  181SOPE   O2120641   4.508   3.396   6.248 -0.1183 -0.1111 -0.4284
  181SOPE   C2120642   4.412   3.314   6.268  0.1350  0.1985 -0.2636
  181SOPE   O2220643   4.385   3.220   6.201 -0.0080  0.8695  0.1541
  181SOPE   C2220644   4.330   3.363   6.388 -0.2413  0.2033  0.1234
  181SOPE   H2R20645   4.271   3.452   6.359  2.1305  1.6104 -0.5697
  181SOPE   H2S20646   4.404   3.395   6.466  0.7866  0.1409 -0.8131
  181SOPE    C320647   4.706   3.274   6.180 -0.0283 -0.5269  0.2444
  181SOPE    HX20648   4.777   3.261   6.096 -1.0429  2.2476 -1.1241
  181SOPE    HY20649   4.663   3.171   6.183  1.3295 -1.3955 -4.7286
  181SOPE   O3120650   4.765   3.311   6.302  0.1702 -0.0807  0.2753
  181SOPE   C3120651   4.898   3.292   6.304 -0.5662  0.4011 -1.3299
  181SOPE   O3220652   4.970   3.225   6.230  0.1189 -0.6824  0.1968
  181SOPE   C3220653   4.963   3.355   6.428 -0.0054  0.4021 -0.8335
  181SOPE   H2X20654   4.946   3.464   6.433 -0.6762  0.2184  1.8693
  181SOPE   H2Y20655   5.073   3.342   6.423  0.1304 -0.2331  2.7941
  181SOPE   C2320656   4.243   3.251   6.438  0.7330  0.1889 -0.9589
  181SOPE   H3R20657   4.315   3.168   6.451  0.6497  0.3909  0.9395
  181SOPE   H3S20658   4.168   3.216   6.363  0.1894  0.7422 -0.6764
  181SOPE   C2420659   4.165   3.295   6.563 -0.2408 -0.2397 -0.1659
  181SOPE   H4R20660   4.158   3.406   6.562 -0.7400 -0.2496  0.9357
  181SOPE   H4S20661   4.066   3.245   6.573 -0.8236  1.4207  3.4177
  181SOPE   C2520662   4.235   3.246   6.683  0.0271 -0.8096  0.2507
  181SOPE   H5R20663   4.259   3.138   6.671 -0.1420 -0.7205 -0.8774
  181SOPE   H5S20664   4.334   3.293   6.702 -0.4719  0.6469 -0.7102
  181SOPE   C2620665   4.148   3.270   6.804  0.4696  0.9689 -0.0194
  181SOPE   H6R20666   4.141   3.380   6.814 -2.4415  0.8230  0.2325
  181SOPE   H6S20667   4.053   3.213   6.788  1.3469  0.0113 -1.8924
  181SOPE   C2720668   4.202   3.239   6.943 -0.3061  1.1119  0.0846
  181SOPE   H7R20669   4.211   3.128   6.945  1.0175  1.2223  0.5248
  181SOPE   H7S20670   4.302   3.284   6.958 -0.0503 -0.0704  2.2195
  181SOPE   C2820671   4.096   3.268   7.051  0.4206 -0.0383 -0.2546
  181SOPE   H8R20672   4.085   3.377   7.068  0.3428 -0.2186  0.9233
  181SOPE   H8S20673   3.998   3.244   7.007 -0.4416 -0.6617  1.9137
  181SOPE   C2920674   4.111   3.178   7.179 -0.3752 -0.6934  0.0759
  181SOPE   H9120675   4.157   3.081   7.155  2.8729  0.9461 -0.5821
  181SOPE  C21020676   4.095   3.215   7.306 -0.1957 -0.3715  0.0676
  181SOPE  H10120677   4.096   3.149   7.394  0.3252  0.8103  0.9686
  181SOPE  C21120678   4.055   3.356   7.342  0.0692  0.6177  0.0463
  181SOPE  H11R20679   3.944   3.350   7.330  0.0953 -0.4901  0.3140
  181SOPE  H11S20680   4.086   3.435   7.271  0.2537 -1.0388 -1.7458
  181SOPE  C21220681   4.083   3.404   7.486 -0.3488  0.2779 -0.3383
  181SOPE  H12R20682   4.192   3.407   7.508 -0.5375 -1.0648  0.8120
  181SOPE  H12S20683   4.050   3.327   7.559 -0.6390  0.6999 -0.0207
  181SOPE  C21320684   4.019   3.538   7.518  1.1885 -0.3635 -0.0776
  181SOPE  H13R20685   3.911   3.535   7.490  1.0570  0.5286  0.3035
  181SOPE  H13S20686   4.061   3.623   7.460  0.1676  0.2907  0.1266
  181SOPE  C21420687   4.045   3.575   7.662  0.2500  0.2318  0.1685
  181SOPE  H14R20688   3.989   3.670   7.667  1.4535  1.0820 -1.9713
  181SOPE  H14S20689   4.150   3.604   7.685 -0.0209  1.1095  0.2789
  181SOPE  C21520690   3.982   3.484   7.764 -1.3295 -0.0548  1.2758
  181SOPE  H15R20691   4.048   3.394   7.759  0.5362  1.2408  2.0399
  181SOPE  H15S20692   3.878   3.463   7.731 -0.2466  0.3008 -2.6024
  181SOPE  C21620693   4.007   3.560   7.895 -0.4640 -0.2178 -0.0093
  181SOPE  H16R20694   3.964   3.663   7.901  2.2543  1.0025 -0.8496
  181SOPE  H16S20695   4.117   3.565   7.908 -0.4051 -0.7342 -0.3244
  181SOPE  C21720696   3.945   3.473   8.001  0.5773  0.2632  0.1548
  181SOPE  H17R20697   3.961   3.514   8.102  2.4808  1.4717 -0.6090
  181SOPE  H17S20698   3.995   3.374   7.998  1.7592  0.7984  1.6570
  181SOPE  C21820699   3.796   3.451   7.998  0.1847  0.2246 -0.1891
  181SOPE  H18R20700   3.751   3.549   8.025  1.5076  0.1970  2.1654
  181SOPE  H18S20701   3.764   3.372   8.070  2.6017 -1.8798 -1.3460
  181SOPE  H18T20702   3.756   3.411   7.902 -1.1357 -1.7384  1.1389
  181SOPE   C3320703   4.906   3.296   6.567  0.0302  0.0192  0.7319
  181SOPE   H3X20704   4.927   3.187   6.569  2.0786  0.3970  1.0620
  181SOPE   H3Y20705   4.796   3.308   6.575  0.0744  0.6167  0.4735
  181SOPE   C3420706   4.979   3.356   6.693 -0.0494 -0.4332 -0.3651
  181SOPE   H4X20707   5.088   3.347   6.670  0.3382 -0.1752  1.2865
  181SOPE   H4Y20708   4.961   3.281   6.773 -0.8212  2.1487  1.9724
  181SOPE   C3520709   4.934   3.497   6.734 -0.4573 -0.3051  0.4906
  181SOPE   H5X20710   4.838   3.479   6.788 -1.0900 -2.6639 -1.3166
  181SOPE   H5Y20711   4.906   3.559   6.646 -1.4392 -1.0143  0.2988
  181SOPE   C3620712   5.029   3.567   6.829  0.6138 -0.2294 -0.4618
  181SOPE   H6X20713   5.131   3.572   6.785  0.1428 -0.5713 -1.5843
  181SOPE   H6Y20714   5.034   3.514   6.927  1.9069  2.5162  1.0155
  181SOPE   C3720715   4.984   3.715   6.850  0.3501  0.8595  0.2221
  181SOPE   H7X20716   4.879   3.727   6.883  0.2481  0.9299 -0.1258
  181SOPE   H7Y20717   4.987   3.750   6.745  0.1858  0.6965  0.1603
  181SOPE   C3820718   5.086   3.792   6.936  0.6506 -0.4530  0.2524
  181SOPE   H8X20719   5.076   3.899   6.910 -3.3680 -0.6869  0.5134
  181SOPE   H8Y20720   5.191   3.776   6.906  0.4610 -1.2905  0.0251
  181SOPE   C3920721   5.052   3.772   7.087  0.2688  0.1416  0.1432
  181SOPE   H9X20722   5.081   3.671   7.123  1.4209  0.7791  1.0328
  181SOPE   H9Y20723   4.943   3.790   7.091 -0.0456  0.0971 -4.5944
  181SOPE  C31020724   5.141   3.872   7.160 -0.0664  0.7846 -0.4957
  181SOPE  H10X20725   5.124   3.978   7.130 -1.5286  1.2203  1.7613
  181SOPE  H10Y20726   5.245   3.834   7.148 -0.4916 -0.8471  0.7585
  181SOPE  C31120727   5.119   3.869   7.316  0.2536  0.1276 -0.7056
  181SOPE  H11X20728   5.111   3.760   7.340  3.5194 -0.0618 -0.3124
  181SOPE  H11Y20729   5.028   3.932   7.325 -1.3714 -2.3067  0.6808
  181SOPE  C31220730   5.232   3.940   7.397 -0.1617  0.9478 -0.2098
  181SOPE  H12X20731   5.261   4.028   7.336  0.6639  0.3815 -0.6471
  181SOPE  H12Y20732   5.323   3.877   7.395 -0.3670  0.6447 -0.2659
  181SOPE  C31320733   5.176   3.979   7.538 -0.4403  0.3296  0.1099
  181SOPE  H13X20734   5.084   3.919   7.556 -1.1335  1.2723 -0.2034
  181SOPE  H13Y20735   5.149   4.087   7.543  0.0170  0.4200  0.7324
  181SOPE  C31420736   5.287   3.956   7.646  0.2215  1.0446  0.5131
  181SOPE  H14X20737   5.377   4.005   7.604  0.1033 -0.1101 -1.1444
  181SOPE  H14Y20738   5.310   3.849   7.664  2.9668  1.2159 -1.6992
  181SOPE  C31520739   5.244   4.016   7.772 -0.0933 -0.3832  0.4403
  181SOPE  H15X20740   5.153   3.966   7.811  0.5551 -1.5691  0.4517
  181SOPE  H15Y20741   5.228   4.126   7.760  0.7910 -0.4268 -1.3388
  181SOPE  C31620742   5.344   3.990   7.887 -0.9420 -0.2902  0.3873
  181SOPE  H16X20743   5.444   4.031   7.862  0.2163 -2.5338  1.1530
  181SOPE  H16Y20744   5.355   3.879   7.889  1.9271 -0.0143  1.2608
  181SOPE  C31720745   5.295   4.042   8.026 -0.2009 -0.2985 -0.1360
  181SOPE  H17X20746   5.207   3.980   8.054  1.2497 -1.5538  1.7802
  181SOPE  H17Y20747   5.268   4.150   8.020  0.4388 -0.0637  1.0827
  181SOPE  C31820748   5.396   4.022   8.136  0.4030  0.3694 -0.1627
  181SOPE  H18X20749   5.489   4.077   8.110  1.2578 -0.3710  1.2696
  181SOPE  H18Y20750   5.420   3.916   8.160  0.4156  0.5198  0.4999
  181SOPE  H18Z20751   5.358   4.061   8.233 -1.3034  0.4367 -0.8350
  182SOPE     N20752   4.244   5.091   6.350 -0.2789 -0.0461  0.6150
  182SOPE   HN120753   4.210   5.026   6.276  0.3818  1.1580 -0.7661
  182SOPE   HN220754   4.275   5.175   6.297 -1.5169  0.4546  0.6668
  182SOPE   HN320755   4.330   5.056   6.397  0.1957  0.9331  0.4931
  182SOPE   C1220756   4.135   5.145   6.449 -1.1260 -0.3019 -0.1527
  182SOPE  H12A20757   4.188   5.214   6.517  1.8151  0.2526 -2.8958
  182SOPE  H12B20758   4.092   5.060   6.507 -3.9413  2.6467  2.2699
  182SOPE   C1120759   4.034   5.226   6.368  0.0097 -0.2555  0.3606
  182SOPE  H11A20760   3.965   5.273   6.441 -0.4079 -0.8923  0.3821
  182SOPE  H11B20761   3.969   5.158   6.309 -1.3882  3.5316 -2.6959
  182SOPE     P20762   4.044   5.425   6.191  0.4761  0.3665 -0.3325
  182SOPE   O1320763   3.959   5.349   6.099  0.3721  0.3054 -0.2822
  182SOPE   O1420764   4.152   5.508   6.131  0.0330  0.3842 -0.0554
  182SOPE   O1220765   4.111   5.311   6.282  0.6317 -0.0330  0.2056
  182SOPE   O1120766   3.966   5.504   6.293 -0.2219  0.7533  0.2187
  182SOPE    C120767   3.844   5.580   6.282  0.1295  0.6755  0.1235
  182SOPE    HA20768   3.818   5.592   6.175 -0.1187  1.0620  0.2253
  182SOPE    HB20769   3.867   5.683   6.317  1.7684  0.4412 -0.2663
  182SOPE    C220770   3.729   5.514   6.356  0.7179  0.7719 -1.0524
  182SOPE    HS20771   3.650   5.590   6.377 -0.3873 -0.4265 -0.7926
  182SOPE   O2120772   3.778   5.441   6.470 -0.4070 -0.0055  0.3235
  182SOPE   C2120773   3.814   5.523   6.566 -0.7054  0.0261  0.1720
  182SOPE   O2220774   3.805   5.644   6.565  0.2930 -0.5302  0.1736
  182SOPE   C2220775   3.866   5.444   6.681 -0.1905  0.4981  0.3088
  182SOPE   H2R20776   3.976   5.436   6.672 -0.2455  1.0893 -0.9001
  182SOPE   H2S20777   3.816   5.345   6.690 -0.8018  0.5594 -1.9992
  182SOPE    C320778   3.650   5.407   6.268 -0.2233 -0.1400 -0.0779
  182SOPE    HX20779   3.722   5.325   6.249  0.7545  0.3074  1.5930
  182SOPE    HY20780   3.622   5.455   6.172 -1.4340 -0.0225  0.3219
  182SOPE   O3120781   3.532   5.370   6.336  0.3922  0.2502 -0.4473
  182SOPE   C3120782   3.474   5.257   6.293  0.5740  0.4459 -0.6625
  182SOPE   O3220783   3.515   5.187   6.200 -0.3982  0.6611 -0.4117
  182SOPE   C3220784   3.340   5.239   6.365  0.2699 -0.3874 -0.0034
  182SOPE   H2X20785   3.281   5.171   6.301 -0.5259  0.0547  0.2553
  182SOPE   H2Y20786   3.288   5.336   6.380  1.8117  0.2340  1.4889
  182SOPE   C2320787   3.850   5.526   6.811 -0.1499  0.2892 -0.4030
  182SOPE   H3R20788   3.743   5.556   6.814  0.0755  1.0258  0.1783
  182SOPE   H3S20789   3.913   5.617   6.818 -1.5331  1.5873 -3.4924
  182SOPE   C2420790   3.883   5.447   6.940 -0.0599  0.3672 -0.3095
  182SOPE   H4R20791   3.811   5.363   6.947 -1.7999  1.5587 -2.9880
  182SOPE   H4S20792   3.987   5.409   6.931  0.0457  0.4518  0.5462
  182SOPE   C2520793   3.877   5.552   7.051 -0.9093  0.4201 -0.4837
  182SOPE   H5R20794   3.960   5.625   7.047 -0.7556  0.1519 -2.8011
  182SOPE   H5S20795   3.788   5.617   7.045  0.5906  2.7287  1.4388
  182SOPE   C2620796   3.892   5.481   7.187 -0.4104  0.7210 -0.1475
  182SOPE   H6R20797   3.810   5.409   7.208  0.8408 -0.8827 -0.6208
  182SOPE   H6S20798   3.991   5.431   7.189 -1.2292 -0.9123  2.2188
  182SOPE   C2720799   3.887   5.586   7.300  0.4363 -0.3206 -0.0989
  182SOPE   H7R20800   3.970   5.660   7.291  0.5163 -0.6719 -2.7142
  182SOPE   H7S20801   3.792   5.639   7.278 -0.2767 -1.0245  1.2797
  182SOPE   C2820802   3.884   5.516   7.440 -0.3884  0.4239  0.0719
  182SOPE   H8R20803   3.857   5.581   7.526  2.3517  1.3625  0.2733
  182SOPE   H8S20804   3.813   5.431   7.446 -0.7969  0.6929 -0.9725
  182SOPE   C2920805   4.017   5.463   7.480 -0.4798 -0.3426 -0.6553
  182SOPE   H9120806   4.095   5.474   7.403 -1.2056 -0.2262 -1.3746
  182SOPE  C21020807   4.038   5.394   7.596  0.5438 -0.9911  0.5093
  182SOPE  H10120808   4.138   5.357   7.620  0.9039 -0.4156 -0.1004
  182SOPE  C21120809   3.938   5.383   7.710  0.1085 -0.3575  0.3310
  182SOPE  H11R20810   3.956   5.282   7.753 -0.0701  0.8383  3.3260
  182SOPE  H11S20811   3.833   5.393   7.675 -0.2733  3.1874  2.2245
  182SOPE  C21220812   3.964   5.492   7.810 -0.6191  0.3490 -0.3934
  182SOPE  H12R20813   4.005   5.584   7.762 -1.8864  0.2514 -1.7287
  182SOPE  H12S20814   4.048   5.466   7.878 -3.1868  0.3870  2.9069
  182SOPE  C21320815   3.842   5.538   7.897  0.6233  0.3647 -0.4239
  182SOPE  H13R20816   3.749   5.556   7.839  1.3990  2.1226 -1.1458
  182SOPE  H13S20817   3.869   5.624   7.962  0.2962  1.3725 -1.6048
  182SOPE  C21420818   3.794   5.422   7.989  0.2058  0.3445 -0.0571
  182SOPE  H14R20819   3.874   5.399   8.063 -0.2643 -1.3328 -0.0511
  182SOPE  H14S20820   3.771   5.331   7.929  2.5160 -0.0724 -0.3544
  182SOPE  C21520821   3.676   5.470   8.081  0.5086 -0.2757 -0.0095
  182SOPE  H15R20822   3.596   5.499   8.009  1.6349 -0.3722 -1.3155
  182SOPE  H15S20823   3.701   5.565   8.134 -0.9396 -0.5231  1.1658
  182SOPE  C21620824   3.621   5.373   8.186 -0.2915  0.1262  0.3343
  182SOPE  H16R20825   3.706   5.346   8.253  0.2855 -1.1223 -0.8644
  182SOPE  H16S20826   3.603   5.275   8.137  0.9171 -0.9485  1.9833
  182SOPE  C21720827   3.501   5.433   8.267  0.3050 -1.0001  0.2067
  182SOPE  H17R20828   3.521   5.537   8.301  0.4812 -1.1265  0.5041
  182SOPE  H17S20829   3.480   5.378   8.362  0.3085 -0.4080  0.5543
  182SOPE  C21820830   3.365   5.428   8.195  0.1037  0.2373 -0.0703
  182SOPE  H18R20831   3.361   5.513   8.123 -2.6893  0.5792  0.4343
  182SOPE  H18S20832   3.278   5.424   8.264 -0.9077  1.2601 -1.2617
  182SOPE  H18T20833   3.371   5.333   8.139 -1.2794  0.3332 -0.3805
  182SOPE   C3320834   3.357   5.158   6.493 -0.1962  0.0797  1.0227
  182SOPE   H3X20835   3.428   5.073   6.484 -0.8320 -0.5647  1.9522
  182SOPE   H3Y20836   3.261   5.105   6.515  0.0995 -0.2617  1.4893
  182SOPE   C3420837   3.388   5.255   6.611  0.4278 -0.2696  0.7934
  182SOPE   H4X20838   3.307   5.331   6.610 -0.7688 -1.5288  0.5391
  182SOPE   H4Y20839   3.479   5.313   6.588  0.7162 -0.9222  0.2502
  182SOPE   C3520840   3.393   5.185   6.744 -0.4642  0.1166 -0.2129
  182SOPE   H5X20841   3.462   5.098   6.749 -1.6174 -0.9311 -2.2409
  182SOPE   H5Y20842   3.295   5.133   6.751 -0.6933  0.1927 -2.6638
  182SOPE   C3620843   3.418   5.279   6.863 -0.4910  0.4023  0.1175
  182SOPE   H6X20844   3.339   5.356   6.874  0.5474  1.6097 -0.6830
  182SOPE   H6Y20845   3.512   5.336   6.847 -2.0682  2.8897 -0.6130
  182SOPE   C3720846   3.429   5.189   6.988 -1.0066 -0.5260  0.3650
  182SOPE   H7X20847   3.504   5.108   6.982  1.1387  1.4718 -0.2888
  182SOPE   H7Y20848   3.326   5.147   6.997 -1.3708  0.1000 -0.8122
  182SOPE   C3820849   3.458   5.272   7.123  0.2669  0.0922 -0.1761
  182SOPE   H8X20850   3.385   5.356   7.128 -0.1098 -0.3323  2.2106
  182SOPE   H8Y20851   3.557   5.323   7.111  0.4554 -0.4530 -0.9201
  182SOPE   C3920852   3.437   5.189   7.259 -0.0088 -0.9761 -0.0438
  182SOPE   H9X20853   3.487   5.091   7.249 -1.1857 -1.5657 -0.2050
  182SOPE   H9Y20854   3.330   5.182   7.287 -0.1403  1.8607  0.3026
  182SOPE  C31020855   3.500   5.254   7.380 -0.7379  0.5526 -0.1213
  182SOPE  H10X20856   3.447   5.351   7.394 -1.2660  0.2305  0.1369
  182SOPE  H10Y20857   3.607   5.271   7.353 -0.5200 -1.0442 -0.3110
  182SOPE  C31120858   3.476   5.189   7.514  0.1963  0.1143 -0.4618
  182SOPE  H11X20859   3.524   5.089   7.525 -1.7717 -1.0092 -1.8255
  182SOPE  H11Y20860   3.367   5.170   7.522  0.5859 -1.9692  0.3703
  182SOPE  C31220861   3.508   5.279   7.632  0.6739 -0.0748 -0.0940
  182SOPE  H12X20862   3.464   5.381   7.628  0.8618 -0.0095 -0.5024
  182SOPE  H12Y20863   3.617   5.299   7.639  1.1515 -1.1884 -3.4021
  182SOPE  C31320864   3.452   5.211   7.758  0.1372 -0.7958  0.4553
  182SOPE  H13X20865   3.350   5.182   7.725 -0.2466  2.9318 -1.9768
  182SOPE  H13Y20866   3.439   5.292   7.833  0.5117  0.5495 -0.9010
  182SOPE  C31420867   3.540   5.103   7.827  0.2122 -0.3657  0.0569
  182SOPE  H14X20868   3.638   5.152   7.845  0.7103 -1.6075  0.7943
  182SOPE  H14Y20869   3.548   5.014   7.761  0.1030 -0.6139  0.3740
  182SOPE  C31520870   3.494   5.072   7.971  0.2345  0.0853 -0.0112
  182SOPE  H15X20871   3.402   5.011   7.969  1.3259 -1.5695 -0.4011
  182SOPE  H15Y20872   3.454   5.164   8.019  0.5646  0.5585 -0.6163
  182SOPE  C31620873   3.604   4.999   8.038  0.6127  0.4046 -0.0306
  182SOPE  H16X20874   3.705   5.040   8.017  0.3491  0.0561 -2.1536
  182SOPE  H16Y20875   3.604   4.896   7.996 -3.3602  0.4164 -0.2547
  182SOPE  C31720876   3.603   4.982   8.193 -0.0107 -0.7154 -0.4811
  182SOPE  H17X20877   3.615   5.073   8.257 -1.1302 -1.3290  0.6044
  182SOPE  H17Y20878   3.693   4.921   8.216  0.3030  0.5121  1.8153
  182SOPE  C31820879   3.483   4.916   8.251  1.1306  0.1968  0.6630
  182SOPE  H18X20880   3.385   4.960   8.224  1.8172  0.6416 -1.2242
  182SOPE  H18Y20881   3.494   4.907   8.361 -0.6524 -0.3409  0.8083
  182SOPE  H18Z20882   3.476   4.822   8.192 -0.5939  0.7979 -0.1354
  183SOPE     N20883   0.450   3.007   6.347  0.0232  0.2917 -0.3470
  183SOPE   HN120884   0.420   2.987   6.444  1.6249 -1.0582 -0.1087
  183SOPE   HN220885   0.510   2.932   6.308  1.3819  1.7613 -1.1890
  183SOPE   HN320886   0.503   3.097   6.347 -1.3442  1.1251  0.2759
  183SOPE   C1220887   0.327   3.040   6.257 -0.4963  0.3740 -0.6635
  183SOPE  H12A20888   0.266   2.948   6.247  2.3454 -1.9645  2.1197
  183SOPE  H12B20889   0.375   3.069   6.162 -2.4163  0.2358 -1.6917
  183SOPE   C1120890   0.248   3.167   6.307 -0.8360  0.0668  0.0224
  183SOPE  H11A20891   0.275   3.178   6.415 -3.2121  3.4555  0.3553
  183SOPE  H11B20892   0.140   3.142   6.307 -1.4415  2.5092  1.5166
  183SOPE     P20893   0.238   3.429   6.294  0.0562  0.2185  0.5458
  183SOPE   O1320894   0.089   3.440   6.294 -0.0476  0.4292  0.3075
  183SOPE   O1420895   0.320   3.533   6.233 -0.2582 -0.0040 -0.1422
  183SOPE   O1220896   0.285   3.289   6.238 -0.1356 -0.0727  0.7569
  183SOPE   O1120897   0.288   3.408   6.440 -0.0423 -0.2828 -0.0665
  183SOPE    C120898   0.210   3.465   6.550 -0.2913  0.4036 -0.1208
  183SOPE    HA20899   0.105   3.430   6.540 -1.6340  4.4880 -1.1831
  183SOPE    HB20900   0.186   3.572   6.541  0.6205  0.5110 -1.3997
  183SOPE    C220901   0.266   3.448   6.698 -0.8483  0.0101  0.8869
  183SOPE    HS20902   0.210   3.496   6.781  0.7660  0.2219  1.8764
  183SOPE   O2120903   0.405   3.487   6.710 -0.7446 -0.3114  0.2228
  183SOPE   C2120904   0.414   3.618   6.721  0.2518 -0.0582 -1.2237
  183SOPE   O2220905   0.322   3.697   6.723  0.0486 -0.4586  0.1925
  183SOPE   C2220906   0.562   3.647   6.746  0.7953  0.3372  0.4584
  183SOPE   H2R20907   0.576   3.709   6.655  2.7567 -0.3408  0.2731
  183SOPE   H2S20908   0.617   3.551   6.735 -4.6018 -2.8011 -0.6727
  183SOPE    C320909   0.256   3.298   6.733 -0.7181 -0.5595 -0.0422
  183SOPE    HX20910   0.316   3.245   6.655  1.1773  0.5455  0.6361
  183SOPE    HY20911   0.152   3.260   6.722 -1.2254  0.5427  0.9238
  183SOPE   O3120912   0.318   3.271   6.858 -0.4574  0.4681  0.2391
  183SOPE   C3120913   0.297   3.141   6.890 -0.3013 -0.0313  0.1769
  183SOPE   O3220914   0.248   3.054   6.817  0.0276  0.4113 -0.5301
  183SOPE   C3220915   0.331   3.126   7.040 -0.0087 -0.6019  0.1262
  183SOPE   H2X20916   0.230   3.135   7.084  0.0662  2.3360 -0.2190
  183SOPE   H2Y20917   0.412   3.194   7.074  1.0367 -2.5844  1.7638
  183SOPE   C2320918   0.587   3.721   6.882 -0.0265  0.2163 -0.0734
  183SOPE   H3R20919   0.515   3.805   6.894  2.3118  2.4777 -1.5005
  183SOPE   H3S20920   0.691   3.761   6.879  0.1678 -0.4021 -3.2292
  183SOPE   C2420921   0.567   3.627   7.007 -0.3503 -0.3032 -0.1390
  183SOPE   H4R20922   0.486   3.553   6.989  1.8016 -3.2678  1.8181
  183SOPE   H4S20923   0.652   3.555   7.007  0.5940  0.7644 -1.5467
  183SOPE   C2520924   0.561   3.700   7.137  0.0410  0.0628  0.3972
  183SOPE   H5R20925   0.638   3.777   7.159 -0.5969  1.1306 -0.9745
  183SOPE   H5S20926   0.463   3.751   7.149  0.5838  0.9663  1.0195
  183SOPE   C2620927   0.566   3.607   7.257  0.4434 -0.0497 -0.4528
  183SOPE   H6R20928   0.482   3.535   7.249  1.7716 -1.8310  1.1940
  183SOPE   H6S20929   0.655   3.542   7.244  0.9908  0.6591 -0.3237
  183SOPE   C2720930   0.560   3.683   7.387  0.0480 -0.0940 -0.0350
  183SOPE   H7R20931   0.646   3.750   7.409 -1.3593  1.9170 -0.5282
  183SOPE   H7S20932   0.467   3.744   7.387  1.2371  1.7877  1.1688
  183SOPE   C2820933   0.544   3.574   7.511 -0.3820 -0.0978  0.2457
  183SOPE   H8R20934   0.479   3.621   7.588  0.9455 -0.3086  1.5044
  183SOPE   H8S20935   0.489   3.490   7.462 -0.1580  0.2262 -0.5793
  183SOPE   C2920936   0.678   3.513   7.549 -0.1157 -0.7754 -0.4554
  183SOPE   H9120937   0.749   3.486   7.470  1.3849  0.2170  0.5241
  183SOPE  C21020938   0.732   3.496   7.668 -0.1918  0.1481  0.3154
  183SOPE  H10120939   0.834   3.454   7.678 -0.4449 -0.5440 -0.0339
  183SOPE  C21120940   0.662   3.530   7.795 -0.3388 -0.0326 -0.7098
  183SOPE  H11R20941   0.587   3.451   7.819  0.8834 -0.9501  0.1999
  183SOPE  H11S20942   0.601   3.622   7.785  0.5140  0.7201  0.9049
  183SOPE  C21220943   0.749   3.547   7.923  0.7756  0.3582 -0.1876
  183SOPE  H12R20944   0.690   3.570   8.014  0.0759  0.0848 -0.5670
  183SOPE  H12S20945   0.806   3.642   7.915 -1.2563  1.5621 -0.7023
  183SOPE  C21320946   0.836   3.426   7.963  0.0552  0.2332 -0.5541
  183SOPE  H13R20947   0.914   3.409   7.886 -0.5290  0.7244 -1.2630
  183SOPE  H13S20948   0.769   3.337   7.970 -0.2587  0.6185  1.8300
  183SOPE  C21420949   0.917   3.442   8.093 -0.3922 -0.2908  0.3658
  183SOPE  H14R20950   0.842   3.480   8.167 -0.2184  3.3122 -1.1757
  183SOPE  H14S20951   0.994   3.521   8.079  0.8707 -1.4540  0.7442
  183SOPE  C21520952   0.977   3.306   8.138  0.0530  0.2821  0.7143
  183SOPE  H15R20953   1.076   3.302   8.086 -0.9957 -0.3122 -1.2664
  183SOPE  H15S20954   0.909   3.227   8.101 -1.9325  1.1726  2.4216
  183SOPE  C21620955   0.986   3.296   8.287 -0.5417 -0.7785  0.3093
  183SOPE  H16R20956   0.897   3.314   8.350  1.0887  0.1948  2.4191
  183SOPE  H16S20957   1.066   3.367   8.319 -2.7413  1.7974  0.2404
  183SOPE  C21720958   1.020   3.154   8.318  0.5503 -0.2438  0.0344
  183SOPE  H17R20959   1.117   3.141   8.266  0.0865  0.2220 -0.9496
  183SOPE  H17S20960   0.938   3.087   8.284 -1.3550  2.1935 -0.3125
  183SOPE  C21820961   1.039   3.119   8.466  0.4133 -0.4286  0.1598
  183SOPE  H18R20962   1.121   3.179   8.511 -0.1005  2.0131 -1.9998
  183SOPE  H18S20963   1.059   3.011   8.483  4.3844  0.1451 -0.5256
  183SOPE  H18T20964   0.946   3.157   8.514 -0.3322 -0.0303 -1.5702
  183SOPE   C3320965   0.393   2.982   7.065 -0.3918 -0.6022  0.4223
  183SOPE   H3X20966   0.477   2.963   6.995 -0.4524  3.1282 -0.8016
  183SOPE   H3Y20967   0.318   2.900   7.063 -0.9910 -0.0896  1.2526
  183SOPE   C3420968   0.437   2.974   7.210  0.3001  0.2195 -0.1539
  183SOPE   H4X20969   0.528   3.038   7.209 -0.3224  1.1231  0.1856
  183SOPE   H4Y20970   0.469   2.871   7.237 -0.8696 -0.2208 -0.4563
  183SOPE   C3520971   0.346   3.041   7.311 -0.3769  0.5010  0.0081
  183SOPE   H5X20972   0.251   2.990   7.342  0.9787 -1.2910  1.3308
  183SOPE   H5Y20973   0.318   3.147   7.296 -0.5755  0.3719 -0.5538
  183SOPE   C3620974   0.420   3.048   7.447 -0.0446 -0.0263  0.6090
  183SOPE   H6X20975   0.525   3.081   7.439 -0.6353  1.6544 -0.4078
  183SOPE   H6Y20976   0.430   2.945   7.488  3.2675 -0.3118 -0.7783
  183SOPE   C3720977   0.345   3.130   7.552  0.1172 -0.2047 -0.1387
  183SOPE   H7X20978   0.251   3.083   7.587 -1.0468  1.1088 -1.4505
  183SOPE   H7Y20979   0.311   3.222   7.500 -0.3550  0.4438  1.2638
  183SOPE   C3820980   0.421   3.164   7.683 -0.1866 -0.7332  0.5857
  183SOPE   H8X20981   0.345   3.222   7.740 -0.2827 -0.3451  0.0733
  183SOPE   H8Y20982   0.506   3.234   7.667 -0.6068 -0.3634 -0.0621
  183SOPE   C3920983   0.475   3.039   7.759  0.4561 -1.1391  0.1806
  183SOPE   H9X20984   0.552   3.007   7.687 -0.3225  1.2983 -1.8116
  183SOPE   H9Y20985   0.396   2.961   7.762  2.1776 -2.9876 -1.2672
  183SOPE  C31020986   0.537   3.072   7.894 -0.3489 -0.5750  0.1251
  183SOPE  H10X20987   0.591   3.169   7.892  0.6819 -1.0550  2.6939
  183SOPE  H10Y20988   0.596   2.983   7.924 -1.0141 -0.5929  1.3989
  183SOPE  C31120989   0.432   3.088   8.007 -0.4109  0.2869  0.3984
  183SOPE  H11X20990   0.379   2.991   8.016 -1.1952  0.6188 -0.5044
  183SOPE  H11Y20991   0.350   3.155   7.971 -0.2400  0.2347 -0.0942
  183SOPE  C31220992   0.487   3.133   8.140 -0.2242  0.2404 -0.5884
  183SOPE  H12X20993   0.551   3.221   8.119 -1.3509  1.1083 -0.4469
  183SOPE  H12Y20994   0.537   3.050   8.194  0.5284 -0.0432 -1.6945
  183SOPE  C31320995   0.384   3.185   8.238 -0.0711 -0.3920 -0.9256
  183SOPE  H13X20996   0.309   3.105   8.257 -0.7834  0.9918  2.4665
  183SOPE  H13Y20997   0.336   3.273   8.189  0.8030 -0.7083 -2.3898
  183SOPE  C31420998   0.441   3.242   8.368  0.1182 -0.0711 -0.5146
  183SOPE  H14X20999   0.505   3.171   8.425 -0.1844 -0.9119 -1.2150
  183SOPE  H14Y21000   0.357   3.271   8.434 -1.0990 -1.1237 -1.5925
  183SOPE  C31521001   0.536   3.365   8.348 -0.0502 -0.0852  0.0907
  183SOPE  H15X21002   0.469   3.451   8.329  0.0583  0.6006  2.6502
  183SOPE  H15Y21003   0.608   3.351   8.264  0.1305 -0.2417  0.2686
  183SOPE  C31621004   0.620   3.401   8.471  0.2661 -0.3894  0.1004
  183SOPE  H16X21005   0.679   3.312   8.501 -0.5452 -1.4241 -1.3467
  183SOPE  H16Y21006   0.559   3.413   8.563  1.5576  2.4512  0.6405
  183SOPE  C31721007   0.709   3.526   8.460 -0.0322 -0.0326  0.1282
  183SOPE  H17X21008   0.635   3.607   8.476 -1.6223 -1.1463 -1.3140
  183SOPE  H17Y21009   0.756   3.527   8.359 -2.0774 -0.3951 -0.8518
  183SOPE  C31821010   0.815   3.530   8.567 -0.8959 -0.7382  0.1080
  183SOPE  H18X21011   0.876   3.623   8.566 -1.3803 -0.1536  6.5848
  183SOPE  H18Y21012   0.891   3.449   8.555 -1.0287 -0.9580  0.7221
  183SOPE  H18Z21013   0.771   3.519   8.668 -0.4925 -0.5227  0.3084
  184SOPE     N21014   5.433   3.053   6.385  0.4715  0.2297 -0.1694
  184SOPE   HN121015   5.402   2.954   6.393 -0.4504  0.4106 -1.3817
  184SOPE   HN221016   5.386   3.107   6.309  0.1957  1.6455  0.9813
  184SOPE   HN321017   5.537   3.056   6.379  0.4836  0.8887  0.3239
  184SOPE   C1221018   5.386   3.117   6.510 -0.3690 -0.0432  0.0349
  184SOPE  H12A21019   5.432   3.057   6.592 -0.8593  0.3196  0.5819
  184SOPE  H12B21020   5.275   3.109   6.513 -0.3167 -0.6149  0.7449
  184SOPE   C1121021   5.430   3.269   6.524 -0.3822  0.0508  0.1740
  184SOPE  H11A21022   5.539   3.285   6.511 -0.5660 -1.3019 -3.9615
  184SOPE  H11B21023   5.394   3.297   6.625  0.4533 -0.5519  0.6371
  184SOPE     P21024   5.376   3.378   6.287  0.1927  0.0450 -0.3772
  184SOPE   O1321025   5.296   3.495   6.242 -0.3618 -1.0122 -0.5524
  184SOPE   O1421026   5.353   3.254   6.214  0.3482 -0.1862  0.1844
  184SOPE   O1221027   5.349   3.351   6.437  0.2520  0.6525  0.2685
  184SOPE   O1121028   5.529   3.416   6.277  0.3731 -0.2759  0.1263
  184SOPE    C121029   5.585   3.546   6.264  0.2466 -0.3717 -0.1442
  184SOPE    HA21030   5.514   3.624   6.298  0.8948  0.2906 -0.3087
  184SOPE    HB21031   5.611   3.564   6.158  0.7855  0.8223  0.1849
  184SOPE    C221032   5.722   3.561   6.340 -0.6129  0.8062 -0.2707
  184SOPE    HS21033   5.768   3.659   6.316 -1.3943  1.3159  0.2851
  184SOPE   O2121034   5.804   3.447   6.313 -0.8903 -0.0708 -0.4670
  184SOPE   C2121035   5.909   3.468   6.232 -0.6626  0.2208  0.1047
  184SOPE   O2221036   5.953   3.571   6.185 -0.7309 -0.0792  0.0710
  184SOPE   C2221037   5.972   3.330   6.212 -0.1052 -0.2696 -0.4052
  184SOPE   H2R21038   5.985   3.322   6.102 -1.7323  1.4317 -0.7300
  184SOPE   H2S21039   5.901   3.251   6.246 -0.3090  1.0278  2.2965
  184SOPE    C321040   5.689   3.568   6.490  0.0630  0.4500 -0.3552
  184SOPE    HX21041   5.639   3.471   6.509 -3.5620  2.1361 -0.7864
  184SOPE    HY21042   5.615   3.650   6.500  1.4751  1.8551 -1.1748
  184SOPE   O3121043   5.809   3.594   6.569  0.2672 -0.0872  0.3396
  184SOPE   C3121044   5.833   3.724   6.603  0.2363 -0.2609 -0.0090
  184SOPE   O3221045   5.759   3.816   6.590 -0.0130  0.0774 -0.1304
  184SOPE   C3221046   5.976   3.729   6.655  0.9951 -0.0132 -0.0071
  184SOPE   H2X21047   6.034   3.686   6.571  0.3033  3.1906 -2.2267
  184SOPE   H2Y21048   5.982   3.659   6.741  2.0706  0.4428  0.2848
  184SOPE   C2321049   6.111   3.316   6.276 -0.3532 -0.7140 -0.5935
  184SOPE   H3R21050   6.178   3.391   6.227  1.6705 -1.7764  0.4723
  184SOPE   H3S21051   6.143   3.219   6.233 -0.8309 -0.8625 -0.6171
  184SOPE   C2421052   6.128   3.307   6.425 -0.5624  0.1347  1.0621
  184SOPE   H4R21053   6.070   3.227   6.475  0.3588 -0.8911  0.5143
  184SOPE   H4S21054   6.236   3.282   6.434 -0.5040  0.9308  2.8366
  184SOPE   C2521055   6.132   3.445   6.506 -0.0410 -0.4887 -0.0084
  184SOPE   H5R21056   6.197   3.516   6.450  0.0986  0.9709  1.9733
  184SOPE   H5S21057   6.029   3.485   6.516  1.1651  3.1914 -1.6270
  184SOPE   C2621058   6.177   3.437   6.651 -0.4549  0.3465  0.0379
  184SOPE   H6R21059   6.194   3.543   6.681 -0.0544  0.4306 -0.4673
  184SOPE   H6S21060   6.107   3.391   6.723 -0.2322 -1.1546 -0.6748
  184SOPE   C2721061   6.310   3.359   6.678 -0.5027  0.2150 -0.2098
  184SOPE   H7R21062   6.293   3.257   6.639  0.6764  0.0077 -0.2151
  184SOPE   H7S21063   6.395   3.408   6.626  0.2780 -1.3798 -0.4692
  184SOPE   C2821064   6.341   3.341   6.832  0.0949 -0.7850 -0.7813
  184SOPE   H8R21065   6.267   3.274   6.881 -0.1643 -1.9911 -2.7607
  184SOPE   H8S21066   6.434   3.282   6.844  0.7381  0.6188  1.4467
  184SOPE   C2921067   6.364   3.473   6.898 -0.5650 -0.4560  0.3388
  184SOPE   H9121068   6.389   3.560   6.836 -1.1054  0.6051  1.5902
  184SOPE  C21021069   6.345   3.488   7.033 -0.3059  0.8246  0.1342
  184SOPE  H10121070   6.351   3.588   7.078 -1.5549  0.5046  1.0642
  184SOPE  C21121071   6.309   3.364   7.112  0.0536 -0.3301  0.3419
  184SOPE  H11R21072   6.391   3.289   7.109  1.4364  1.0400  2.4751
  184SOPE  H11S21073   6.215   3.315   7.078 -0.8755  0.3193  1.9046
  184SOPE  C21221074   6.288   3.383   7.264  0.4821  0.3457 -0.5882
  184SOPE  H12R21075   6.244   3.290   7.306  1.4714 -0.2810 -0.9164
  184SOPE  H12S21076   6.217   3.464   7.288 -0.3861 -0.6865  0.4006
  184SOPE  C21321077   6.416   3.405   7.342 -0.3547 -0.2725  0.0674
  184SOPE  H13R21078   6.452   3.505   7.310 -1.7022 -0.2757 -1.4817
  184SOPE  H13S21079   6.483   3.324   7.307 -0.3577  0.2547 -1.1772
  184SOPE  C21421080   6.404   3.402   7.500  0.2053  0.2945  0.4168
  184SOPE  H14R21081   6.505   3.422   7.541  0.2216  2.5712 -0.6488
  184SOPE  H14S21082   6.382   3.297   7.527 -1.8277  0.6214  0.0990
  184SOPE  C21521083   6.293   3.487   7.557 -1.5922 -0.7682  0.2818
  184SOPE  H15R21084   6.191   3.467   7.517 -1.1577 -0.5228 -0.9884
  184SOPE  H15S21085   6.321   3.592   7.534 -0.0039 -0.8734  1.5938
  184SOPE  C21621086   6.298   3.481   7.713  0.2012  0.4332  0.4728
  184SOPE  H16R21087   6.406   3.493   7.739  0.2685 -0.2581  0.5440
  184SOPE  H16S21088   6.262   3.380   7.744 -1.1157  1.0615  0.9771
  184SOPE  C21721089   6.206   3.583   7.780 -0.7367  0.1988  0.5730
  184SOPE  H17R21090   6.100   3.568   7.750 -1.1993  2.6219  0.8706
  184SOPE  H17S21091   6.230   3.685   7.743  0.0028 -0.4128 -0.6495
  184SOPE  C21821092   6.208   3.571   7.928  0.1475 -0.0769 -0.1522
  184SOPE  H18R21093   6.166   3.474   7.962  0.1267 -0.2586 -0.6914
  184SOPE  H18S21094   6.137   3.638   7.981  2.6850  1.1739  1.7632
  184SOPE  H18T21095   6.304   3.584   7.982  1.2798 -1.7447 -1.7381
  184SOPE   C3321096   6.022   3.866   6.694 -0.0765 -1.5828  0.7536
  184SOPE   H3X21097   5.993   3.947   6.623  0.3507 -0.2106  2.1260
  184SOPE   H3Y21098   6.133   3.870   6.691 -0.1631  0.8935 -0.5047
  184SOPE   C3421099   5.970   3.903   6.840 -0.3407  0.1743 -0.6636
  184SOPE   H4X21100   5.860   3.890   6.842 -0.3641  0.2949 -1.1771
  184SOPE   H4Y21101   5.998   4.010   6.851 -0.7182 -0.0312  3.0678
  184SOPE   C3521102   6.030   3.824   6.959 -0.0995 -0.2949 -0.3519
  184SOPE   H5X21103   6.134   3.790   6.942  0.0596  0.4006 -0.7891
  184SOPE   H5Y21104   5.973   3.730   6.973  0.6438 -0.6216  0.5039
  184SOPE   C3621105   6.031   3.914   7.092 -0.5453 -0.4575 -0.6015
  184SOPE   H6X21106   5.926   3.940   7.114 -1.0361 -1.0601 -2.1676
  184SOPE   H6Y21107   6.104   3.998   7.088 -0.3447 -0.6378 -0.7747
  184SOPE   C3721108   6.091   3.838   7.221  0.9516 -0.4903 -0.1957
  184SOPE   H7X21109   6.195   3.874   7.232  0.6848  0.2932 -0.2005
  184SOPE   H7Y21110   6.090   3.728   7.205 -1.3358 -0.7119  1.2162
  184SOPE   C3821111   6.000   3.866   7.338  0.2618 -0.3500 -0.1537
  184SOPE   H8X21112   5.892   3.865   7.312  0.4300 -1.3984 -0.8411
  184SOPE   H8Y21113   6.010   3.974   7.364  0.7096  0.2001 -2.4748
  184SOPE   C3921114   6.040   3.773   7.457 -0.3784  0.0896 -1.0456
  184SOPE   H9X21115   6.144   3.796   7.489 -1.1005 -0.7212  1.9694
  184SOPE   H9Y21116   6.020   3.669   7.421  0.6422 -0.7503  0.7515
  184SOPE  C31021117   5.955   3.788   7.587  0.2200 -0.4226  0.3394
  184SOPE  H10X21118   5.972   3.700   7.653  3.4904 -0.4195 -0.4359
  184SOPE  H10Y21119   5.851   3.783   7.548  0.8133  1.4174 -1.5421
  184SOPE  C31121120   5.947   3.920   7.664 -0.8337 -0.2923  0.4526
  184SOPE  H11X21121   5.922   4.002   7.594  1.0315  0.7921  1.0124
  184SOPE  H11Y21122   6.049   3.948   7.700 -0.2093 -2.0253  0.0750
  184SOPE  C31221123   5.856   3.900   7.791  1.2758  0.3380  0.3727
  184SOPE  H12X21124   5.772   3.829   7.771  3.7010 -3.0089  1.6051
  184SOPE  H12Y21125   5.823   4.003   7.816  1.1627  0.7664 -1.4705
  184SOPE  C31321126   5.936   3.855   7.913 -0.1871 -0.0758  0.1124
  184SOPE  H13X21127   5.990   3.948   7.943  0.2374  0.3395 -1.8732
  184SOPE  H13Y21128   6.017   3.783   7.887  2.0147  2.1897  0.4197
  184SOPE  C31421129   5.847   3.803   8.023 -0.3787  0.2320  0.2159
  184SOPE  H14X21130   5.791   3.714   7.987  0.1423 -0.3442  0.8209
  184SOPE  H14Y21131   5.774   3.885   8.042  1.0479  1.3655  0.9731
  184SOPE  C31521132   5.919   3.763   8.149 -0.4875 -1.2425  0.1787
  184SOPE  H15X21133   5.992   3.835   8.192  0.0715  0.6050 -3.6338
  184SOPE  H15Y21134   5.988   3.678   8.129  0.5551 -0.0211 -1.5456
  184SOPE  C31621135   5.808   3.743   8.245 -0.6438 -0.1672  0.3906
  184SOPE  H16X21136   5.728   3.674   8.211 -0.0648 -0.0417 -1.2798
  184SOPE  H16Y21137   5.755   3.839   8.264  2.1628  1.3237  1.0887
  184SOPE  C31721138   5.841   3.710   8.397 -0.3209  0.1236  0.2816
  184SOPE  H17X21139   5.907   3.620   8.402 -0.4908  0.0232  0.7971
  184SOPE  H17Y21140   5.744   3.697   8.450 -0.0257  0.1451  0.8282
  184SOPE  C31821141   5.924   3.820   8.461 -0.4997  0.1395 -0.3943
  184SOPE  H18X21142   5.865   3.914   8.457 -2.5203 -1.1098 -0.3357
  184SOPE  H18Y21143   6.023   3.832   8.411 -0.8059  1.0494 -0.7944
  184SOPE  H18Z21144   5.937   3.813   8.571 -0.8908  1.4375 -0.2535
  185SAPI   C1221145   1.580   1.068  11.031 -0.4065 -0.0788  0.0614
  185SAPI    H221146   1.513   1.024  11.108  1.3098 -2.5128  0.2180
  185SAPI    O221147   1.512   1.183  10.978  0.7136 -0.0111  0.4522
  185SAPI   HO221148   1.500   1.251  11.044  0.2255 -0.3150  0.6758
  185SAPI   C1321149   1.711   1.112  11.093  0.2591 -0.0640  0.1838
  185SAPI    H321150   1.758   1.023  11.140  0.0198  0.3423  1.1918
  185SAPI    O321151   1.694   1.204  11.196  0.0825 -0.0210  0.0224
  185SAPI   HO321152   1.654   1.284  11.160 -1.2995 -0.3639  0.7663
  185SAPI   C1421153   1.813   1.169  10.985  0.7327 -0.0026  0.2779
  185SAPI    H421154   1.770   1.258  10.935 -1.6080 -0.8688  0.7018
  185SAPI    O421155   1.940   1.196  11.050  0.3110  1.2500  0.4616
  185SAPI   HO421156   1.969   1.286  11.034 -0.4284  1.5086  0.5407
  185SAPI   C1521157   1.842   1.062  10.882 -0.6657  0.3127 -0.2413
  185SAPI    H521158   1.894   0.976  10.928  0.0813  0.4448 -0.8143
  185SAPI    O521159   1.933   1.110  10.778  0.3058 -0.0877  0.3119
  185SAPI   HO521160   1.900   1.191  10.739 -0.6736  0.7123  2.6912
  185SAPI   C1621161   1.714   1.012  10.820 -0.0854 -0.0367  0.4591
  185SAPI    H621162   1.662   1.097  10.771  0.0274 -1.7033 -2.7051
  185SAPI    O621163   1.736   0.905  10.729 -0.0967 -0.1403 -0.5250
  185SAPI   HO621164   1.659   0.847  10.731  0.0898 -0.4854 -2.1380
  185SAPI   C1121165   1.612   0.961  10.931 -0.2236 -1.3753  0.1742
  185SAPI    H121166   1.665   0.882  10.989 -2.5014 -3.3361 -0.3509
  185SAPI     P21167   1.447   0.753  10.866  0.0765  0.5082 -0.2376
  185SAPI   O1321168   1.309   0.735  10.829  0.5006  0.1666 -0.3899
  185SAPI   O1421169   1.484   0.677  10.985  0.2967 -0.4970 -0.2205
  185SAPI   O1221170   1.484   0.913  10.885 -0.1352 -0.4230  0.2815
  185SAPI   O1121171   1.537   0.713  10.745  0.2759  0.2132 -0.1233
  185SAPI    C121172   1.586   0.578  10.748  0.1882  0.1388  0.2789
  185SAPI    HA21173   1.687   0.566  10.792  0.1509 -1.0237  0.0482
  185SAPI    HB21174   1.520   0.511  10.807 -0.6907 -0.3506 -1.2244
  185SAPI    C221175   1.566   0.521  10.607 -0.1121 -0.5034  0.0355
  185SAPI    HS21176   1.620   0.424  10.612  0.0615 -0.3770  0.5700
  185SAPI   O2121177   1.627   0.607  10.512 -0.7420 -0.0579 -0.5129
  185SAPI   C2121178   1.758   0.616  10.518  0.5005  0.1794  0.9288
  185SAPI   O2221179   1.834   0.542  10.576 -0.1341  0.1776  0.2312
  185SAPI   C2221180   1.812   0.726  10.419 -0.8349  0.2758  0.2101
  185SAPI   H2R21181   1.747   0.813  10.441  0.8560  1.5852  0.1724
  185SAPI   H2S21182   1.914   0.756  10.454 -0.8429 -0.2151  0.6518
  185SAPI    C321183   1.418   0.497  10.578 -0.2957 -0.1311 -1.1123
  185SAPI    HX21184   1.370   0.597  10.580  0.2794  0.1244  0.4932
  185SAPI    HY21185   1.366   0.441  10.659 -4.7825  1.5977 -2.5939
  185SAPI   O3121186   1.394   0.435  10.451 -0.0323 -0.0269  0.0089
  185SAPI   C3121187   1.408   0.310  10.450 -0.4454 -0.3635  0.0233
  185SAPI   O3221188   1.437   0.243  10.546  0.3128 -0.4594 -0.4381
  185SAPI   C3221189   1.386   0.251  10.307 -0.1506  0.3011  0.6679
  185SAPI   H2X21190   1.310   0.170  10.314  0.5087 -0.3772  0.0929
  185SAPI   H2Y21191   1.481   0.204  10.274 -1.3374 -2.0128  0.3791
  185SAPI   C2321192   1.824   0.684  10.270 -0.6133 -0.2113 -0.2592
  185SAPI   H3R21193   1.722   0.698  10.228 -0.7180  2.5606  0.8047
  185SAPI   H3S21194   1.860   0.579  10.266 -0.6337 -0.2217 -0.1710
  185SAPI   C2421195   1.913   0.765  10.175 -0.4256  0.6405  0.5483
  185SAPI   H4R21196   1.877   0.870  10.172 -0.9933  0.4313 -0.0956
  185SAPI   H4S21197   1.901   0.718  10.075 -0.5905  1.0357  0.3798
  185SAPI   C2521198   2.057   0.742  10.206  0.2480 -0.0165 -0.5786
  185SAPI   H5R21199   2.088   0.779  10.305 -2.5616  2.0600 -0.4125
  185SAPI   C2621200   2.147   0.693  10.116 -0.0613  0.7227  0.7336
  185SAPI   H6R21201   2.254   0.692  10.140 -0.0145  1.3793  0.5602
  185SAPI   C2721202   2.121   0.642   9.977  1.0008  0.0925 -0.1344
  185SAPI   H7R21203   2.030   0.580   9.967 -0.0260  1.6106 -0.3988
  185SAPI   H7S21204   2.207   0.579   9.949 -0.3816 -1.7807 -0.2468
  185SAPI   C2821205   2.124   0.768   9.894 -0.5647  0.3172 -0.2639
  185SAPI   H8R21206   2.173   0.859   9.934 -0.8757 -0.5227  2.1201
  185SAPI   C2921207   2.071   0.782   9.769 -0.5287  1.1764  0.3141
  185SAPI   H9R21208   2.090   0.881   9.725  2.5500 -0.0819 -1.3502
  185SAPI  C21021209   1.999   0.681   9.680 -0.0265 -0.3043  0.3414
  185SAPI  H10R21210   1.951   0.741   9.600 -0.3849 -1.3985 -0.2826
  185SAPI  H10S21211   1.914   0.640   9.738 -0.9728 -0.2063 -0.9651
  185SAPI  C21121212   2.087   0.570   9.621 -0.7247 -0.1942 -0.3057
  185SAPI  H11R21213   2.119   0.497   9.696  0.7755  3.3727  2.6777
  185SAPI  C21221214   2.119   0.555   9.488 -0.3850 -0.9205  0.4904
  185SAPI  H12R21215   2.172   0.462   9.462  0.2248 -1.9839  5.0564
  185SAPI  C21321216   2.072   0.640   9.378  0.1134  0.0685  0.0893
  185SAPI  H13R21217   2.063   0.749   9.398 -2.7141  0.4007 -2.4938
  185SAPI  H13S21218   1.969   0.606   9.355 -0.1202 -0.5394  1.9679
  185SAPI  C21421219   2.158   0.616   9.255  0.4507 -0.7754  0.3086
  185SAPI  H14R21220   2.249   0.677   9.248  0.1159  0.0124  2.4012
  185SAPI  C21521221   2.133   0.536   9.147 -0.0118 -0.4686  0.3980
  185SAPI  H15R21222   2.196   0.545   9.057 -1.9876 -2.8555 -1.2710
  185SAPI  C21621223   2.009   0.449   9.133 -0.3467 -0.0690 -0.1849
  185SAPI  H16R21224   1.958   0.437   9.231  2.0969  0.0027  1.1501
  185SAPI  H16S21225   2.045   0.344   9.124  1.5003  0.3590  1.6723
  185SAPI  C21721226   1.908   0.474   9.022 -0.0624  0.2541 -0.3537
  185SAPI  H17R21227   1.954   0.453   8.923  0.6187 -0.0565  0.0322
  185SAPI  H17S21228   1.878   0.581   9.011  1.2392  0.7559  0.9581
  185SAPI  C21821229   1.786   0.377   9.032  0.4335  0.6478  0.1334
  185SAPI  H18R21230   1.696   0.413   8.978 -0.8073 -0.4118  1.4537
  185SAPI  H18S21231   1.754   0.371   9.138 -2.9358 -0.4496 -0.8620
  185SAPI  C21921232   1.818   0.228   8.994 -0.6119 -0.0371 -0.9298
  185SAPI  H19R21233   1.733   0.157   9.005  2.3602 -3.5019  0.8251
  185SAPI  H19S21234   1.894   0.188   9.064  0.2665 -0.8946 -2.3399
  185SAPI  C22021235   1.876   0.209   8.853  0.0887 -0.8999 -0.6388
  185SAPI  H20R21236   1.895   0.102   8.829  1.3969 -1.6225  3.2077
  185SAPI  H20S21237   1.977   0.255   8.856 -0.8017  1.0036  1.5034
  185SAPI  H20T21238   1.812   0.255   8.775 -2.1640 -0.6720  1.3136
  185SAPI   C3321239   1.339   0.352  10.197  0.4897  0.7398 -0.0931
  185SAPI   H3X21240   1.421   0.425  10.212 -0.6575  1.7586  1.3657
  185SAPI   H3Y21241   1.242   0.383  10.242  0.8112 -2.0670  2.6866
  185SAPI   C3421242   1.345   0.293  10.053 -0.1914  0.1725 -0.0968
  185SAPI   H4X21243   1.248   0.260  10.009 -0.1527 -1.5451  1.0447
  185SAPI   H4Y21244   1.405   0.200  10.060 -1.4765 -0.6482  0.0898
  185SAPI   C3521245   1.417   0.379   9.951 -0.4587 -0.3323  0.0298
  185SAPI   H5X21246   1.523   0.368   9.984 -0.0673  1.0542 -0.7141
  185SAPI   H5Y21247   1.396   0.488   9.960  2.3474  0.2173  0.5799
  185SAPI   C3621248   1.408   0.328   9.812  0.5217  0.3910  0.1047
  185SAPI   H6X21249   1.300   0.330   9.785 -0.4010 -1.5650  3.3736
  185SAPI   H6Y21250   1.445   0.223   9.808  0.6838  0.4767 -0.6912
  185SAPI   C3721251   1.480   0.419   9.711 -0.1494  0.6802  0.3022
  185SAPI   H7X21252   1.591   0.415   9.722 -0.0734 -3.9497 -0.8001
  185SAPI   H7Y21253   1.440   0.521   9.725  2.3691  1.4317  2.4803
  185SAPI   C3821254   1.453   0.365   9.570 -0.5647  0.3220 -0.1906
  185SAPI   H8X21255   1.450   0.255   9.582  4.4187  0.2624  1.8844
  185SAPI   H8Y21256   1.537   0.396   9.504 -1.9693  0.6467 -1.8827
  185SAPI   C3921257   1.320   0.426   9.517  0.4258  0.3232  0.3755
  185SAPI   H9X21258   1.329   0.532   9.485  1.3144  0.0257 -0.3922
  185SAPI   H9Y21259   1.243   0.425   9.596 -0.0336  1.0151 -0.0623
  185SAPI  C31021260   1.263   0.339   9.403  0.2063 -0.0733  0.0747
  185SAPI  H10X21261   1.168   0.392   9.378 -0.2974 -1.4273 -0.8960
  185SAPI  H10Y21262   1.239   0.236   9.436  2.5707 -1.1026 -1.3041
  185SAPI  C31121263   1.350   0.328   9.281 -0.4305 -0.0856  0.3063
  185SAPI  H11X21264   1.448   0.282   9.305  0.1094  0.8247 -0.1349
  185SAPI  H11Y21265   1.373   0.432   9.249 -2.0784  0.5299  1.0565
  185SAPI  C31221266   1.281   0.272   9.154 -0.3364 -0.4246 -0.0220
  185SAPI  H12X21267   1.183   0.325   9.147 -0.4429 -0.5499  0.4743
  185SAPI  H12Y21268   1.273   0.166   9.187 -0.0904 -0.6014 -0.5287
  185SAPI  C31321269   1.378   0.286   9.032  0.3754  0.4261  0.1184
  185SAPI  H13X21270   1.474   0.232   9.046  1.5011  1.9734 -1.4251
  185SAPI  H13Y21271   1.407   0.389   9.002 -1.7329 -0.0002 -3.7842
  185SAPI  C31421272   1.322   0.227   8.905 -0.1740  0.2527  0.2610
  185SAPI  H14X21273   1.233   0.284   8.870  1.4371  0.7762 -3.1224
  185SAPI  H14Y21274   1.284   0.126   8.933  1.8392 -0.1784  1.5186
  185SAPI  C31521275   1.421   0.210   8.783 -0.0772  0.3566  0.3674
  185SAPI  H15X21276   1.495   0.137   8.821  1.3705  1.4936 -0.2456
  185SAPI  H15Y21277   1.483   0.299   8.758  2.0058 -1.0343  0.5359
  185SAPI  C31621278   1.364   0.129   8.666  0.0965  0.7829  0.1678
  185SAPI  H16X21279   1.283   0.191   8.622  1.0135  1.1713 -1.0063
  185SAPI  H16Y21280   1.322   0.034   8.706 -2.7451  1.9809  0.1683
  185SAPI  C31721281   1.461   0.096   8.552 -0.6972  0.2062 -0.7288
  185SAPI  H17X21282   1.402   0.038   8.478 -2.3824  0.3227  0.4981
  185SAPI  H17Y21283   1.539   0.025   8.590 -1.3262  0.9125  1.9946
  185SAPI  C31821284   1.536   0.216   8.492 -0.3379 -0.7169  0.4673
  185SAPI  H18X21285   1.473   0.306   8.478  2.1569  0.6010 -3.3809
  185SAPI  H18Y21286   1.591   0.191   8.398  1.0046 -0.2343  1.1118
  185SAPI  H18Z21287   1.614   0.255   8.561  1.9458 -1.3140 -1.6917
  186SAPI   C1221288   1.804   5.636  10.931  0.1937  0.3319  0.0003
  186SAPI    H221289   1.830   5.735  10.888  0.6321  0.1772 -0.0952
  186SAPI    O221290   1.925   5.591  10.979  0.2754 -1.3072 -0.1147
  186SAPI   HO221291   1.976   5.550  10.909  0.0590 -0.6328 -0.6648
  186SAPI   C1321292   1.710   5.651  11.053  0.1315 -0.1956  0.3964
  186SAPI    H321293   1.616   5.693  11.012 -0.0770 -0.0493  1.0095
  186SAPI    O321294   1.754   5.747  11.151  0.3063  0.2885  1.0175
  186SAPI   HO321295   1.761   5.825  11.096  0.5284  0.1765  0.8863
  186SAPI   C1421296   1.671   5.509  11.116  0.0169  0.1843  0.4476
  186SAPI    H421297   1.763   5.460  11.155  0.7377  0.0765 -1.3789
  186SAPI    O421298   1.585   5.513  11.227  0.1731 -0.7981 -0.4259
  186SAPI   HO421299   1.581   5.434  11.281  0.5841 -1.4768 -1.3852
  186SAPI   C1521300   1.616   5.419  11.002  0.0347  0.0245 -0.4345
  186SAPI    H521301   1.516   5.456  10.972  0.4737  2.3604  0.7834
  186SAPI    O521302   1.599   5.287  11.051  0.7178 -0.4063 -0.3867
  186SAPI   HO521303   1.689   5.251  11.057  0.0632 -1.7292  5.0734
  186SAPI   C1621304   1.708   5.409  10.880  0.3920  0.0087  0.0519
  186SAPI    H621305   1.801   5.359  10.913  0.7563  1.1801  0.8598
  186SAPI    O621306   1.644   5.323  10.782  0.0580  0.8188  0.5911
  186SAPI   HO621307   1.549   5.317  10.789  0.2548 -1.8805  1.8087
  186SAPI   C1121308   1.738   5.548  10.827 -0.7537 -0.0235  0.2366
  186SAPI    H121309   1.635   5.580  10.799 -1.1560  0.0711  1.8070
  186SAPI     P21310   1.810   5.666  10.590  0.0700 -0.0651  0.4019
  186SAPI   O1321311   1.946   5.709  10.566  0.2012 -0.0194  0.3885
  186SAPI   O1421312   1.706   5.764  10.636 -0.3739 -0.2200 -0.4507
  186SAPI   O1221313   1.816   5.546  10.707 -0.0665 -0.0991 -0.0009
  186SAPI   O1121314   1.760   5.597  10.456  0.3352 -0.0247  0.9186
  186SAPI    C121315   1.795   5.465  10.412 -0.1068 -0.3078  0.8049
  186SAPI    HA21316   1.811   5.391  10.493 -2.4980 -1.5528  0.1799
  186SAPI    HB21317   1.709   5.428  10.352  0.5016 -2.1566  1.0502
  186SAPI    C221318   1.924   5.483  10.326 -0.4718 -0.4204 -0.7546
  186SAPI    HS21319   1.996   5.559  10.364 -0.7215  0.0439 -1.2007
  186SAPI   O2121320   1.886   5.520  10.188  0.7546 -0.2617  0.6411
  186SAPI   C2121321   1.972   5.595  10.127 -0.6213 -0.4323  0.1105
  186SAPI   O2221322   2.074   5.640  10.176  0.7012 -0.2944  0.1247
  186SAPI   C2221323   1.953   5.593   9.972 -0.3937 -0.1181 -0.0356
  186SAPI   H2R21324   1.892   5.501   9.959 -1.2412  0.3221  0.7061
  186SAPI   H2S21325   1.894   5.682   9.942 -2.0670 -1.6631 -1.4170
  186SAPI    C321326   1.998   5.346  10.329  0.5445 -0.2254 -0.0549
  186SAPI    HX21327   1.921   5.279  10.285  0.8253 -0.6164  0.0513
  186SAPI    HY21328   2.016   5.308  10.432 -1.4256 -0.3581  0.2594
  186SAPI   O3121329   2.114   5.356  10.241 -0.3840 -1.0035 -0.0710
  186SAPI   C3121330   2.213   5.410  10.299 -0.5189  0.2575 -0.3190
  186SAPI   O3221331   2.225   5.417  10.420 -0.4044 -0.7337  0.5606
  186SAPI   C3221332   2.324   5.440  10.193  0.2718 -0.6354  0.0452
  186SAPI   H2X21333   2.410   5.479  10.250  0.5270 -0.2982 -0.5632
  186SAPI   H2Y21334   2.292   5.535  10.144 -3.1143 -2.4227 -1.4133
  186SAPI   C2321335   2.091   5.601   9.896  0.5442 -0.3088 -0.4641
  186SAPI   H3R21336   2.152   5.516   9.931 -0.0820 -0.4965  0.1696
  186SAPI   H3S21337   2.149   5.684   9.942 -1.3466  0.2958  0.8617
  186SAPI   C2421338   2.077   5.605   9.744 -0.4336 -0.2725  0.7309
  186SAPI   H4R21339   2.181   5.633   9.714 -1.5188  2.0061 -1.0799
  186SAPI   H4S21340   2.007   5.686   9.713  0.2670 -0.2121 -0.7899
  186SAPI   C2521341   2.035   5.481   9.670  0.8331  0.6384 -0.1630
  186SAPI   H5R21342   1.941   5.441   9.713  1.3625 -0.6503 -0.1659
  186SAPI   C2621343   2.072   5.424   9.555 -0.2998  0.1252 -0.2104
  186SAPI   H6R21344   2.029   5.330   9.516 -0.2416 -0.3877  0.9424
  186SAPI   C2721345   2.181   5.483   9.472 -0.7955  0.3917 -0.1554
  186SAPI   H7R21346   2.268   5.414   9.480 -2.7298 -2.1478 -0.2818
  186SAPI   H7S21347   2.226   5.580   9.501 -2.5746  1.1870 -0.0571
  186SAPI   C2821348   2.139   5.505   9.331  0.1495 -0.2738 -0.7595
  186SAPI   H8R21349   2.032   5.503   9.306 -0.5183  1.3868  1.7319
  186SAPI   C2921350   2.223   5.530   9.230 -0.0931  0.2582 -0.2994
  186SAPI   H9R21351   2.183   5.538   9.127  1.5595  0.5458 -0.9413
  186SAPI  C21021352   2.377   5.543   9.228  0.3767 -0.2749 -0.1738
  186SAPI  H10R21353   2.419   5.441   9.228  2.0583  0.3791 -3.0153
  186SAPI  H10S21354   2.408   5.594   9.321  0.4998  0.1202 -0.4314
  186SAPI  C21121355   2.434   5.612   9.110  0.0610 -0.1746  0.6224
  186SAPI  H11R21356   2.431   5.722   9.113 -0.1387 -0.2124  2.2292
  186SAPI  C21221357   2.487   5.561   8.996  0.4634 -0.3277  0.3832
  186SAPI  H12R21358   2.516   5.639   8.924 -0.6832 -0.9176 -0.7411
  186SAPI  C21321359   2.492   5.420   8.945 -0.1870 -0.0850  0.2694
  186SAPI  H13R21360   2.452   5.352   9.023 -1.6121  1.0337  0.5440
  186SAPI  H13S21361   2.595   5.381   8.933 -0.4314 -1.0568  1.3015
  186SAPI  C21421362   2.401   5.401   8.830 -0.4630  0.3363 -0.4574
  186SAPI  H14R21363   2.294   5.381   8.849 -0.5373  0.7899 -0.3990
  186SAPI  C21521364   2.450   5.415   8.702  0.1821  0.5724 -0.1139
  186SAPI  H15R21365   2.384   5.403   8.615 -1.2163  2.1848  0.7018
  186SAPI  C21621366   2.594   5.441   8.667  0.2858  0.0788  0.0407
  186SAPI  H16R21367   2.644   5.346   8.638  0.5974  0.5237 -0.8767
  186SAPI  H16S21368   2.654   5.480   8.753 -1.7131  1.0083  1.0474
  186SAPI  C21721369   2.604   5.537   8.549 -0.4819  0.4994  0.0920
  186SAPI  H17R21370   2.713   5.554   8.533 -0.6353  1.5889  0.1701
  186SAPI  H17S21371   2.561   5.638   8.568 -1.4454 -0.2976  2.2429
  186SAPI  C21821372   2.554   5.491   8.408 -0.9052  0.6051  0.2479
  186SAPI  H18R21373   2.444   5.502   8.399 -0.8421  0.3339 -0.8151
  186SAPI  H18S21374   2.574   5.384   8.390 -1.0351  0.6507 -0.1667
  186SAPI  C21921375   2.627   5.562   8.293  1.0292 -0.3259 -0.0109
  186SAPI  H19R21376   2.642   5.668   8.322  0.3642 -0.6619  1.6149
  186SAPI  H19S21377   2.563   5.555   8.203 -0.4145 -0.6236  1.0207
  186SAPI  C22021378   2.763   5.505   8.273  1.2792  0.2543  0.1176
  186SAPI  H20R21379   2.824   5.512   8.365  1.9008 -1.2607 -0.1599
  186SAPI  H20S21380   2.817   5.556   8.190 -0.2664 -0.2111 -1.2129
  186SAPI  H20T21381   2.753   5.394   8.261 -4.5453  0.5752  0.3276
  186SAPI   C3321382   2.338   5.334  10.083  0.2328  0.1426  0.4501
  186SAPI   H3X21383   2.242   5.338  10.028 -0.5322 -3.8174  1.3678
  186SAPI   H3Y21384   2.340   5.230  10.121 -0.9018 -0.0041  0.1145
  186SAPI   C3421385   2.448   5.377   9.978 -0.4384  0.5572  0.2598
  186SAPI   H4X21386   2.548   5.375  10.025 -1.0271 -0.5810  1.5246
  186SAPI   H4Y21387   2.425   5.481   9.948 -0.9707  0.3478 -0.0779
  186SAPI   C3521388   2.436   5.290   9.855  1.4420 -0.0547 -0.3088
  186SAPI   H5X21389   2.341   5.313   9.804  0.4015 -2.0643  0.6555
  186SAPI   H5Y21390   2.433   5.182   9.882 -1.1591 -0.0559 -0.5029
  186SAPI   C3621391   2.553   5.311   9.758  0.7006 -0.6889 -0.8872
  186SAPI   H6X21392   2.645   5.263   9.797  0.5444 -0.4777 -0.2551
  186SAPI   H6Y21393   2.575   5.419   9.764  0.8356 -0.7669  0.1727
  186SAPI   C3721394   2.520   5.250   9.621 -0.4639 -0.0094  0.1817
  186SAPI   H7X21395   2.423   5.296   9.590 -0.1820  0.3881 -0.1257
  186SAPI   H7Y21396   2.500   5.144   9.645 -1.8330 -0.1663 -1.5448
  186SAPI   C3821397   2.629   5.256   9.518 -0.2512 -0.0498  0.1292
  186SAPI   H8X21398   2.722   5.219   9.567  0.0813  3.1292  2.0667
  186SAPI   H8Y21399   2.648   5.362   9.493 -0.0187 -0.3279 -0.8912
  186SAPI   C3921400   2.591   5.185   9.394  0.2675  0.0051 -0.7410
  186SAPI   H9X21401   2.499   5.226   9.347  0.6427  0.1260 -1.3787
  186SAPI   H9Y21402   2.560   5.085   9.429 -1.0797  1.0253  1.0390
  186SAPI  C31021403   2.701   5.198   9.284 -0.2658 -0.0704 -0.3105
  186SAPI  H10X21404   2.795   5.169   9.336 -0.6081 -0.9357 -0.1670
  186SAPI  H10Y21405   2.699   5.305   9.255 -1.4173  0.3194  1.1270
  186SAPI  C31121406   2.651   5.115   9.160 -0.4763 -0.6875  0.4074
  186SAPI  H11X21407   2.559   5.156   9.114  0.4036  0.4410 -0.3643
  186SAPI  H11Y21408   2.628   5.010   9.189  0.0429 -0.1533  2.9146
  186SAPI  C31221409   2.761   5.123   9.047 -0.2446  0.0037 -0.5291
  186SAPI  H12X21410   2.843   5.053   9.073 -0.7332 -0.5319 -0.4135
  186SAPI  H12Y21411   2.789   5.230   9.039 -1.1668  0.4883  1.9647
  186SAPI  C31321412   2.723   5.075   8.907  0.0520 -0.1096 -0.7362
  186SAPI  H13X21413   2.635   5.131   8.870 -0.9792 -0.9004  0.4810
  186SAPI  H13Y21414   2.689   4.970   8.902 -1.4364  0.3498 -0.3866
  186SAPI  C31421415   2.835   5.084   8.809  0.2066 -0.4726  0.4089
  186SAPI  H14X21416   2.932   5.110   8.857  0.1401  2.0382 -0.7863
  186SAPI  H14Y21417   2.819   5.158   8.728  0.7626 -0.5950  0.1873
  186SAPI  C31521418   2.871   4.951   8.740  0.3020  0.3044  0.0732
  186SAPI  H15X21419   2.878   4.872   8.818 -1.9738 -0.6376 -0.6270
  186SAPI  H15Y21420   2.971   4.975   8.698  0.8210 -0.0834  1.0784
  186SAPI  C31621421   2.775   4.904   8.620  0.2605 -0.4607  0.4508
  186SAPI  H16X21422   2.739   4.999   8.573  1.6800  1.2420  2.7033
  186SAPI  H16Y21423   2.688   4.847   8.660 -0.4909  0.3470 -0.0033
  186SAPI  C31721424   2.853   4.814   8.522 -0.4012  0.2886  0.0350
  186SAPI  H17X21425   2.888   4.726   8.581  2.3914  1.1341 -0.2687
  186SAPI  H17Y21426   2.952   4.852   8.488 -0.9188  1.2338 -0.4342
  186SAPI  C31821427   2.766   4.776   8.414 -0.1665  0.5294 -0.5506
  186SAPI  H18X21428   2.737   4.855   8.342  1.5707  0.8980 -0.8874
  186SAPI  H18Y21429   2.669   4.750   8.461 -0.9893  0.5549 -2.1716
  186SAPI  H18Z21430   2.802   4.694   8.348 -1.0762 -1.4966  1.4184
  187SAPI   C1221431   6.082   6.133   6.452  0.5416  0.1623  0.6204
  187SAPI    H221432   6.034   6.203   6.523  2.7452  1.9731  0.3750
  187SAPI    O221433   6.220   6.163   6.442  0.2195 -0.1852  0.3637
  187SAPI   HO221434   6.236   6.230   6.375 -1.2132  0.5912  0.7877
  187SAPI   C1321435   6.051   5.992   6.501  0.1458 -0.3876 -0.0571
  187SAPI    H321436   5.943   5.982   6.524  0.4012 -2.4346  0.3127
  187SAPI    O321437   6.099   5.979   6.641  0.1686  0.5220  0.0334
  187SAPI   HO321438   6.189   5.947   6.644  0.0510 -0.1514 -2.6308
  187SAPI   C1421439   6.104   5.892   6.403 -0.0820  0.8220  0.1786
  187SAPI    H421440   6.208   5.917   6.375  0.9218 -0.0216  3.0223
  187SAPI    O421441   6.108   5.755   6.457 -0.4136 -0.2022  0.0439
  187SAPI   HO421442   6.181   5.734   6.516  0.0755  4.5906  1.3693
  187SAPI   C1521443   6.031   5.913   6.273 -0.3552  0.3326 -0.4278
  187SAPI    H521444   5.922   5.900   6.295  0.0505  1.2354  2.2751
  187SAPI    O521445   6.068   5.819   6.176 -0.3364  0.1143  0.5007
  187SAPI   HO521446   5.994   5.767   6.145  0.0119 -0.4389  0.6031
  187SAPI   C1621447   6.043   6.057   6.213 -0.0193 -0.0061  0.2528
  187SAPI    H621448   6.151   6.069   6.194  0.4070 -2.0689  1.3282
  187SAPI    O621449   5.964   6.077   6.091 -0.2519 -0.1336 -0.3752
  187SAPI   HO621450   6.001   6.157   6.052 -0.3150 -1.0093 -2.2768
  187SAPI   C1121451   6.009   6.156   6.320  0.2119 -0.2862 -0.1237
  187SAPI    H121452   5.902   6.140   6.345  0.7331 -1.9010  1.1613
  187SAPI     P21453   5.916   6.403   6.289 -0.1437 -0.1447  0.1588
  187SAPI   O1321454   5.793   6.352   6.221 -0.2944  0.0831 -0.6699
  187SAPI   O1421455   5.970   6.534   6.241 -0.1054  0.2979  0.2433
  187SAPI   O1221456   6.035   6.292   6.280 -0.0662  0.0138  0.5583
  187SAPI   O1121457   5.901   6.400   6.446  0.3677  0.8342 -0.0306
  187SAPI    C121458   5.989   6.479   6.529  0.2413 -0.8101  0.1371
  187SAPI    HA21459   6.089   6.431   6.517  0.5111 -0.4608  0.9484
  187SAPI    HB21460   5.998   6.585   6.499 -0.1377 -0.9031 -0.3040
  187SAPI    C221461   5.942   6.487   6.674 -0.7382  0.2193  0.3438
  187SAPI    HS21462   6.016   6.538   6.739 -1.4461  0.4653  0.9695
  187SAPI   O2121463   5.911   6.357   6.730  0.1557 -0.1851 -0.8645
  187SAPI   C2121464   6.007   6.311   6.804 -0.6796  0.1507  0.6121
  187SAPI   O2221465   6.123   6.355   6.813  0.4369 -0.1637  0.2777
  187SAPI   C2221466   5.952   6.203   6.894 -0.7524 -0.0545 -0.0980
  187SAPI   H2R21467   5.842   6.196   6.885 -0.7473 -1.5465  0.6771
  187SAPI   H2S21468   5.985   6.105   6.852 -1.3408 -0.2883 -0.0145
  187SAPI    C321469   5.818   6.580   6.666 -0.6022 -0.0863  0.5522
  187SAPI    HX21470   5.758   6.535   6.584  2.0219 -1.7444 -0.5137
  187SAPI    HY21471   5.862   6.678   6.637  0.2374  0.2031  2.7116
  187SAPI   O3121472   5.749   6.598   6.794 -0.4133 -0.1407  0.2265
  187SAPI   C3121473   5.651   6.510   6.821 -0.2872 -0.1888 -0.3548
  187SAPI   O3221474   5.616   6.422   6.748  0.2673 -0.2927  0.6116
  187SAPI   C3221475   5.585   6.554   6.950  0.1677 -0.2740  0.5152
  187SAPI   H2X21476   5.561   6.464   7.010 -0.5802  0.2686  1.0363
  187SAPI   H2Y21477   5.496   6.616   6.926  0.9284  1.1535  1.3602
  187SAPI   C2321478   5.997   6.242   7.043  0.1960 -0.2017 -0.4271
  187SAPI   H3R21479   6.106   6.246   7.026  0.4169  0.1090  0.9997
  187SAPI   H3S21480   5.991   6.159   7.117  0.8208  0.1847  0.0598
  187SAPI   C2421481   5.934   6.372   7.098  0.2450  0.1123 -0.1282
  187SAPI   H4R21482   5.939   6.457   7.026  0.8835  0.5505  0.4346
  187SAPI   H4S21483   6.007   6.397   7.178 -0.3847 -0.9537  0.7946
  187SAPI   C2521484   5.806   6.327   7.153 -0.1514  0.6303 -0.1795
  187SAPI   H5R21485   5.737   6.302   7.071  1.4627  0.2533 -1.4524
  187SAPI   C2621486   5.771   6.310   7.280  0.1791 -0.0872  0.4982
  187SAPI   H6R21487   5.666   6.281   7.295 -0.1241 -0.5011 -2.1044
  187SAPI   C2721488   5.857   6.332   7.401  0.1868  0.0752 -0.3829
  187SAPI   H7R21489   5.941   6.259   7.397  0.1526 -0.0122  0.3777
  187SAPI   H7S21490   5.800   6.302   7.491  1.3990 -2.3567 -0.3628
  187SAPI   C2821491   5.912   6.470   7.444  0.2254 -0.0677  0.0132
  187SAPI   H8R21492   5.891   6.541   7.363  1.4309 -0.5143 -0.7023
  187SAPI   C2921493   5.980   6.496   7.554 -0.0872 -0.7601  0.2193
  187SAPI   H9R21494   6.018   6.599   7.565 -0.8194 -0.3341 -1.2033
  187SAPI  C21021495   6.010   6.405   7.670 -0.5983  0.9422 -0.1909
  187SAPI  H10R21496   6.119   6.420   7.687 -0.2266  0.1382 -1.7617
  187SAPI  H10S21497   5.991   6.298   7.646  2.0879  0.2668  0.5300
  187SAPI  C21121498   5.932   6.437   7.796  0.2419  0.5990  0.1773
  187SAPI  H11R21499   5.829   6.398   7.797  0.1575  0.7754 -0.9029
  187SAPI  C21221500   5.979   6.495   7.910  0.0206 -0.4964  1.0513
  187SAPI  H12R21501   5.912   6.519   7.995 -0.0148  0.4177  0.7698
  187SAPI  C21321502   6.120   6.542   7.937 -0.1179 -0.3084 -0.0676
  187SAPI  H13R21503   6.177   6.449   7.917 -0.1121 -0.5848  1.1998
  187SAPI  H13S21504   6.123   6.559   8.047 -2.1191 -4.0389  0.6347
  187SAPI  C21421505   6.179   6.657   7.856 -0.4912 -0.0225  0.6750
  187SAPI  H14R21506   6.112   6.743   7.857 -2.4517 -1.4510 -1.8205
  187SAPI  C21521507   6.291   6.664   7.781  0.0085 -0.0544  0.3212
  187SAPI  H15R21508   6.310   6.753   7.719  0.8020  0.2724  1.0201
  187SAPI  C21621509   6.388   6.552   7.749  0.3173 -0.0774  0.0010
  187SAPI  H16R21510   6.361   6.461   7.808 -1.0664  0.7173  0.6128
  187SAPI  H16S21511   6.490   6.575   7.786 -0.3884  0.8905  1.3946
  187SAPI  C21721512   6.383   6.519   7.596 -0.3838 -0.8785  0.0940
  187SAPI  H17R21513   6.278   6.523   7.561 -0.0990  1.3876 -0.5671
  187SAPI  H17S21514   6.415   6.413   7.587  0.4749 -0.6765  0.6770
  187SAPI  C21821515   6.474   6.604   7.514 -0.1534 -0.0049  0.3922
  187SAPI  H18R21516   6.581   6.575   7.509 -0.0738  0.3483  0.0369
  187SAPI  H18S21517   6.469   6.709   7.549 -2.1604  0.0135  0.1120
  187SAPI  C21921518   6.430   6.604   7.368 -0.1459  0.1818 -0.8413
  187SAPI  H19R21519   6.496   6.671   7.309 -0.4655  1.4918  0.2721
  187SAPI  H19S21520   6.330   6.651   7.361 -0.1754  0.6839  2.4070
  187SAPI  C22021521   6.430   6.479   7.288  0.1808  0.1466 -0.4751
  187SAPI  H20R21522   6.409   6.508   7.183 -1.0862  0.4466 -0.1425
  187SAPI  H20S21523   6.352   6.413   7.331 -0.0431 -0.0845 -1.2318
  187SAPI  H20T21524   6.525   6.423   7.302 -0.6429 -1.2172 -0.2398
  187SAPI   C3321525   5.661   6.655   7.050  0.3730 -0.5279 -0.2551
  187SAPI   H3X21526   5.676   6.753   6.999 -2.1058  1.0636  1.9227
  187SAPI   H3Y21527   5.759   6.610   7.077  0.6605 -0.6131 -1.4307
  187SAPI   C3421528   5.570   6.691   7.175  0.4533  0.0695  0.5793
  187SAPI   H4X21529   5.533   6.592   7.207  1.1289 -1.1845 -2.4195
  187SAPI   H4Y21530   5.482   6.752   7.146 -0.4741 -1.5291 -0.0101
  187SAPI   C3521531   5.661   6.753   7.280 -0.0660  0.4016 -0.6067
  187SAPI   H5X21532   5.703   6.850   7.246 -0.1502  0.4756 -0.4980
  187SAPI   H5Y21533   5.743   6.682   7.303 -1.3055 -0.4278  1.4107
  187SAPI   C3621534   5.583   6.785   7.404  0.0750  0.6988 -0.2918
  187SAPI   H6X21535   5.480   6.808   7.372  0.2977  1.2514 -0.6113
  187SAPI   H6Y21536   5.624   6.878   7.450 -1.3709  0.0824  2.3323
  187SAPI   C3721537   5.586   6.671   7.514  0.1553  0.0411  0.2153
  187SAPI   H7X21538   5.685   6.621   7.505 -0.0818 -0.5305  0.7840
  187SAPI   H7Y21539   5.510   6.598   7.477 -1.1218  2.6276 -2.5027
  187SAPI   C3821540   5.535   6.709   7.658  0.8340  0.5053  0.6454
  187SAPI   H8X21541   5.426   6.724   7.642  1.3408  1.6485 -2.0763
  187SAPI   H8Y21542   5.573   6.812   7.671  0.3443  0.6552  0.8785
  187SAPI   C3921543   5.577   6.613   7.768 -0.0116 -0.3934 -0.2136
  187SAPI   H9X21544   5.685   6.587   7.765  0.1170  0.3014 -2.1192
  187SAPI   H9Y21545   5.536   6.512   7.744  0.7719 -1.2053  1.7442
  187SAPI  C31021546   5.527   6.644   7.910 -0.4015  0.9797  0.0179
  187SAPI  H10X21547   5.416   6.652   7.919 -0.2668  2.0354  0.7857
  187SAPI  H10Y21548   5.565   6.742   7.945 -0.4432  0.5506  1.2999
  187SAPI  C31121549   5.567   6.541   8.016 -0.6730 -0.2241 -0.2954
  187SAPI  H11X21550   5.677   6.527   8.012 -0.7138 -0.3917 -0.8070
  187SAPI  H11Y21551   5.513   6.446   7.993  2.3763 -2.0692 -0.0259
  187SAPI  C31221552   5.533   6.590   8.163 -0.5465  0.1382  0.2330
  187SAPI  H12X21553   5.590   6.683   8.186 -0.2598 -0.1409  0.6651
  187SAPI  H12Y21554   5.578   6.514   8.231  0.4942  0.5255 -0.0075
  187SAPI  C31321555   5.388   6.614   8.194  0.2756  0.3288 -0.1313
  187SAPI  H13X21556   5.331   6.520   8.184 -1.4154  1.4164 -0.9500
  187SAPI  H13Y21557   5.335   6.695   8.139 -1.0866 -1.8221 -2.0375
  187SAPI  C31421558   5.376   6.660   8.336 -0.3384 -0.4853 -1.0216
  187SAPI  H14X21559   5.387   6.770   8.338 -1.2125 -0.4102 -0.3533
  187SAPI  H14Y21560   5.457   6.610   8.393  1.5184  3.1931 -0.3256
  187SAPI  C31521561   5.238   6.623   8.405 -0.3114 -0.6368 -0.3822
  187SAPI  H15X21562   5.151   6.664   8.351 -0.5829  0.5252  0.8930
  187SAPI  H15Y21563   5.231   6.667   8.507  0.6235 -0.6124 -0.3237
  187SAPI  C31621564   5.234   6.473   8.439 -0.9692  0.4788  0.3127
  187SAPI  H16X21565   5.328   6.444   8.490 -1.1220 -1.2176 -0.3293
  187SAPI  H16Y21566   5.233   6.416   8.344 -1.9515 -0.3989  0.8341
  187SAPI  C31721567   5.102   6.443   8.501  0.3042 -0.4819  0.6931
  187SAPI  H17X21568   5.021   6.492   8.443  0.9481  2.3063  2.0736
  187SAPI  H17Y21569   5.096   6.491   8.601 -0.8995  0.4799  0.1681
  187SAPI  C31821570   5.080   6.293   8.516 -0.2939 -0.2139  1.0726
  187SAPI  H18X21571   5.058   6.254   8.415  1.1074  1.7550 -0.0144
  187SAPI  H18Y21572   4.996   6.276   8.588 -1.0841  0.0483  0.2221
  187SAPI  H18Z21573   5.170   6.234   8.543  0.1094 -0.5491 -0.9321
  188SAPI   C1221574   0.758   3.187   6.379 -0.0300  0.2137  0.5954
  188SAPI    H221575   0.773   3.098   6.444 -0.8684  0.1050  0.6464
  188SAPI    O221576   0.675   3.150   6.264  0.3558 -0.3943 -0.1408
  188SAPI   HO221577   0.735   3.108   6.201 -0.1045 -0.2347 -0.6899
  188SAPI   C1321578   0.678   3.290   6.462  0.4066 -0.0937  0.0288
  188SAPI    H321579   0.739   3.327   6.547  1.6603 -1.2130 -0.3632
  188SAPI    O321580   0.555   3.238   6.514  0.2252 -0.3373 -0.1327
  188SAPI   HO321581   0.512   3.296   6.577 -0.4868  0.5316 -1.3972
  188SAPI   C1421582   0.643   3.408   6.372  0.3310  0.5629  0.0191
  188SAPI    H421583   0.575   3.366   6.295 -0.0907 -1.0166  1.2467
  188SAPI    O421584   0.574   3.509   6.444 -0.2982  0.5492  0.2598
  188SAPI   HO421585   0.487   3.469   6.453  0.9066 -2.3612 -0.4028
  188SAPI   C1521586   0.759   3.464   6.296 -0.0220 -0.2946  0.0737
  188SAPI    H521587   0.828   3.502   6.374 -1.2876  1.6028  0.2715
  188SAPI    O521588   0.730   3.570   6.206  0.3604 -0.1623 -0.1102
  188SAPI   HO521589   0.812   3.620   6.198  1.1255 -1.4087 -0.0683
  188SAPI   C1621590   0.845   3.357   6.229 -0.0487 -0.9299  0.1473
  188SAPI    H621591   0.787   3.317   6.143 -0.1997  0.7106 -0.5212
  188SAPI    O621592   0.959   3.419   6.169 -0.3969  0.2855 -0.3081
  188SAPI   HO621593   1.036   3.403   6.224 -2.1017  0.5904  2.2634
  188SAPI   C1121594   0.888   3.246   6.323  0.2931  0.9459  0.2197
  188SAPI    H121595   0.947   3.286   6.408  2.4059 -1.6428  0.0423
  188SAPI     P21596   1.126   3.133   6.264  0.2772  0.2327  0.1382
  188SAPI   O1321597   1.183   3.270   6.246 -1.1148 -0.2177  0.0050
  188SAPI   O1421598   1.159   3.031   6.165  0.1049 -0.1888 -0.2819
  188SAPI   O1221599   0.959   3.140   6.267 -0.4180 -0.4698  0.0098
  188SAPI   O1121600   1.166   3.080   6.408 -0.2036  0.2064 -0.3213
  188SAPI    C121601   1.084   3.017   6.498  0.5203  0.5924  0.3247
  188SAPI    HA21602   1.032   3.099   6.551  1.3512  0.3070  1.5976
  188SAPI    HB21603   1.026   2.938   6.446  0.2068  0.3921  0.9849
  188SAPI    C221604   1.167   2.948   6.616  0.0418 -0.0005  0.0001
  188SAPI    HS21605   1.105   2.879   6.676  0.7899 -0.8387 -0.1855
  188SAPI   O2121606   1.231   3.041   6.705  0.8558 -0.3051  0.0759
  188SAPI   C2121607   1.154   3.080   6.806  0.3559 -0.2626 -0.1212
  188SAPI   O2221608   1.044   3.034   6.841 -0.9235 -0.3672  0.0402
  188SAPI   C2221609   1.239   3.188   6.873  0.3235 -1.0439 -0.4389
  188SAPI   H2R21610   1.326   3.131   6.913  1.8106  0.0703 -2.0012
  188SAPI   H2S21611   1.262   3.258   6.791 -1.6182  0.0553 -0.0753
  188SAPI    C321612   1.275   2.867   6.550 -0.1513  0.2630 -0.3082
  188SAPI    HX21613   1.322   2.949   6.493  0.2965 -0.4618 -0.9955
  188SAPI    HY21614   1.235   2.789   6.482 -0.9049  1.2317 -0.9887
  188SAPI   O3121615   1.370   2.808   6.642 -0.1409  0.3103  0.1261
  188SAPI   C3121616   1.318   2.721   6.731  1.3606  0.5096  0.2890
  188SAPI   O3221617   1.201   2.677   6.723 -0.4197 -0.6038 -0.1414
  188SAPI   C3221618   1.424   2.654   6.816  0.2670 -0.8475 -0.4355
  188SAPI   H2X21619   1.521   2.703   6.792 -0.7330  1.7695  0.6103
  188SAPI   H2Y21620   1.437   2.552   6.774 -0.6774  0.2529 -3.5531
  188SAPI   C2321621   1.178   3.255   6.999 -0.1287  0.8096 -0.7377
  188SAPI   H3R21622   1.067   3.265   6.993 -0.3209 -0.6052  0.4120
  188SAPI   H3S21623   1.212   3.361   7.012  1.9852  0.2469 -1.4983
  188SAPI   C2421624   1.218   3.191   7.138  0.3417  0.0037 -0.3401
  188SAPI   H4R21625   1.144   3.233   7.210  1.1369  2.5889 -0.9915
  188SAPI   H4S21626   1.325   3.213   7.157 -0.2423  2.1186  0.7139
  188SAPI   C2521627   1.198   3.035   7.134 -0.2883  0.5171  0.2303
  188SAPI   H5R21628   1.128   2.993   7.061 -1.1925 -0.4251  1.6372
  188SAPI   C2621629   1.261   2.950   7.220 -0.1769  0.2746 -0.3778
  188SAPI   H6R21630   1.252   2.840   7.218  1.0280  0.1661 -0.5184
  188SAPI   C2721631   1.357   2.984   7.332 -0.5157  0.9071 -0.0278
  188SAPI   H7R21632   1.424   3.070   7.311 -2.9433  2.5355 -1.2832
  188SAPI   H7S21633   1.430   2.902   7.350 -0.1397  0.5090 -2.9938
  188SAPI   C2821634   1.281   3.003   7.462 -0.2369  0.6171 -0.6167
  188SAPI   H8R21635   1.241   3.104   7.478 -3.7738 -0.6570 -0.9362
  188SAPI   C2921636   1.255   2.908   7.552 -0.4059  0.1506 -0.2436
  188SAPI   H9R21637   1.203   2.952   7.639 -0.4529  0.7504 -0.5684
  188SAPI  C21021638   1.304   2.762   7.556 -0.3675  0.2353  0.0680
  188SAPI  H10R21639   1.327   2.752   7.664 -0.0351 -0.9421 -0.0995
  188SAPI  H10S21640   1.401   2.764   7.503 -0.8907 -1.2856 -1.0134
  188SAPI  C21121641   1.210   2.657   7.503  0.0403 -0.5484  0.1468
  188SAPI  H11R21642   1.163   2.685   7.407  0.7651 -0.0835 -0.0742
  188SAPI  C21221643   1.157   2.551   7.573  0.4238  0.5564  0.1404
  188SAPI  H12R21644   1.091   2.486   7.514  1.9029  1.1706 -2.2606
  188SAPI  C21321645   1.204   2.495   7.705  0.4484  0.3264 -0.3461
  188SAPI  H13R21646   1.123   2.487   7.781  0.1124  0.0592 -0.7347
  188SAPI  H13S21647   1.259   2.583   7.746 -1.5697  2.6846 -2.5804
  188SAPI  C21421648   1.296   2.374   7.692 -0.1875  0.6695  0.5369
  188SAPI  H14R21649   1.366   2.390   7.608  0.0177  1.1017  0.7850
  188SAPI  C21521650   1.309   2.266   7.770 -0.0367 -0.1357 -0.1564
  188SAPI  H15R21651   1.380   2.188   7.736 -0.9939 -1.2856  0.4320
  188SAPI  C21621652   1.226   2.248   7.902 -0.3340 -0.6263 -0.7896
  188SAPI  H16R21653   1.235   2.142   7.935 -0.6651  0.1330  1.8995
  188SAPI  H16S21654   1.118   2.265   7.881 -0.5669  1.5032  1.8413
  188SAPI  C21721655   1.263   2.327   8.035 -0.1673 -0.1953 -0.3248
  188SAPI  H17R21656   1.300   2.430   8.013 -1.3481  0.6662  1.6230
  188SAPI  H17S21657   1.346   2.273   8.085 -1.1119  0.0529  1.5260
  188SAPI  C21821658   1.144   2.340   8.138  0.1340  0.5316  0.1941
  188SAPI  H18R21659   1.064   2.382   8.072  1.8467 -1.7580 -3.5022
  188SAPI  H18S21660   1.187   2.407   8.215  0.7034  1.0303 -0.5423
  188SAPI  C21921661   1.121   2.214   8.220 -0.1367 -0.1672  0.0773
  188SAPI  H19R21662   1.213   2.179   8.271 -0.3418  0.9216  1.2545
  188SAPI  H19S21663   1.095   2.128   8.155 -2.7319  0.5911  0.0418
  188SAPI  C22021664   0.999   2.229   8.323 -0.7193  0.0583  0.1007
  188SAPI  H20R21665   0.902   2.256   8.276  0.8661 -0.2732 -3.5604
  188SAPI  H20S21666   1.028   2.305   8.398  0.2085 -1.7047  1.5676
  188SAPI  H20T21667   0.986   2.135   8.381  0.5092  0.0485  0.3646
  188SAPI   C3321668   1.400   2.651   6.968  0.2361  0.3700 -0.9444
  188SAPI   H3X21669   1.359   2.749   6.999 -0.6429  0.2365 -1.6272
  188SAPI   H3Y21670   1.499   2.638   7.016  0.7164  2.6811 -1.2532
  188SAPI   C3421671   1.318   2.531   7.024 -0.6107 -0.7290  0.4550
  188SAPI   H4X21672   1.363   2.434   6.994  1.0254 -0.0843  0.7803
  188SAPI   H4Y21673   1.217   2.527   6.978 -0.1172  1.3636 -0.9038
  188SAPI   C3521674   1.291   2.538   7.181 -1.3340 -0.2920 -0.0199
  188SAPI   H5X21675   1.236   2.632   7.201  0.1669  0.3765  1.1106
  188SAPI   H5Y21676   1.385   2.551   7.239 -1.1982 -1.8940  0.1345
  188SAPI   C3621677   1.212   2.414   7.230  0.1183 -0.3339  0.1204
  188SAPI   H6X21678   1.110   2.418   7.188  1.2909 -0.1406 -2.7872
  188SAPI   H6Y21679   1.204   2.428   7.340 -2.6070  1.2133 -0.2392
  188SAPI   C3721680   1.275   2.274   7.197 -0.3093 -0.4966  0.3516
  188SAPI   H7X21681   1.363   2.246   7.259  0.3426 -0.3915 -0.5155
  188SAPI   H7Y21682   1.308   2.257   7.093 -0.2326 -0.2346  0.3326
  188SAPI   C3821683   1.181   2.160   7.222  0.8955 -0.3351 -0.1716
  188SAPI   H8X21684   1.229   2.068   7.183 -1.6535 -1.0500 -1.7481
  188SAPI   H8Y21685   1.092   2.165   7.156  1.0164 -0.3794 -0.3372
  188SAPI   C3921686   1.147   2.135   7.378  0.9820  0.2223  0.0749
  188SAPI   H9X21687   1.088   2.223   7.412  0.0028 -1.0091  1.5816
  188SAPI   H9Y21688   1.238   2.137   7.441  0.3158 -0.7386  1.0622
  188SAPI  C31021689   1.062   2.011   7.410  0.1589  0.2463 -0.0012
  188SAPI  H10X21690   1.107   1.923   7.360  2.5191  1.8455 -0.7382
  188SAPI  H10Y21691   0.960   2.023   7.368 -0.1307  1.6536  1.0520
  188SAPI  C31121692   1.029   1.984   7.551 -0.0801 -0.2400  0.3159
  188SAPI  H11X21693   0.970   2.065   7.598 -1.2365 -0.0369 -1.4294
  188SAPI  H11Y21694   1.132   1.975   7.593 -0.7577 -3.0345  1.4811
  188SAPI  C31221695   0.962   1.848   7.574 -0.1550  0.0291 -0.1074
  188SAPI  H12X21696   1.038   1.768   7.560 -1.0037 -0.7637 -0.2667
  188SAPI  H12Y21697   0.872   1.834   7.510  0.3458 -1.5171 -0.5005
  188SAPI  C31321698   0.908   1.834   7.725  0.1541  0.2134 -0.3592
  188SAPI  H13X21699   0.828   1.757   7.729 -0.2330  0.5479 -1.5950
  188SAPI  H13Y21700   0.852   1.928   7.744  0.6226 -0.2535  3.9001
  188SAPI  C31421701   1.009   1.843   7.847 -0.2010 -0.2947 -0.2257
  188SAPI  H14X21702   1.078   1.924   7.815 -2.2987  1.9699  0.7991
  188SAPI  H14Y21703   1.060   1.744   7.855 -2.3397 -1.2283  2.7089
  188SAPI  C31521704   0.930   1.863   7.976  0.1360  1.1782  0.4979
  188SAPI  H15X21705   0.870   1.776   8.010  2.0854  0.1370  1.3522
  188SAPI  H15Y21706   0.855   1.944   7.982 -0.1063  0.9866  0.0875
  188SAPI  C31621707   1.029   1.881   8.093 -0.2667 -0.0423 -0.0022
  188SAPI  H16X21708   0.975   1.932   8.175 -0.4271 -0.1577 -0.0340
  188SAPI  H16Y21709   1.113   1.951   8.074  2.2929 -3.0446 -0.2093
  188SAPI  C31721710   1.084   1.750   8.148 -0.2004  0.2984 -0.2480
  188SAPI  H17X21711   1.153   1.697   8.080 -0.5662 -1.2711  0.5796
  188SAPI  H17Y21712   1.001   1.680   8.171 -0.9563  0.4291 -2.4559
  188SAPI  C31821713   1.153   1.763   8.282 -0.0239 -0.0190 -0.3201
  188SAPI  H18X21714   1.171   1.668   8.337  2.2929 -0.8974 -2.5108
  188SAPI  H18Y21715   1.092   1.828   8.348 -0.8011 -0.7890 -0.2706
  188SAPI  H18Z21716   1.255   1.806   8.273  0.3837 -0.8597  0.1405
  189POPC     N21717   0.524   4.731  10.885 -0.0562  0.2530  0.8725
  189POPC   C1221718   0.397   4.648  10.916  0.3824 -0.7674  0.0795
  189POPC  H12A21719   0.352   4.677  11.010 -2.7590 -0.0146 -1.6195
  189POPC  H12B21720   0.426   4.546  10.934  1.9888 -0.6174 -1.5709
  189POPC   C1321721   0.636   4.672  10.961  0.4658 -0.4195 -0.1078
  189POPC  H13A21722   0.612   4.661  11.066  1.6421 -1.1935  0.0817
  189POPC  H13B21723   0.673   4.584  10.912 -0.8646  0.1061 -2.1524
  189POPC  H13C21724   0.725   4.733  10.962 -0.0830  0.3930  0.8654
  189POPC   C1421725   0.554   4.718  10.744 -0.8740  0.1775  0.2280
  189POPC  H14A21726   0.651   4.762  10.726  0.2977 -2.1689  0.5787
  189POPC  H14B21727   0.568   4.611  10.732 -2.3310 -0.0039  0.1218
  189POPC  H14C21728   0.473   4.748  10.679 -1.5419  0.3032  1.1060
  189POPC   C1521729   0.515   4.869  10.929 -0.2631 -0.0622 -0.4787
  189POPC  H15A21730   0.441   4.923  10.872  0.2280  1.0322 -0.1066
  189POPC  H15B21731   0.609   4.919  10.909 -0.7622  0.9955 -0.2465
  189POPC  H15C21732   0.478   4.883  11.030  0.1602  0.4218 -0.3846
  189POPC   C1121733   0.281   4.664  10.820 -0.0665  0.1959  0.3344
  189POPC  H11A21734   0.303   4.620  10.721  1.4123  0.3482  0.5846
  189POPC  H11B21735   0.270   4.774  10.811  0.0056  0.1423 -0.4062
  189POPC     P21736   0.149   4.449  10.869  0.2610  0.0216 -0.4453
  189POPC   O1321737   0.080   4.402  10.987  0.4399  0.3825 -0.1222
  189POPC   O1421738   0.282   4.386  10.853 -0.5541  0.0477  0.7417
  189POPC   O1221739   0.166   4.607  10.882  0.2851 -0.0522  0.6590
  189POPC   O1121740   0.049   4.418  10.743 -0.2524  0.0225  0.3041
  189POPC    C121741   0.074   4.477  10.621  0.0884 -0.0057 -0.5175
  189POPC    HA21742   0.178   4.515  10.611  0.5505 -0.1735  3.0131
  189POPC    HB21743  -0.003   4.553  10.595  0.6548  0.2344 -1.5140
  189POPC    C221744   0.066   4.375  10.498  0.3431 -0.7508 -0.6299
  189POPC    HS21745   0.079   4.442  10.411  2.3944 -0.7326 -0.3521
  189POPC   O2121746  -0.064   4.313  10.512 -0.1080 -0.0491 -0.2567
  189POPC   C2121747  -0.155   4.349  10.425  0.8517  1.0561  0.1594
  189POPC   O2221748  -0.135   4.428  10.339  0.2028 -0.4907  0.5481
  189POPC   C2221749  -0.290   4.282  10.455 -0.0748 -0.7596 -0.9952
  189POPC   H2R21750  -0.338   4.330  10.542  1.3978 -0.5885 -0.2679
  189POPC   H2S21751  -0.280   4.176  10.484  1.1949 -0.3914 -0.0834
  189POPC    C321752   0.180   4.272  10.497  0.4806  0.1548  0.9559
  189POPC    HX21753   0.158   4.201  10.580 -2.2015 -0.5946 -0.3345
  189POPC    HY21754   0.278   4.318  10.523  1.0760  1.1612 -2.7836
  189POPC   O3121755   0.186   4.196  10.367 -0.0900 -0.3607 -0.4292
  189POPC   C3121756   0.256   4.266  10.281  0.0446 -0.3361  0.1429
  189POPC   O3221757   0.296   4.385  10.297 -0.2611 -0.5682 -0.1555
  189POPC   C3221758   0.244   4.199  10.147  0.1089 -0.3065  0.5100
  189POPC   H2X21759   0.148   4.144  10.144  0.3594 -0.6953 -0.7257
  189POPC   H2Y21760   0.332   4.133  10.129  2.0515  2.2815  0.3280
  189POPC   C2321761  -0.386   4.302  10.344  0.0741 -0.4708 -0.1859
  189POPC   H3R21762  -0.390   4.409  10.314  1.5610 -0.3376  0.0370
  189POPC   H3S21763  -0.489   4.273  10.372 -0.2220  0.6173 -0.1006
  189POPC   C2421764  -0.351   4.220  10.219  0.1243 -0.6163 -0.4586
  189POPC   H4R21765  -0.387   4.116  10.238 -1.2073  0.2118  1.7699
  189POPC   H4S21766  -0.243   4.217  10.194  0.8384 -2.7342  2.5049
  189POPC   C2521767  -0.431   4.258  10.092  0.5152 -0.9366 -0.6309
  189POPC   H5R21768  -0.404   4.362  10.064  3.6739 -1.3736  0.5643
  189POPC   H5S21769  -0.540   4.257  10.116  1.4045 -1.1400  3.7994
  189POPC   C2621770  -0.417   4.159   9.973 -0.3728 -0.0818  0.0740
  189POPC   H6R21771  -0.424   4.055  10.012 -1.6975  0.0999  0.3108
  189POPC   H6S21772  -0.311   4.170   9.941 -0.2690  0.3087  0.5446
  189POPC   C2721773  -0.528   4.172   9.869  0.8219 -0.7944  0.9116
  189POPC   H7R21774  -0.534   4.278   9.835  1.9337 -0.7342  0.9113
  189POPC   H7S21775  -0.625   4.161   9.923 -0.4263  0.3897 -0.9829
  189POPC   C2821776  -0.500   4.082   9.752  0.0703  0.2730  0.4767
  189POPC   H8R21777  -0.392   4.072   9.728 -0.7999  0.0092 -3.7287
  189POPC   H8S21778  -0.557   4.124   9.666  1.2266  1.2076  0.1531
  189POPC   C2921779  -0.546   3.942   9.770  0.0956 -0.3376 -0.5422
  189POPC   H9121780  -0.575   3.927   9.875 -1.7576  0.1739 -0.9499
  189POPC  C21021781  -0.562   3.848   9.679 -0.2089  0.5301  0.1879
  189POPC  H10121782  -0.568   3.744   9.714 -1.6674  0.4092 -0.4077
  189POPC  C21121783  -0.538   3.858   9.527  0.9364  0.0958  0.0094
  189POPC  H11R21784  -0.442   3.808   9.501 -1.3154 -3.7609 -1.2723
  189POPC  H11S21785  -0.512   3.963   9.503  0.0184  0.4405  0.4977
  189POPC  C21221786  -0.653   3.823   9.437  0.2051 -0.1544  0.2561
  189POPC  H12R21787  -0.630   3.861   9.335  3.3108 -0.9643  0.6266
  189POPC  H12S21788  -0.749   3.870   9.468  0.0143  0.7938 -1.7195
  189POPC  C21321789  -0.669   3.671   9.426 -0.4156  0.0318 -0.0811
  189POPC  H13R21790  -0.696   3.631   9.526  0.0183  0.4156  0.1910
  189POPC  H13S21791  -0.566   3.635   9.405  0.1189  1.6677 -0.3315
  189POPC  C21421792  -0.768   3.607   9.326 -0.5719  0.0511  0.1314
  189POPC  H14R21793  -0.870   3.633   9.362 -0.5108  0.0261  0.3243
  189POPC  H14S21794  -0.739   3.500   9.329  0.1694  0.1468 -2.5649
  189POPC  C21521795  -0.747   3.659   9.181  0.5089  0.1059  0.5846
  189POPC  H15R21796  -0.640   3.661   9.150  0.3904 -2.0152 -0.0111
  189POPC  H15S21797  -0.772   3.767   9.182  0.0765  0.0015  0.9947
  189POPC  C21621798  -0.834   3.582   9.073 -0.1368 -0.5048  0.0848
  189POPC  H16R21799  -0.937   3.611   9.103  0.9898  2.2245  1.4764
  189POPC  H16S21800  -0.827   3.471   9.085 -1.2067 -0.4792  1.0481
  189POPC  C21721801  -0.803   3.605   8.927  0.3024 -0.1505  0.0326
  189POPC  H17R21802  -0.701   3.584   8.890 -0.4068  1.3718 -2.9772
  189POPC  H17S21803  -0.817   3.715   8.918  0.2143 -0.0605  1.1344
  189POPC  C21821804  -0.898   3.537   8.837  0.4491 -0.2518 -0.3985
  189POPC  H18R21805  -0.997   3.542   8.889  0.6487  0.7433 -0.0877
  189POPC  H18S21806  -0.880   3.428   8.831 -0.7936 -0.5740  1.1512
  189POPC  H18T21807  -0.899   3.581   8.735  1.2551 -0.7881 -0.6391
  189POPC   C3321808   0.253   4.307  10.040  0.1733 -0.8999 -0.4112
  189POPC   H3X21809   0.339   4.375  10.057 -1.3671  0.6728  1.3489
  189POPC   H3Y21810   0.169   4.380  10.053  1.4118  0.7845 -1.5973
  189POPC   C3421811   0.267   4.259   9.888  0.1310  0.0914 -0.1347
  189POPC   H4X21812   0.174   4.203   9.864 -1.7098  0.5219  5.2633
  189POPC   H4Y21813   0.348   4.184   9.892  0.7644  0.6942 -1.5177
  189POPC   C3521814   0.306   4.365   9.794 -0.0069 -0.0505  0.1870
  189POPC   H5X21815   0.387   4.427   9.838  0.8404 -1.6509  0.9415
  189POPC   H5Y21816   0.211   4.420   9.777  0.0320  0.1827  0.7254
  189POPC   C3621817   0.363   4.313   9.664 -0.1348 -0.6013  0.1325
  189POPC   H6X21818   0.302   4.231   9.620  0.6510 -0.6790 -0.8172
  189POPC   H6Y21819   0.453   4.250   9.682  0.8264  1.0945  1.3586
  189POPC   C3721820   0.393   4.422   9.567 -0.4136  0.6713 -0.5060
  189POPC   H7X21821   0.470   4.489   9.610 -1.0529  0.1849  1.4638
  189POPC   H7Y21822   0.310   4.490   9.539 -1.3709 -0.2720 -0.0110
  189POPC   C3821823   0.442   4.367   9.428  0.1162 -0.0496 -0.1595
  189POPC   H8X21824   0.350   4.329   9.379 -0.8655 -0.7974  2.1804
  189POPC   H8Y21825   0.508   4.277   9.435  0.5656  0.3741  1.2854
  189POPC   C3921826   0.512   4.464   9.333 -0.2456 -0.3247 -0.6644
  189POPC   H9X21827   0.594   4.519   9.385 -0.1824 -2.1093  1.2347
  189POPC   H9Y21828   0.440   4.528   9.279  0.9290  0.8526 -0.8781
  189POPC  C31021829   0.593   4.386   9.225 -0.1704  0.2804 -0.3255
  189POPC  H10X21830   0.534   4.307   9.173 -0.9685  0.8524 -0.2949
  189POPC  H10Y21831   0.679   4.330   9.268 -0.6645 -0.4479 -0.2639
  189POPC  C31121832   0.642   4.484   9.115 -0.2300 -0.0015 -0.3658
  189POPC  H11X21833   0.735   4.534   9.150 -0.7074  0.3395  0.4129
  189POPC  H11Y21834   0.578   4.572   9.092  0.8658  0.8560 -0.1758
  189POPC  C31221835   0.654   4.425   8.976  0.5830  0.3591 -0.2112
  189POPC  H12X21836   0.554   4.391   8.944 -0.4667  1.2420  1.9717
  189POPC  H12Y21837   0.714   4.333   8.994  1.6536  0.5848 -2.5472
  189POPC  C31321838   0.734   4.507   8.865 -0.1764  0.5082 -0.2894
  189POPC  H13X21839   0.837   4.530   8.897  0.7194  2.6969 -4.4978
  189POPC  H13Y21840   0.678   4.597   8.832 -1.1621 -0.1873 -0.5551
  189POPC  C31421841   0.769   4.428   8.741  0.2129  0.5109  0.3626
  189POPC  H14X21842   0.677   4.410   8.682  0.7049 -0.5608 -0.0976
  189POPC  H14Y21843   0.801   4.329   8.780 -1.9291  0.4705  2.1026
  189POPC  C31521844   0.869   4.496   8.652 -0.1429  0.5175 -0.4486
  189POPC  H15X21845   0.959   4.522   8.712  0.5063 -2.8872  0.2071
  189POPC  H15Y21846   0.827   4.586   8.603 -1.8667 -0.0555 -0.0696
  189POPC  C31621847   0.919   4.406   8.543 -0.0621 -0.0024 -0.7165
  189POPC  H16X21848   0.939   4.303   8.578  0.2323 -0.3249 -1.8336
  189POPC  H16Y21849   1.005   4.450   8.489 -0.3133  0.1810 -0.9692
  189POPC  H16Z21850   0.845   4.388   8.462 -0.6734  1.8475 -0.6012
  190POPC     N21851   2.549   0.866  11.268  0.3989  0.4511 -0.3507
  190POPC   C1221852   2.521   0.942  11.139  0.6236  0.1381  0.3800
  190POPC  H12A21853   2.586   1.028  11.130 -0.6598  1.2808  1.5961
  190POPC  H12B21854   2.421   0.983  11.142  0.9275  0.8209  2.4322
  190POPC   C1321855   2.687   0.807  11.259 -0.0286 -0.1510  0.5556
  190POPC  H13A21856   2.761   0.885  11.250 -0.4933  0.3352  0.9105
  190POPC  H13B21857   2.705   0.752  11.350 -2.5935 -2.4868 -0.2658
  190POPC  H13C21858   2.689   0.751  11.167  0.5552 -2.1598  1.7601
  190POPC   C1421859   2.550   0.949  11.391  0.8516 -0.4673  0.3198
  190POPC  H14A21860   2.582   0.896  11.480 -0.5868 -0.3986  0.8910
  190POPC  H14B21861   2.608   1.038  11.377 -1.5209  1.1226  0.2317
  190POPC  H14C21862   2.448   0.981  11.409 -0.0096 -1.6121 -2.2923
  190POPC   C1521863   2.449   0.761  11.289  0.4637 -0.4128  0.1851
  190POPC  H15A21864   2.435   0.700  11.202 -0.9068  0.6946 -0.3998
  190POPC  H15B21865   2.347   0.798  11.298  0.8047 -0.0614  3.0812
  190POPC  H15C21866   2.456   0.702  11.379 -1.3104 -3.3898 -1.5562
  190POPC   C1121867   2.523   0.856  11.012  0.2020 -0.3748 -0.2937
  190POPC  H11A21868   2.623   0.808  11.000 -0.7372 -2.7560  1.0478
  190POPC  H11B21869   2.512   0.924  10.925  1.3662 -1.8455 -1.6385
  190POPC     P21870   2.272   0.775  10.969 -0.2896  0.1449  0.0517
  190POPC   O1321871   2.208   0.879  11.048 -0.1311 -0.1103 -0.2175
  190POPC   O1421872   2.203   0.642  10.961 -0.5759  0.0317 -0.1141
  190POPC   O1221873   2.423   0.752  11.019 -0.6282 -0.1505  0.4176
  190POPC   O1121874   2.280   0.842  10.828 -0.1559  0.4800  0.4370
  190POPC    C121875   2.362   0.780  10.728  0.2030 -0.2831 -0.6054
  190POPC    HA21876   2.305   0.696  10.682 -0.7283  1.0239 -1.8920
  190POPC    HB21877   2.456   0.733  10.764 -1.3397 -1.7227  1.6158
  190POPC    C221878   2.389   0.877  10.612  0.5905 -0.2895 -0.2741
  190POPC    HS21879   2.450   0.961  10.650 -0.5720 -0.3672  1.8091
  190POPC   O2121880   2.260   0.928  10.567 -0.0799 -0.1758 -0.1470
  190POPC   C2121881   2.267   1.038  10.503  0.1786  0.6798  0.0015
  190POPC   O2221882   2.366   1.101  10.471 -0.2539 -0.2137  0.8774
  190POPC   C2221883   2.123   1.072  10.459 -0.0024 -0.2224 -0.0336
  190POPC   H2R21884   2.065   1.059  10.553 -0.5817  1.5484 -0.1319
  190POPC   H2S21885   2.078   0.996  10.393 -1.6196  0.6014  0.0965
  190POPC    C321886   2.466   0.804  10.495  0.1329  0.2568 -0.7767
  190POPC    HX21887   2.561   0.773  10.542 -0.4256 -1.4180 -0.7213
  190POPC    HY21888   2.498   0.877  10.418  1.2373  1.4023  0.7411
  190POPC   O3121889   2.389   0.692  10.430  0.1409 -0.0448 -0.5228
  190POPC   C3121890   2.439   0.568  10.441 -0.4383  0.0095 -1.3986
  190POPC   O3221891   2.544   0.540  10.492  0.4229  0.1789 -0.0979
  190POPC   C3221892   2.335   0.459  10.410 -0.5178 -0.5406 -0.4303
  190POPC   H2X21893   2.245   0.518  10.384 -1.1765 -0.5716  1.7021
  190POPC   H2Y21894   2.316   0.410  10.508  2.0822  0.2675  0.5389
  190POPC   C2321895   2.101   1.217  10.398  0.1496 -0.0931 -0.1890
  190POPC   H3R21896   2.168   1.244  10.314 -1.6432  2.6137 -0.8349
  190POPC   H3S21897   2.123   1.289  10.480 -0.8227 -0.5447  0.4904
  190POPC   C2421898   1.953   1.238  10.354  0.0764 -0.2808  0.4879
  190POPC   H4R21899   1.946   1.349  10.344  2.7002 -0.0513  0.8756
  190POPC   H4S21900   1.887   1.198  10.434  0.6272 -1.0744  0.5435
  190POPC   C2521901   1.905   1.172  10.220 -0.0850 -0.6920 -0.5106
  190POPC   H5R21902   1.794   1.183  10.227  0.0716 -0.6893  2.7221
  190POPC   H5S21903   1.931   1.064  10.223  1.1083 -0.3779  0.6869
  190POPC   C2621904   1.950   1.242  10.095  0.3762  0.4066 -0.4279
  190POPC   H6R21905   2.061   1.252  10.096  0.3955  0.3902  3.0672
  190POPC   H6S21906   1.906   1.344  10.090 -1.3689 -0.3336 -0.4585
  190POPC   C2721907   1.903   1.171   9.967 -0.0851 -0.6067  0.2875
  190POPC   H7R21908   1.912   1.065   9.997 -1.5751 -0.5064  1.1651
  190POPC   H7S21909   1.971   1.183   9.879  1.8725  0.1562  1.8607
  190POPC   C2821910   1.757   1.211   9.936 -0.4913  0.5718  0.3650
  190POPC   H8R21911   1.782   1.309   9.889  0.9925  1.0111  2.0105
  190POPC   H8S21912   1.693   1.227  10.025 -1.5830 -3.5237  0.3718
  190POPC   C2921913   1.683   1.123   9.836 -0.5710 -0.6038  0.3078
  190POPC   H9121914   1.667   1.021   9.874  4.2238 -1.0212  1.6413
  190POPC  C21021915   1.642   1.166   9.717 -0.1666 -0.0047 -0.1866
  190POPC  H10121916   1.583   1.096   9.656 -0.3162  1.1516 -1.3845
  190POPC  C21121917   1.668   1.302   9.656  0.2561 -0.0706  0.0333
  190POPC  H11R21918   1.681   1.385   9.728  0.5443  0.4071 -0.5705
  190POPC  H11S21919   1.574   1.310   9.598 -0.1560 -2.4435  0.2992
  190POPC  C21221920   1.788   1.316   9.559  0.4162 -0.3166  0.4215
  190POPC  H12R21921   1.882   1.300   9.616  1.2827  0.0979 -0.8840
  190POPC  H12S21922   1.774   1.419   9.519  0.5128 -1.0790 -1.6672
  190POPC  C21321923   1.791   1.211   9.446 -0.9724  0.7145  0.5812
  190POPC  H13R21924   1.698   1.211   9.384 -0.1788 -1.7089 -0.6732
  190POPC  H13S21925   1.811   1.109   9.484  1.8368  1.7855  2.0843
  190POPC  C21421926   1.895   1.242   9.340 -0.8562  0.3538  0.4515
  190POPC  H14R21927   1.993   1.230   9.392 -1.5923 -0.6032  1.6361
  190POPC  H14S21928   1.879   1.349   9.316  1.7897  0.2308 -2.1068
  190POPC  C21521929   1.873   1.136   9.231 -0.0767 -0.2417  0.2824
  190POPC  H15R21930   1.767   1.125   9.203 -0.0380  0.9310 -0.3802
  190POPC  H15S21931   1.890   1.042   9.287  1.1732 -0.9377 -1.2454
  190POPC  C21621932   1.970   1.152   9.118 -0.4571 -0.0673 -0.8015
  190POPC  H16R21933   2.072   1.142   9.162  0.3813 -0.2547 -2.7587
  190POPC  H16S21934   1.971   1.253   9.070  0.1010 -0.0035 -0.6618
  190POPC  C21721935   1.963   1.038   9.015  0.4114 -0.2724  0.3126
  190POPC  H17R21936   2.028   1.058   8.928  1.3551 -0.6930  0.9208
  190POPC  H17S21937   1.861   1.011   8.980 -1.2135  3.6488  1.6600
  190POPC  C21821938   2.022   0.914   9.082  0.1268  0.3112  0.7231
  190POPC  H18R21939   2.122   0.941   9.123 -0.1590  0.8765  1.0413
  190POPC  H18S21940   2.031   0.828   9.011  0.1782  0.4282  0.5874
  190POPC  H18T21941   1.974   0.879   9.176 -2.0993  1.6118  0.0898
  190POPC   C3321942   2.373   0.347  10.312 -1.1816 -0.0941  0.3141
  190POPC   H3X21943   2.320   0.252  10.332  1.3340 -1.5001  0.5009
  190POPC   H3Y21944   2.480   0.320  10.326 -0.6696  1.8437  0.3471
  190POPC   C3421945   2.353   0.392  10.165 -0.0359 -0.2575  0.0103
  190POPC   H4X21946   2.416   0.481  10.143 -1.4020  0.2539 -2.0253
  190POPC   H4Y21947   2.243   0.409  10.166 -0.0768 -0.2823  3.8763
  190POPC   C3521948   2.386   0.278  10.068  0.0942 -0.0029  0.0727
  190POPC   H5X21949   2.337   0.181  10.091 -0.4579  0.1706 -0.3614
  190POPC   H5Y21950   2.497   0.273  10.066  0.0624 -0.3658 -1.1255
  190POPC   C3621951   2.323   0.315   9.923  0.0605 -0.1828 -0.8497
  190POPC   H6X21952   2.359   0.419   9.906  0.4497  0.0635  1.2591
  190POPC   H6Y21953   2.215   0.327   9.945  0.4680  0.4506  0.9203
  190POPC   C3721954   2.357   0.212   9.819 -0.4223  0.4236  0.7222
  190POPC   H7X21955   2.315   0.113   9.848 -1.1874  0.3761 -0.4848
  190POPC   H7Y21956   2.465   0.188   9.814 -0.3781  0.8715 -0.6918
  190POPC   C3821957   2.309   0.263   9.681 -0.0321 -0.3277  0.8070
  190POPC   H8X21958   2.362   0.358   9.656 -0.3294 -0.4552 -0.3342
  190POPC   H8Y21959   2.199   0.271   9.681 -0.0561 -0.5910  0.0730
  190POPC   C3921960   2.343   0.167   9.573 -0.3249 -0.4336 -0.6209
  190POPC   H9X21961   2.292   0.070   9.593 -1.4889  1.1622  4.8494
  190POPC   H9Y21962   2.453   0.155   9.566 -0.3254 -1.1998  0.5448
  190POPC  C31021963   2.300   0.220   9.433  0.1628  0.1911 -0.8308
  190POPC  H10X21964   2.343   0.321   9.414  0.2244  0.3725  0.2406
  190POPC  H10Y21965   2.190   0.221   9.442  0.2812 -1.2164  1.1548
  190POPC  C31121966   2.337   0.127   9.315 -0.0922 -0.2200 -0.4660
  190POPC  H11X21967   2.271   0.039   9.331 -1.2955  0.8590  0.6219
  190POPC  H11Y21968   2.443   0.097   9.328 -0.5973 -0.5903  3.5788
  190POPC  C31221969   2.319   0.185   9.175  0.3935  0.2267  0.2150
  190POPC  H12X21970   2.395   0.265   9.161 -0.0581  0.4888 -0.7689
  190POPC  H12Y21971   2.217   0.229   9.165  0.4319  0.7155  1.8051
  190POPC  C31321972   2.343   0.077   9.073  0.3267 -0.6227 -0.6858
  190POPC  H13X21973   2.320  -0.022   9.117  0.4044 -0.8578 -1.1630
  190POPC  H13Y21974   2.451   0.080   9.046  0.7786  1.1551  1.2005
  190POPC  C31421975   2.248   0.098   8.948  0.4231  0.5453 -0.4777
  190POPC  H14X21976   2.231   0.206   8.929  1.5656  0.9722  0.8208
  190POPC  H14Y21977   2.154   0.061   8.993 -0.5048 -0.6029 -3.2541
  190POPC  C31521978   2.289   0.018   8.829 -0.0604  0.2350  0.6554
  190POPC  H15X21979   2.390   0.046   8.791  0.4066 -0.9898  0.9613
  190POPC  H15Y21980   2.216   0.034   8.747 -1.8221 -1.6797  1.8218
  190POPC  C31621981   2.294  -0.137   8.855 -0.4397 -0.6451  0.0565
  190POPC  H16X21982   2.305  -0.193   8.759 -0.2345 -1.8241  0.7576
  190POPC  H16Y21983   2.205  -0.169   8.913 -0.5834  1.4292  1.0148
  190POPC  H16Z21984   2.373  -0.160   8.929 -0.1512  0.9606  0.2733
  191POPC     N21985   2.994   0.840   6.021 -0.2450 -0.3553  0.8403
  191POPC   C1221986   3.080   0.856   6.143 -0.7573 -0.5731 -0.4450
  191POPC  H12A21987   3.168   0.797   6.123  0.5226  1.3882 -0.7697
  191POPC  H12B21988   3.045   0.806   6.232 -0.2791 -0.6215 -0.2835
  191POPC   C1321989   3.052   0.921   5.913 -1.0609 -0.9388  0.0632
  191POPC  H13A21990   3.159   0.911   5.923 -1.0627  0.1967  1.3909
  191POPC  H13B21991   3.019   0.890   5.815  2.7869  0.3477 -1.7366
  191POPC  H13C21992   3.030   1.027   5.922 -0.4800 -0.6808 -1.4435
  191POPC   C1421993   2.989   0.690   5.990  0.7026  0.0068 -0.1919
  191POPC  H14A21994   2.970   0.633   6.080  1.3489  0.2558  0.1081
  191POPC  H14B21995   2.910   0.668   5.920  0.4414 -0.5547  0.2700
  191POPC  H14C21996   3.082   0.665   5.941  0.9429 -1.2278  0.8625
  191POPC   C1521997   2.859   0.894   6.056 -0.4152 -0.4971 -0.4266
  191POPC  H15A21998   2.792   0.906   5.972  1.8010 -2.0455 -2.4990
  191POPC  H15B21999   2.862   0.990   6.105 -1.4116 -0.3116 -0.7226
  191POPC  H15C22000   2.812   0.826   6.126 -1.4338  0.9637  0.3416
  191POPC   C1122001   3.135   0.995   6.187  0.5986 -0.0770  0.1246
  191POPC  H11A22002   3.175   1.037   6.092 -0.9011 -0.4685 -0.6941
  191POPC  H11B22003   3.209   0.984   6.269  1.7193 -0.1626 -0.8758
  191POPC     P22004   2.947   1.079   6.351 -0.0697 -0.0847  0.3067
  191POPC   O1322005   2.809   1.038   6.327 -0.4992  0.5673  0.0908
  191POPC   O1422006   2.963   1.210   6.414  0.3261  0.0687 -0.1431
  191POPC   O1222007   3.036   1.088   6.219  0.6678  0.1063  0.1602
  191POPC   O1122008   3.028   0.969   6.434  0.4993 -0.0832  0.3070
  191POPC    C122009   2.955   0.907   6.541 -0.2448 -0.3904 -0.1207
  191POPC    HA22010   2.956   0.797   6.525  1.0318 -0.6427  1.5252
  191POPC    HB22011   2.851   0.941   6.557  0.6074  2.8002 -0.9821
  191POPC    C222012   3.021   0.937   6.679 -0.2583  0.1523  0.4283
  191POPC    HS22013   2.982   0.863   6.751 -1.5976 -0.8984 -1.3453
  191POPC   O2122014   2.999   1.069   6.716  0.1716 -0.4696 -0.4068
  191POPC   C2122015   2.886   1.096   6.792 -0.0938  0.6229  0.6989
  191POPC   O2222016   2.822   1.009   6.846  0.6329  0.0846  0.1797
  191POPC   C2222017   2.865   1.250   6.792 -0.3324  0.0775  0.3491
  191POPC   H2R22018   2.780   1.271   6.724 -0.0420  0.1372 -0.0035
  191POPC   H2S22019   2.954   1.294   6.741 -0.2193 -0.6139 -0.0504
  191POPC    C322020   3.181   0.922   6.667 -0.3490 -0.1359 -0.0410
  191POPC    HX22021   3.224   1.006   6.608 -0.3355  1.2137  1.8433
  191POPC    HY22022   3.205   0.825   6.620  0.5414 -0.4893  1.1225
  191POPC   O3122023   3.242   0.910   6.798  0.0633  0.1046 -0.3424
  191POPC   C3122024   3.280   1.031   6.849 -0.3556  0.2198  0.6466
  191POPC   O3222025   3.267   1.141   6.791 -0.0475 -0.4326  0.1719
  191POPC   C3222026   3.344   1.020   6.992 -0.0610  0.1306  0.5934
  191POPC   H2X22027   3.385   1.120   7.018 -2.2597  1.8167 -2.1520
  191POPC   H2Y22028   3.429   0.948   6.989 -1.7898 -1.9176 -0.8084
  191POPC   C2322029   2.845   1.320   6.930 -0.0970  0.5689 -0.7135
  191POPC   H3R22030   2.761   1.270   6.981 -0.9571  0.2289 -2.4169
  191POPC   H3S22031   2.825   1.429   6.920 -1.0558  0.4463 -0.1012
  191POPC   C2422032   2.983   1.325   7.007 -0.9859  0.2186  0.2879
  191POPC   H4R22033   3.059   1.360   6.934  0.1302  0.3904  1.5251
  191POPC   H4S22034   3.010   1.221   7.037 -0.8076  0.4410  0.9143
  191POPC   C2522035   2.983   1.420   7.121 -0.4117  0.1298  0.0797
  191POPC   H5R22036   2.902   1.399   7.195 -1.4963 -2.2098 -1.7237
  191POPC   H5S22037   2.959   1.520   7.077  3.5594 -0.4157 -3.5792
  191POPC   C2622038   3.116   1.424   7.195  0.3961 -0.8240 -0.0744
  191POPC   H6R22039   3.194   1.474   7.135 -0.1864  1.9629  1.4123
  191POPC   H6S22040   3.139   1.323   7.237  2.1123  0.0081  1.0458
  191POPC   C2722041   3.103   1.523   7.315 -0.2379 -0.4057 -0.5219
  191POPC   H7R22042   3.021   1.492   7.383 -1.7936  1.0535 -1.6992
  191POPC   H7S22043   3.081   1.621   7.267 -0.3431 -0.1957 -0.0417
  191POPC   C2822044   3.240   1.520   7.391  0.4173  0.1666 -0.5008
  191POPC   H8R22045   3.314   1.564   7.321  1.7259 -1.4174 -0.1458
  191POPC   H8S22046   3.271   1.415   7.408 -1.4189 -0.4846 -1.0150
  191POPC   C2922047   3.239   1.604   7.517 -0.0173  0.2234  1.2054
  191POPC   H9122048   3.249   1.712   7.499  1.9716 -0.0345  0.6872
  191POPC  C21022049   3.232   1.557   7.635 -0.0995 -0.4772  0.4532
  191POPC  H10122050   3.247   1.619   7.724  2.3173  0.2891 -0.4530
  191POPC  C21122051   3.224   1.416   7.691 -0.1678  0.0527  0.0080
  191POPC  H11R22052   3.263   1.344   7.615 -0.6561  0.0010 -0.1942
  191POPC  H11S22053   3.119   1.383   7.701  0.2368 -0.7496  1.6567
  191POPC  C21222054   3.294   1.392   7.825 -0.0649 -0.4725 -0.0671
  191POPC  H12R22055   3.403   1.413   7.819  0.4393 -3.2068 -1.3134
  191POPC  H12S22056   3.278   1.287   7.857  1.3999 -1.2505 -1.7516
  191POPC  C21322057   3.234   1.466   7.948 -0.1697  0.8703 -0.0312
  191POPC  H13R22058   3.124   1.462   7.932 -0.0565 -1.0573 -0.5305
  191POPC  H13S22059   3.278   1.568   7.941  0.3124  0.5404 -2.1023
  191POPC  C21422060   3.278   1.399   8.080  0.0297 -0.3583 -0.8372
  191POPC  H14R22061   3.387   1.376   8.075 -0.1717 -2.0229  1.6187
  191POPC  H14S22062   3.237   1.296   8.091  0.6039 -0.2255  3.5715
  191POPC  C21522063   3.221   1.475   8.206  0.2259  0.8022 -0.0589
  191POPC  H15R22064   3.122   1.428   8.226  0.1613  0.6949 -0.6061
  191POPC  H15S22065   3.192   1.577   8.173 -1.7756  0.5414  0.8329
  191POPC  C21622066   3.308   1.455   8.329  0.4025  0.1576 -0.1114
  191POPC  H16R22067   3.413   1.493   8.323  2.0479 -3.8480  1.4622
  191POPC  H16S22068   3.322   1.345   8.331  3.4311  0.4700 -0.8646
  191POPC  C21722069   3.237   1.500   8.465  0.0603  0.2914  0.0855
  191POPC  H17R22070   3.137   1.454   8.471 -0.5018  1.5375  0.5258
  191POPC  H17S22071   3.225   1.610   8.456  0.2563  0.3091  0.0274
  191POPC  C21822072   3.317   1.457   8.590  1.3730 -0.6400  0.2737
  191POPC  H18R22073   3.405   1.517   8.620  0.6425  0.6857 -0.2170
  191POPC  H18S22074   3.355   1.355   8.567  2.3598 -0.1125 -0.4913
  191POPC  H18T22075   3.241   1.451   8.671  1.0909  1.4810  0.1874
  191POPC   C3322076   3.246   0.976   7.098 -0.3141  0.3682 -0.0810
  191POPC   H3X22077   3.212   0.871   7.091  0.3536 -0.0320  2.1136
  191POPC   H3Y22078   3.158   1.041   7.079 -1.2290 -0.6938  0.5203
  191POPC   C3422079   3.291   0.992   7.241 -0.8069  0.0624 -0.0104
  191POPC   H4X22080   3.372   0.919   7.262 -0.8220 -0.0817 -0.4577
  191POPC   H4Y22081   3.208   0.971   7.312  1.3376 -0.5381  2.3833
  191POPC   C3522082   3.360   1.120   7.291 -1.1327  1.4914  0.4884
  191POPC   H5X22083   3.336   1.212   7.234 -0.4088  1.8897  0.8217
  191POPC   H5Y22084   3.470   1.106   7.285 -1.4112 -0.8897  0.4460
  191POPC   C3622085   3.330   1.156   7.438 -0.2805 -0.4100 -0.7976
  191POPC   H6X22086   3.219   1.162   7.440 -0.4349 -2.7398 -0.3446
  191POPC   H6Y22087   3.376   1.255   7.459 -1.0640  0.1471 -1.6624
  191POPC   C3722088   3.367   1.043   7.535  0.1747 -0.2411  0.5820
  191POPC   H7X22089   3.475   1.029   7.517  0.2327 -0.4041  1.0345
  191POPC   H7Y22090   3.312   0.950   7.506 -1.4384  0.9777 -0.3104
  191POPC   C3822091   3.360   1.079   7.687  1.1509  0.6386 -0.3712
  191POPC   H8X22092   3.254   1.083   7.719  0.4966 -1.4817 -2.1114
  191POPC   H8Y22093   3.404   1.180   7.703 -1.1254  1.5697  0.1275
  191POPC   C3922094   3.437   0.981   7.779 -0.1488 -0.8184 -0.4136
  191POPC   H9X22095   3.542   0.966   7.748 -0.5725 -0.2700 -2.1721
  191POPC   H9Y22096   3.384   0.884   7.789 -2.8753  0.8810  2.9136
  191POPC  C31022097   3.438   1.025   7.930  0.3719 -0.1025  0.5227
  191POPC  H10X22098   3.336   1.017   7.974  0.5862  0.6426  1.1646
  191POPC  H10Y22099   3.473   1.130   7.941  3.6889 -1.0841 -0.1286
  191POPC  C31122100   3.537   0.941   8.010  0.0527  0.7626  0.6358
  191POPC  H11X22101   3.632   0.969   7.961  0.6822  1.1125  2.0252
  191POPC  H11Y22102   3.516   0.836   7.980 -1.0053  0.9933  0.5575
  191POPC  C31222103   3.540   0.960   8.158  0.0938  0.0185  0.7013
  191POPC  H12X22104   3.446   0.931   8.211 -0.9201 -2.0691 -2.1383
  191POPC  H12Y22105   3.554   1.069   8.178 -0.5420  0.3876 -0.8428
  191POPC  C31322106   3.656   0.878   8.219  0.4660 -1.5460  0.2886
  191POPC  H13X22107   3.749   0.884   8.158  1.9451  0.3663  2.6126
  191POPC  H13Y22108   3.625   0.772   8.233  0.2954 -1.8117 -2.0656
  191POPC  C31422109   3.687   0.923   8.359  0.7217  1.2127 -0.2124
  191POPC  H14X22110   3.612   0.888   8.433  0.0762  1.1626 -0.8869
  191POPC  H14Y22111   3.694   1.034   8.355 -0.2332  1.3956  2.1003
  191POPC  C31522112   3.821   0.871   8.404  0.1169 -0.5647 -0.1682
  191POPC  H15X22113   3.883   0.870   8.312  0.0327 -4.3360 -0.2687
  191POPC  H15Y22114   3.803   0.770   8.446 -0.5267  0.3595  1.8194
  191POPC  C31622115   3.896   0.955   8.508 -0.4831  0.5465 -0.0534
  191POPC  H16X22116   3.834   1.000   8.588  1.7247  1.7423  1.0351
  191POPC  H16Y22117   3.947   1.036   8.451  0.6771  0.2841  0.5976
  191POPC  H16Z22118   3.978   0.896   8.555 -1.4429 -0.4547  0.3853
  192POPC     N22119   2.322   3.228   6.136  0.1368  0.2984 -0.0236
  192POPC   C1222120   2.396   3.250   6.270  1.3690 -0.0501 -0.0119
  192POPC  H12A22121   2.498   3.216   6.258  1.3069  0.1878 -1.2894
  192POPC  H12B22122   2.353   3.185   6.345 -0.9559 -0.7007 -1.8577
  192POPC   C1322123   2.404   3.285   6.024  0.9856  0.6835 -0.2920
  192POPC  H13A22124   2.489   3.223   6.001 -0.9590 -1.7841 -1.1638
  192POPC  H13B22125   2.348   3.291   5.932 -1.2354 -1.8293  0.7980
  192POPC  H13C22126   2.433   3.384   6.055  2.1425  0.6409 -1.2312
  192POPC   C1422127   2.309   3.082   6.096  0.3362  0.0366  0.2103
  192POPC  H14A22128   2.272   3.022   6.178 -1.1575  0.0451 -0.4239
  192POPC  H14B22129   2.230   3.069   6.023  1.9882 -1.3734 -1.3544
  192POPC  H14C22130   2.396   3.020   6.081 -1.7798 -3.1696  0.6271
  192POPC   C1522131   2.185   3.288   6.142  0.1569 -0.1819  0.0566
  192POPC  H15A22132   2.110   3.245   6.207 -0.4122  2.7222  1.4248
  192POPC  H15B22133   2.143   3.292   6.043 -1.5276  2.8401  0.8156
  192POPC  H15C22134   2.203   3.391   6.169  2.1866 -0.8373  1.3313
  192POPC   C1122135   2.398   3.397   6.328 -0.3274  0.3230  0.5829
  192POPC  H11A22136   2.447   3.387   6.427 -0.6331 -1.0937  0.6014
  192POPC  H11B22137   2.293   3.433   6.340  0.3668  2.3708  0.6816
  192POPC     P22138   2.476   3.629   6.244  0.1429 -0.5673 -0.0566
  192POPC   O1322139   2.344   3.686   6.289 -0.3350 -0.3624 -0.1536
  192POPC   O1422140   2.506   3.661   6.100 -0.5286 -0.4945 -0.2154
  192POPC   O1222141   2.485   3.471   6.253 -0.9333  0.1055  0.1393
  192POPC   O1122142   2.596   3.671   6.339  0.0073  0.2125 -0.4364
  192POPC    C122143   2.708   3.741   6.295 -0.1883  0.2087  0.3076
  192POPC    HA22144   2.717   3.741   6.184 -0.1802 -2.4038  0.2783
  192POPC    HB22145   2.800   3.687   6.327 -1.3773 -1.9850  0.1570
  192POPC    C222146   2.717   3.885   6.356  1.0954  0.0193  0.3990
  192POPC    HS22147   2.801   3.932   6.300  0.1288  0.3845 -0.7749
  192POPC   O2122148   2.739   3.886   6.498 -0.9789 -0.2190  0.4000
  192POPC   C2122149   2.864   3.849   6.542  0.0504 -0.0360 -0.5048
  192POPC   O2222150   2.960   3.828   6.471  0.2672  0.3400 -0.5349
  192POPC   C2222151   2.865   3.865   6.698 -0.4365 -0.0427 -0.6050
  192POPC   H2R22152   2.786   3.797   6.735  1.9866 -2.6811 -0.0716
  192POPC   H2S22153   2.826   3.965   6.724 -1.1817 -0.1269 -1.3529
  192POPC    C322154   2.593   3.966   6.327  0.1333  0.6047 -0.9405
  192POPC    HX22155   2.515   3.933   6.398  1.0289  0.1388 -0.1628
  192POPC    HY22156   2.546   3.944   6.228  3.8448 -1.3070 -2.3695
  192POPC   O3122157   2.613   4.110   6.344  0.0476  0.0718 -0.0585
  192POPC   C3122158   2.505   4.184   6.354 -0.6157  0.1733  0.0753
  192POPC   O3222159   2.394   4.145   6.353  0.4873  0.6893 -0.6500
  192POPC   C3222160   2.543   4.326   6.373  0.5736  0.6660 -0.1935
  192POPC   H2X22161   2.456   4.385   6.339  1.4604  1.5676 -0.9360
  192POPC   H2Y22162   2.633   4.341   6.309  0.8562 -0.1834 -0.0081
  192POPC   C2322163   3.007   3.844   6.764  0.3007  0.4961  0.1744
  192POPC   H3R22164   3.082   3.899   6.704  0.2754  1.0148  0.6133
  192POPC   H3S22165   3.037   3.737   6.760  2.5378  1.1419 -1.2699
  192POPC   C2422166   3.019   3.886   6.909  1.1395 -0.0937 -0.0435
  192POPC   H4R22167   2.954   3.974   6.929 -1.1345 -1.0058 -3.0592
  192POPC   H4S22168   3.123   3.901   6.945  1.4451 -0.3077 -0.8337
  192POPC   C2522169   2.953   3.779   7.002  0.2568  0.7102  0.5892
  192POPC   H5R22170   2.984   3.676   6.978 -0.5695  0.8175 -0.9405
  192POPC   H5S22171   2.842   3.788   6.995  0.1052 -0.5146  1.3113
  192POPC   C2622172   2.990   3.790   7.155  0.5269  0.4145  1.1925
  192POPC   H6R22173   3.094   3.754   7.170  0.3516 -2.0467 -2.8434
  192POPC   H6S22174   2.917   3.730   7.213 -1.0042 -0.5315 -1.6179
  192POPC   C2722175   2.990   3.932   7.206  0.3334 -0.1881 -0.1139
  192POPC   H7R22176   2.886   3.971   7.199  1.1961  2.3840  1.0299
  192POPC   H7S22177   3.051   4.008   7.154  0.3863 -1.2418 -1.6466
  192POPC   C2822178   3.032   3.936   7.354  0.2366  0.1313  0.4109
  192POPC   H8R22179   2.976   3.848   7.394  0.9722 -0.8877 -0.7817
  192POPC   H8S22180   2.992   4.030   7.396 -0.0034  0.3390 -0.2832
  192POPC   C2922181   3.183   3.918   7.384  0.0924  0.2392  0.6259
  192POPC   H9122182   3.246   3.988   7.327 -0.2258 -0.5255 -0.6796
  192POPC  C21022183   3.239   3.822   7.462  0.3781  0.5855  0.3964
  192POPC  H10122184   3.343   3.829   7.497  1.1575  0.8986 -1.9138
  192POPC  C21122185   3.158   3.727   7.545 -0.2696 -0.3846  0.1439
  192POPC  H11R22186   3.228   3.646   7.574 -0.4503 -0.3098  0.7982
  192POPC  H11S22187   3.081   3.685   7.476 -0.3876 -3.1041  1.8636
  192POPC  C21222188   3.099   3.798   7.668 -0.1731 -0.8872  0.6735
  192POPC  H12R22189   3.023   3.734   7.718  0.2458 -2.1639 -0.3179
  192POPC  H12S22190   3.055   3.894   7.633  0.8075 -0.4817  0.5506
  192POPC  C21322191   3.202   3.838   7.777 -0.1853  0.7261 -0.0667
  192POPC  H13R22192   3.150   3.909   7.845 -0.7854 -1.1669  1.4890
  192POPC  H13S22193   3.285   3.890   7.725  0.9383 -1.8811 -0.9757
  192POPC  C21422194   3.252   3.723   7.866  0.4018 -0.1388  0.5611
  192POPC  H14R22195   3.317   3.656   7.805 -1.6720 -0.2562 -1.5899
  192POPC  H14S22196   3.160   3.665   7.891 -0.0769  0.5385  0.3987
  192POPC  C21522197   3.315   3.783   7.984  0.4283 -0.2036  0.6111
  192POPC  H15R22198   3.234   3.833   8.041  1.1269 -0.9073  2.2486
  192POPC  H15S22199   3.396   3.851   7.950  1.1878 -0.2407  2.2762
  192POPC  C21622200   3.367   3.680   8.092 -0.4837 -1.0536 -0.9188
  192POPC  H16R22201   3.459   3.640   8.046  0.2682  0.3508 -0.6595
  192POPC  H16S22202   3.289   3.601   8.101  1.9561 -3.6373 -1.6089
  192POPC  C21722203   3.391   3.746   8.237 -0.1274 -0.2230  0.0576
  192POPC  H17R22204   3.288   3.765   8.274  0.7108  1.5244  1.5656
  192POPC  H17S22205   3.434   3.846   8.216 -0.2289  0.0446  1.1079
  192POPC  C21822206   3.480   3.671   8.336 -0.3771  0.3899  0.2167
  192POPC  H18R22207   3.571   3.629   8.289 -1.0337  0.1454 -0.8689
  192POPC  H18S22208   3.409   3.600   8.382  1.3665  0.1582  2.6429
  192POPC  H18T22209   3.506   3.741   8.418  1.5549 -1.6471  1.3699
  192POPC   C3322210   2.556   4.376   6.519  0.7333  0.7252  0.3147
  192POPC   H3X22211   2.469   4.342   6.579  1.0206 -1.7409 -0.6010
  192POPC   H3Y22212   2.548   4.487   6.517 -0.7468  0.6051 -1.7255
  192POPC   C3422213   2.692   4.332   6.573 -0.6757  0.3248  0.1342
  192POPC   H4X22214   2.738   4.417   6.626  3.4410 -1.9379  0.4003
  192POPC   H4Y22215   2.766   4.317   6.491  1.8597 -1.2991  2.6508
  192POPC   C3522216   2.681   4.199   6.657  0.0192  0.0793  0.5829
  192POPC   H5X22217   2.784   4.160   6.670 -0.1288 -0.4411  0.1950
  192POPC   H5Y22218   2.614   4.120   6.618 -0.2633 -1.3328  3.7513
  192POPC   C3622219   2.649   4.239   6.809 -0.5933 -0.1420 -0.0920
  192POPC   H6X22220   2.559   4.304   6.821  0.3330  0.9083  1.4070
  192POPC   H6Y22221   2.730   4.305   6.846  0.4380 -0.5092 -1.6683
  192POPC   C3722222   2.632   4.120   6.907 -0.2269 -0.5944  0.2887
  192POPC   H7X22223   2.714   4.049   6.886  2.6740  2.5974  0.4319
  192POPC   H7Y22224   2.542   4.057   6.888  0.0057 -0.6105 -0.7995
  192POPC   C3822225   2.616   4.155   7.053  0.0841 -0.2613 -0.2628
  192POPC   H8X22226   2.608   4.065   7.117  1.1915 -0.6946 -0.7269
  192POPC   H8Y22227   2.522   4.215   7.055 -0.8124 -1.6617  0.0941
  192POPC   C3922228   2.724   4.242   7.116 -0.0002 -0.2750 -0.5303
  192POPC   H9X22229   2.734   4.340   7.064  0.7062  0.4904  1.0123
  192POPC   H9Y22230   2.821   4.189   7.103 -1.1422 -1.5484 -4.8607
  192POPC  C31022231   2.685   4.257   7.258  0.1721  0.0872  0.2721
  192POPC  H10X22232   2.645   4.164   7.305 -0.3344  1.6095  2.9443
  192POPC  H10Y22233   2.607   4.335   7.253  2.1098  2.1054  0.7943
  192POPC  C31122234   2.797   4.308   7.348  0.2186 -0.6574 -0.4646
  192POPC  H11X22235   2.841   4.398   7.302 -0.2070 -1.2463 -2.0427
  192POPC  H11Y22236   2.873   4.229   7.363  2.3180  1.4661  0.4992
  192POPC  C31222237   2.751   4.336   7.494 -0.2765 -0.0880  0.0347
  192POPC  H12X22238   2.713   4.243   7.543  0.6371 -1.9993 -2.7635
  192POPC  H12Y22239   2.682   4.423   7.497 -1.4227 -1.0059  0.7877
  192POPC  C31322240   2.875   4.372   7.565  0.0977 -0.2090 -0.5222
  192POPC  H13X22241   2.925   4.445   7.497  0.0754 -0.3443 -0.6833
  192POPC  H13Y22242   2.958   4.298   7.564  0.6766  0.4394 -1.5739
  192POPC  C31422243   2.854   4.436   7.700  0.3070  0.2761 -0.0912
  192POPC  H14X22244   2.782   4.370   7.753  1.0847  0.6479  1.4542
  192POPC  H14Y22245   2.808   4.537   7.695 -2.7575 -1.0486 -0.0156
  192POPC  C31522246   2.987   4.444   7.774 -0.7037 -0.6846 -0.2071
  192POPC  H15X22247   3.051   4.517   7.722 -1.4889 -0.2534 -0.5777
  192POPC  H15Y22248   3.043   4.348   7.769 -1.5390 -1.3162  1.6665
  192POPC  C31622249   2.984   4.497   7.923  0.4295 -0.0409 -0.2623
  192POPC  H16X22250   2.890   4.555   7.939 -0.4031 -1.3913 -0.1307
  192POPC  H16Y22251   3.067   4.567   7.948  0.2324  0.1715 -0.1998
  192POPC  H16Z22252   2.985   4.413   7.995 -0.4926  1.1337  1.1674
  193SOD    SOD22253   6.680   1.471   6.435  0.5923 -0.1078  0.3184
  194SOD    SOD22254   0.799   6.197  10.722  0.3772 -0.2899  0.1055
  195SOD    SOD22255   5.942   2.580  11.181  0.3575 -0.2657  0.0992
  196SOD    SOD22256   1.549   1.360  16.857  0.0273  0.5033 -0.1096
  197SOD    SOD22257   3.886   4.778   4.924 -0.2089  0.2070  0.0139
  198SOD    SOD22258   1.934   2.662  15.023 -0.2487  0.0023 -0.4930
  199SOD    SOD22259   2.007   0.384  16.197  0.0002  0.9299  0.1395
  200SOD    SOD22260   2.600   1.597   6.530 -0.1205 -0.1093  0.4493
  201SOD    SOD22261   3.466   3.202   1.309 -0.6816 -0.1233  0.5925
  202SOD    SOD22262   3.122   5.669  11.762 -0.3720 -0.1403 -0.1944
  203SOD    SOD22263   5.153   6.265   6.065  0.4261  0.2424 -0.3119
  204SOD    SOD22264   1.317   2.118   5.904  0.2643 -0.5626 -0.3105
  205SOD    SOD22265   0.838   1.761  12.278 -0.3189 -0.2428  0.4576
  206SOD    SOD22266   5.395   2.037  12.990 -0.0180  0.3305 -0.4457
  207SOD    SOD22267   0.591   3.575  11.376  0.1103 -0.0895 -0.2340
  208SOD    SOD22268   3.442   2.017  16.211 -0.3660 -0.0904 -0.1278
  209SOD    SOD22269   2.591   6.497  15.534  0.3800 -0.1313  0.1708
  210SOD    SOD22270   4.768   0.845  12.708 -0.1508 -0.0558  0.2107
  211SOD    SOD22271   4.711   6.270   6.228  0.2395 -0.4583 -0.2336
  212SOD    SOD22272   4.125   2.530   3.722 -0.1563 -0.5496  0.6714
  213SOD    SOD22273   3.537   1.185   4.962 -0.5650 -0.1887  0.2908
  214SOD    SOD22274   6.071   5.745   4.071 -0.2607 -0.3661  0.0903
  215SOD    SOD22275   1.906   1.741  15.199 -0.0085  0.2137 -0.3118
  216SOD    SOD22276   5.887   5.079   1.548  0.2861  0.1615  0.2047
  217SOD    SOD22277   1.422   4.128   2.761  0.2887 -0.2213 -0.3755
  218SOD    SOD22278   0.056   6.693  11.174 -0.8292 -0.0116  0.3535
  219SOD    SOD22279   6.361   2.387   3.899  0.1193  0.1589 -0.3029
  220SOD    SOD22280   5.099   1.311   1.041  0.0160  0.3224  0.0898
  221SOD    SOD22281   1.993   6.280   2.701  0.2103 -0.1263 -0.0893
  222SOD    SOD22282   1.026   6.321  12.114 -0.2769 -0.3319  0.3164
  223SOD    SOD22283   0.720   6.220   5.486 -0.5411 -0.0437  0.0649
  224SOD    SOD22284   1.273   4.378   5.883 -0.2736  0.0247 -0.5509
  225SOD    SOD22285   2.795   2.848  11.721 -0.3789 -0.1985 -0.1521
  226SOD    SOD22286   2.016   2.893   2.507  0.5618  0.0004  0.0804
  227SOD    SOD22287   4.410   0.516   1.676 -0.3789  0.9004  0.2939
  228SOD    SOD22288   0.211   3.780  13.144  0.2301 -0.4837 -0.2324
  229SOD    SOD22289   1.774   2.959   3.609 -0.2376 -0.1112  0.1621
  230SOD    SOD22290   3.052   6.009   1.889 -0.3153  0.2726 -0.2914
  231SOD    SOD22291   5.737   2.504  11.710  0.1869 -0.0791  1.1105
  232SOD    SOD22292   4.626   5.557  15.610  0.2123  0.3850 -0.0449
  233SOD    SOD22293   1.304   1.571  14.644  0.2536 -0.4408 -0.2741
  234SOD    SOD22294   1.490   0.685  14.760 -0.2243 -0.5133 -0.0417
  235SOD    SOD22295   3.868   3.862   0.253 -0.2853  0.6339 -0.6195
  236SOD    SOD22296   1.565   1.890   5.817  0.3633 -0.2432 -0.1171
  237SOD    SOD22297   3.998   1.793  13.304 -0.3728 -0.0917 -0.3924
  238SOD    SOD22298   1.882   3.372  10.996 -0.0049  0.3545 -0.3460
  239SOD    SOD22299   5.329   3.101   5.957  0.7742 -0.0133 -0.2788
  240SOD    SOD22300   0.339   3.481   2.742 -0.1993  0.5178 -0.5219
  241SOD    SOD22301   0.985   6.100   4.134 -0.7910 -0.2246  0.3676
  242SOD    SOD22302   6.715   0.203  15.862  0.3386 -0.2933 -0.2637
  243SOD    SOD22303   4.810   1.918   4.623 -0.1718  0.2886 -0.0316
  244SOD    SOD22304   3.553   6.622   4.993  0.1657 -0.0458 -0.0600
  245SOD    SOD22305   0.003   1.501  12.575 -0.0524 -0.3549  0.5638
  246SOD    SOD22306   0.922   6.478   6.240 -0.4315 -0.2089 -0.1723
  247SOD    SOD22307   2.691   0.584   6.756  0.2424  0.9144  0.2732
  248SOD    SOD22308   5.841   2.428   0.540  0.2082  0.6567 -0.4284
  249SOD    SOD22309   1.723   2.277  13.400 -0.2485 -0.0360 -0.6251
  250SOD    SOD22310   6.028   4.772  14.710  0.3490  0.2291 -0.2171
  251SOD    SOD22311   6.646   4.408  13.175 -0.0746 -0.5492  0.3894
  252SOD    SOD22312   5.303   3.856  10.650 -0.0710  0.7566 -0.4847
  253SOD    SOD22313   4.025   3.626   2.756 -0.3194  0.0589  0.4282
  254SOD    SOD22314   1.387   4.124   6.522 -0.5111  0.3588 -0.1194
  255SOD    SOD22315   1.656   2.302   3.297 -0.2309  0.3743 -0.2241
  256SOD    SOD22316   1.241   3.876  15.968 -0.4913  0.4600 -0.4159
  257SOD    SOD22317   6.095   6.018  11.482 -0.0677  0.4570 -0.2880
  258SOD    SOD22318   6.257   1.151  11.775  0.2224  0.1920 -0.1013
  259SOD    SOD22319   3.647   0.144  15.482  0.0998  0.2846 -0.2232
  260SOD    SOD22320   6.064   0.494  13.549 -0.2362  0.3585  0.4045
  261SOD    SOD22321   6.389   2.707  11.973  0.0049  0.3115  0.1540
  262SOD    SOD22322   2.236   5.582  11.873  0.2316  0.1350 -0.0744
  263SOD    SOD22323   3.184   5.390   1.167 -0.4146 -0.3249  0.0645
  264SOD    SOD22324   2.041   6.355  14.216  0.0783 -0.3069 -0.3383
  265SOD    SOD22325   6.772   5.533   5.795  0.1586  0.1142 -0.1707
  266SOD    SOD22326   4.409   5.589  14.449  0.5649 -0.2183  0.0268
  267SOD    SOD22327   2.970   0.210  11.642 -0.3211 -0.3792 -0.2238
  268SOD    SOD22328   5.615   1.769  15.372  0.7038  0.0348  0.8216
  269SOD    SOD22329   3.481   3.709  15.358  0.0301 -0.1964  0.2366
  270CLA    CLA22330   5.032   4.458  15.031  0.1693  0.3554 -0.2509
  271CLA    CLA22331   2.213   2.304  13.553 -0.2889 -0.2743 -0.2355
  272CLA    CLA22332   1.587   0.834  15.831  0.2581 -0.1867  0.0914
  273CLA    CLA22333   6.057   2.524   1.016 -0.3639  0.1915  0.3306
  274CLA    CLA22334   1.362   5.060   1.425  0.2238  0.0255 -0.2094
  275CLA    CLA22335   2.799   0.030  11.677 -0.1758  0.0049  0.0093
  276CLA    CLA22336   0.927   1.827   4.736 -0.0896  0.0620  0.2225
  277CLA    CLA22337   6.496   1.984  13.499 -0.0489 -0.0283  0.1178
  278CLA    CLA22338   3.843   5.795   1.976  0.1031 -0.1665  0.3683
  279CLA    CLA22339   6.331   4.918  11.894  0.0753 -0.4290  0.4019
  280CLA    CLA22340   6.295   3.937   1.384 -0.0475  0.3101  0.2044
  281CLA    CLA22341   0.553   3.597   3.808 -0.0273  0.1073  0.0062
  282CLA    CLA22342   0.594   1.645  12.856 -0.1833 -0.1483 -0.2327
  283CLA    CLA22343   2.273   4.117   3.427 -0.4589  0.4150 -0.2341
  284CLA    CLA22344   6.738   2.948  15.731 -0.2725 -0.0647  0.4651
  285CLA    CLA22345   1.678   3.738   0.680  0.1206  0.0843  0.1498
  286CLA    CLA22346   0.789   3.687   1.646 -0.2581  0.1879  0.1397
  287CLA    CLA22347   3.019   0.125  15.750  0.5967  0.0504  0.0146
  288CLA    CLA22348   0.918   5.997  12.916  0.0172  0.4695  0.2430
  289CLA    CLA22349   2.917   3.194  14.756  0.0871  0.1271 -0.1593
  290CLA    CLA22350   1.667   6.592  15.543 -0.1825 -0.0901  0.3927
  291CLA    CLA22351   0.574   0.342  16.854 -0.0737 -0.2038  0.1130
  292CLA    CLA22352   3.588   1.714   3.177 -0.1009  0.1623  0.2149
  293CLA    CLA22353   2.088   5.722  16.931 -0.1554  0.2119  0.1057
  294CLA    CLA22354   2.160   4.814   3.580  0.4025  0.1984 -0.1161
  295CLA    CLA22355   4.250   2.021   1.456 -0.0552  0.3342 -0.1736
  296CLA    CLA22356   5.093   1.198  11.960  0.2034 -0.2480 -0.2889
  297CLA    CLA22357   5.032   2.438  14.336 -0.0144  0.1134 -0.1176
  298CLA    CLA22358   6.221   5.106   0.897  0.3569  0.2149  0.2428
  299CLA    CLA22359   4.549   2.129  15.515 -0.2642 -0.2369 -0.4243
  300CLA    CLA22360   0.869   5.024  12.480 -0.0367 -0.1575  0.2033
  301CLA    CLA22361   5.496   4.404  14.858  0.0555 -0.2044  0.2295
  302CLA    CLA22362   3.966   0.818   4.555 -0.1238  0.1673 -0.1000
  303CLA    CLA22363   6.028   1.306  15.017 -0.3333  0.0076  0.0864
  304CLA    CLA22364   0.793   4.093  16.213  0.1115  0.0256 -0.3389
  305CLA    CLA22365   0.133   5.027   5.609 -0.1104 -0.3756  0.1547
  306CLA    CLA22366   2.768   3.890   3.546  0.2753  0.5806 -0.0796
  307CLA    CLA22367   1.394   1.576  16.915 -0.1625  0.0178  0.3238
  308CLA    CLA22368   6.379   5.428  15.838 -0.1964 -0.1451  0.1547
  309CLA    CLA22369   5.205   3.084   4.647  0.0829 -0.1609 -0.2076
  310CLA    CLA22370   3.715   3.682   3.556 -0.0128 -0.2348  0.3996
  311CLA    CLA22371   6.342   5.719   3.604  0.0500  0.2606  0.0745
  312CLA    CLA22372   0.816   5.290  14.217  0.1793 -0.6255 -0.0292
  313CLA    CLA22373   6.532   2.686   5.178  0.0541  0.0883 -0.0645
  314CLA    CLA22374   1.369   5.580  11.581  0.3323  0.4790 -0.1497
  315CLA    CLA22375   5.620   0.242  14.822  0.2377  0.1286 -0.1027
  316CLA    CLA22376   2.850   4.408  11.953  0.5922 -0.0700 -0.2591
  317CLA    CLA22377   3.325   1.619   0.182  0.4191 -0.0974 -0.0345
  318CLA    CLA22378   2.026   6.070  12.147 -0.0594  0.0406  0.1851
  319CLA    CLA22379   4.704   5.879   3.859 -0.1333 -0.2073  0.0829
  320CLA    CLA22380   4.028   2.323   4.203 -0.0869  0.2522 -0.0205
  321CLA    CLA22381   4.296   6.183  13.267  0.2016  0.2473  0.2433
  322CLA    CLA22382   4.497   2.448   1.477 -0.2109 -0.3636  0.2076
  323TIP3   OH222383   5.049   2.310  15.968  0.3863 -0.1695  0.1329
  323TIP3    H122384   5.089   2.242  16.022 -0.1948 -0.3099  0.3890
  323TIP3    H222385   5.114   2.329  15.900  1.2977  0.3160  1.1407
  324TIP3   OH222386   6.561   4.056  14.148 -0.2746 -0.5004  0.3538
  324TIP3    H122387   6.583   3.993  14.217  0.5525 -0.5121  0.0826
  324TIP3    H222388   6.495   4.011  14.095  0.0226 -0.9846  0.3898
  325TIP3   OH222389   3.943   3.274  14.740  0.1986  0.0972  1.2748
  325TIP3    H122390   3.858   3.296  14.778 -0.0423  0.6444  0.4254
  325TIP3    H222391   3.993   3.355  14.744  0.8415 -0.3361  2.1779
  326TIP3   OH222392   2.646   2.719  16.502 -0.4043  0.3408  0.1141
  326TIP3    H122393   2.657   2.792  16.441  0.0463  0.6017  0.5008
  326TIP3    H222394   2.569   2.673  16.470  1.1672 -0.8980 -2.0683
  327TIP3   OH222395   3.781   5.825  17.215 -0.3503 -0.3552  0.1756
  327TIP3    H122396   3.728   5.877  17.155 -0.5787 -1.3620 -0.5079
  327TIP3    H222397   3.866   5.869  17.218 -0.0060 -0.8808 -1.6823
  328TIP3   OH222398   2.990   4.931   1.855  0.4607  0.5424  0.0356
  328TIP3    H122399   2.940   4.942   1.937 -3.1896  0.6960 -2.0892
  328TIP3    H222400   2.974   5.012   1.807 -0.7711 -1.1574 -2.4978
  329TIP3   OH222401   3.202   4.405   1.191 -0.3511 -0.3662 -0.0826
  329TIP3    H122402   3.126   4.350   1.207 -0.0439 -0.1177  2.4043
  329TIP3    H222403   3.191   4.479   1.250  3.0562 -1.5793  2.2162
  330TIP3   OH222404   0.865   5.393  13.510 -0.9788 -0.2960  0.2446
  330TIP3    H122405   0.910   5.367  13.430 -1.4004  1.5883 -0.6412
  330TIP3    H222406   0.926   5.370  13.581 -0.1337 -0.9814 -0.6940
  331TIP3   OH222407   5.658   2.494  16.204  0.6646  0.3460 -0.7037
  331TIP3    H122408   5.709   2.528  16.277  1.3538  0.1066 -1.0753
  331TIP3    H222409   5.683   2.402  16.197 -0.9948 -0.1904  0.1282
  332TIP3   OH222410   4.497   3.580  16.199 -0.3198  0.0378  0.3947
  332TIP3    H122411   4.491   3.625  16.284  0.6177 -0.5038  0.7600
  332TIP3    H222412   4.504   3.488  16.222 -2.3046 -0.3049 -0.3619
  333TIP3   OH222413   4.437   6.598   3.460 -0.0247 -0.0729  0.0555
  333TIP3    H122414   4.419   6.657   3.387  0.9273  0.2954  0.1207
  333TIP3    H222415   4.515   6.550   3.433  1.3040  1.2146  1.5092
  334TIP3   OH222416   0.105   1.737   1.506 -0.2697  0.1930  0.0395
  334TIP3    H122417   0.126   1.647   1.531  2.3623  0.3470 -1.4623
  334TIP3    H222418   0.015   1.749   1.535 -0.8617 -3.1100 -0.1792
  335TIP3   OH222419   6.534   2.683  16.191 -0.0227  0.3322  0.1637
  335TIP3    H122420   6.526   2.615  16.124 -1.9799 -0.1691  0.8591
  335TIP3    H222421   6.543   2.765  16.141  0.8205 -0.2707 -0.6859
  336TIP3   OH222422   0.687   6.478  11.355 -0.1010  0.2155 -0.3586
  336TIP3    H122423   0.754   6.479  11.424  0.5365  1.3301 -0.9768
  336TIP3    H222424   0.735   6.499  11.275 -0.9585 -0.3655 -1.0347
  337TIP3   OH222425   3.580   5.284   2.685  0.1931  0.2428  0.6212
  337TIP3    H122426   3.647   5.271   2.619  1.9270  5.3716  1.1963
  337TIP3    H222427   3.620   5.256   2.767  1.4430  2.6068  0.8489
  338TIP3   OH222428   0.707   4.004  12.611 -0.2333  0.0772 -0.1805
  338TIP3    H122429   0.628   4.034  12.565 -0.1358  0.4236 -0.1168
  338TIP3    H222430   0.718   3.913  12.582 -0.8332 -0.0719  0.0496
  339TIP3   OH222431   0.452   3.217  15.185  0.4506 -0.0254  0.9675
  339TIP3    H122432   0.471   3.180  15.099  1.3934  2.9206 -0.1583
  339TIP3    H222433   0.472   3.147  15.246  1.9740 -1.4486 -1.0911
  340TIP3   OH222434   5.644   6.469   3.289 -0.3483  0.3481 -0.1274
  340TIP3    H122435   5.654   6.563   3.274 -0.7502  0.3365 -0.4618
  340TIP3    H222436   5.645   6.460   3.385  1.3697  0.5074 -0.1147
  341TIP3   OH222437   3.620   1.351  12.764  0.3561  0.1251 -0.3273
  341TIP3    H122438   3.554   1.414  12.791  0.0048 -0.4969  0.2691
  341TIP3    H222439   3.579   1.265  12.778  1.4467 -0.2697  0.4594
  342TIP3   OH222440   6.211   3.088  14.360 -0.3339 -0.6581  0.1632
  342TIP3    H122441   6.241   3.178  14.349 -3.0758  0.5186  1.7204
  342TIP3    H222442   6.132   3.082  14.306 -0.4231 -1.9803  0.4255
  343TIP3   OH222443   1.008   3.171  15.138  0.4399  0.0894  0.2832
  343TIP3    H122444   1.104   3.176  15.137  0.4107  0.3811 -0.8982
  343TIP3    H222445   0.989   3.095  15.192  1.3605 -0.6452 -0.4180
  344TIP3   OH222446   4.418   4.478   2.077  0.0898 -0.2805  0.2600
  344TIP3    H122447   4.356   4.504   2.145 -0.1235 -0.4980  0.1474
  344TIP3    H222448   4.369   4.418   2.021  0.7772 -1.4409  0.8899
  345TIP3   OH222449   4.863   0.729  13.005 -0.9973  0.4783  0.1979
  345TIP3    H122450   4.841   0.645  12.966 -0.3605  1.2669 -1.9553
  345TIP3    H222451   4.921   0.708  13.078 -1.8122 -1.0162  0.4132
  346TIP3   OH222452   1.836   6.451  15.796  0.1363  0.1486  0.6278
  346TIP3    H122453   1.820   6.358  15.782 -1.8815  0.4482  0.7481
  346TIP3    H222454   1.765   6.495  15.748  1.5455  1.6546 -0.1349
  347TIP3   OH222455   1.793   2.154  10.882 -0.5010  0.2747  0.4786
  347TIP3    H122456   1.728   2.147  10.952 -1.0158 -0.4473 -0.0674
  347TIP3    H222457   1.785   2.245  10.851 -0.6256  0.4471  1.0032
  348TIP3   OH222458   0.820   0.225  14.780  0.0210 -0.4546  0.0311
  348TIP3    H122459   0.914   0.239  14.766 -0.1035  0.0146 -0.3360
  348TIP3    H222460   0.799   0.151  14.723 -0.0346  0.0697 -0.6321
  349TIP3   OH222461   6.691   1.507   6.018 -0.0550 -0.5306  0.2507
  349TIP3    H122462   6.786   1.518   6.015 -0.2893  1.9171  1.1548
  349TIP3    H222463   6.677   1.437   6.082  1.0466  0.7049  1.8895
  350TIP3   OH222464   4.160   5.923   1.960 -0.3112 -0.3253  0.4740
  350TIP3    H122465   4.161   6.012   1.924  0.6185 -0.2926  0.5665
  350TIP3    H222466   4.068   5.906   1.978 -0.6001  0.2742 -0.4005
  351TIP3   OH222467   5.347   4.834  14.271 -0.1588  0.5350  0.1403
  351TIP3    H122468   5.425   4.805  14.223  0.5691  2.5299  0.0559
  351TIP3    H222469   5.373   4.829  14.363 -0.6702 -0.8154  0.2228
  352TIP3   OH222470   5.462   0.432  13.488 -0.2777 -1.0826  0.4648
  352TIP3    H122471   5.463   0.380  13.407 -0.8418 -0.4404  0.0336
  352TIP3    H222472   5.373   0.422  13.521  0.1846 -2.0215  1.4676
  353TIP3   OH222473   0.856   1.701  15.810 -0.2038  0.5304  0.1464
  353TIP3    H122474   0.897   1.695  15.724 -1.6230 -1.1119 -0.4501
  353TIP3    H222475   0.921   1.664  15.870  0.3158  0.5589 -0.3993
  354TIP3   OH222476   2.176   3.642  15.921  0.2859 -0.0292 -0.1903
  354TIP3    H122477   2.247   3.637  15.986  0.8707  0.5558 -0.7619
  354TIP3    H222478   2.152   3.735  15.920 -1.2715 -0.4120  0.8112
  355TIP3   OH222479   1.642   3.879   1.933  0.0656 -0.2797 -0.3667
  355TIP3    H122480   1.677   3.804   1.980 -0.7793 -1.5414 -1.7334
  355TIP3    H222481   1.641   3.852   1.841  0.3798  1.6371 -0.9555
  356TIP3   OH222482   1.459   4.595  17.006  0.2759  0.0924  0.0943
  356TIP3    H122483   1.501   4.666  17.055 -0.5296  2.3170 -2.3228
  356TIP3    H222484   1.379   4.575  17.056  1.3704 -0.3228  1.7091
  357TIP3   OH222485   3.413   3.807   5.722  0.2305  0.0727 -0.2217
  357TIP3    H122486   3.437   3.803   5.815 -0.5903 -1.7792 -0.0615
  357TIP3    H222487   3.473   3.746   5.680  0.8866  1.2415 -0.9745
  358TIP3   OH222488   5.134   2.057  16.051 -0.3095  0.2977  0.1619
  358TIP3    H122489   5.075   1.986  16.027 -1.9168  2.2664 -1.9166
  358TIP3    H222490   5.217   2.034  16.010 -1.4240  0.6851 -2.3597
  359TIP3   OH222491   5.941   1.525  13.667  0.1095 -0.3570 -0.0410
  359TIP3    H122492   5.913   1.593  13.606  0.2244 -0.5048 -0.2626
  359TIP3    H222493   5.958   1.571  13.749 -0.7224 -0.2565  0.0814
  360TIP3   OH222494   1.677   3.886  12.500  0.2132  0.0174  0.1964
  360TIP3    H122495   1.602   3.884  12.560 -0.2289  3.1550 -0.1655
  360TIP3    H222496   1.729   3.962  12.529  0.7014  0.7635 -2.5022
  361TIP3   OH222497   3.382   3.822   2.953 -0.2682 -0.1433  0.2626
  361TIP3    H122498   3.319   3.760   2.990 -0.9605  0.5684  0.2870
  361TIP3    H222499   3.381   3.802   2.859 -0.2445 -0.3935  0.3143
  362TIP3   OH222500   4.513   4.141   0.636 -0.3790  0.3669 -0.3339
  362TIP3    H122501   4.527   4.125   0.729 -0.1547 -0.4973 -0.5127
  362TIP3    H222502   4.568   4.218   0.616  0.5886 -0.2409 -0.0415
  363TIP3   OH222503   6.743   6.249  14.153 -0.5285  0.5109 -0.0497
  363TIP3    H122504   6.815   6.225  14.212 -0.4234 -0.8581 -0.7244
  363TIP3    H222505   6.787   6.289  14.078 -0.7076  2.9499  1.1078
  364TIP3   OH222506   3.276   4.531  14.015 -0.2840 -0.5635 -0.5430
  364TIP3    H122507   3.269   4.445  14.056 -0.8325 -0.0058  0.5461
  364TIP3    H222508   3.194   4.576  14.037 -0.3120 -0.0099 -1.6941
  365TIP3   OH222509   0.384   6.243  10.857 -0.0936 -1.0315  0.2370
  365TIP3    H122510   0.345   6.252  10.771 -1.2461  2.0361  1.0353
  365TIP3    H222511   0.311   6.251  10.918  0.7892 -2.5546  1.5550
  366TIP3   OH222512   3.733   5.010   5.591  0.3360 -0.0552  0.1793
  366TIP3    H122513   3.643   5.043   5.586  0.5071  0.3106 -0.6793
  366TIP3    H222514   3.785   5.088   5.610  0.5338 -0.1730  0.1152
  367TIP3   OH222515   1.844   1.807  12.306 -0.0237 -0.4410  0.4804
  367TIP3    H122516   1.758   1.848  12.307  0.3736  0.4183  0.1068
  367TIP3    H222517   1.869   1.806  12.214  1.2004  1.1092  0.7769
  368TIP3   OH222518   6.508   5.820   2.269  0.3357  0.2581  0.0622
  368TIP3    H122519   6.490   5.815   2.175 -0.9192 -2.4194  0.3975
  368TIP3    H222520   6.452   5.891   2.300  0.1154  0.5951 -1.0898
  369TIP3   OH222521   0.109   4.709   2.739 -0.0438  0.4223 -0.7345
  369TIP3    H122522   0.191   4.692   2.786 -0.6433 -2.8603 -0.7360
  369TIP3    H222523   0.136   4.758   2.661  2.1826 -1.9552 -1.5371
  370TIP3   OH222524   0.110   3.423   4.391  0.0967 -0.6126  0.1460
  370TIP3    H122525   0.163   3.397   4.466 -0.2220 -0.2832  0.4837
  370TIP3    H222526   0.131   3.357   4.324  2.4372  0.6335 -0.4072
  371TIP3   OH222527   1.455   5.286   4.635 -0.3691 -0.2543 -0.6027
  371TIP3    H122528   1.540   5.292   4.592  0.0908 -1.4450  0.1121
  371TIP3    H222529   1.393   5.322   4.572  0.4566 -0.8227 -1.7541
  372TIP3   OH222530   4.960   6.393   2.790 -0.4821 -0.1287  0.4605
  372TIP3    H122531   5.011   6.393   2.871  0.5632  0.6402 -0.1869
  372TIP3    H222532   4.948   6.486   2.769 -0.9507 -0.3199 -0.1353
  373TIP3   OH222533   0.891   1.656   1.910 -0.4153  0.4831  0.7417
  373TIP3    H122534   0.864   1.644   2.001 -1.2189  1.0947  0.5876
  373TIP3    H222535   0.833   1.598   1.860 -0.6547  0.9100  0.5234
  374TIP3   OH222536   3.362   6.223   4.993 -0.3980 -0.1391  0.0922
  374TIP3    H122537   3.409   6.158   4.940 -1.7915 -2.0446  1.1133
  374TIP3    H222538   3.272   6.191   4.994 -1.2892  2.2896 -0.0508
  375TIP3   OH222539   3.176   0.318  17.075  0.0189 -0.3858  0.0568
  375TIP3    H122540   3.113   0.257  17.113  0.6681 -0.2002  1.4929
  375TIP3    H222541   3.134   0.404  17.083 -1.0644 -0.6495 -2.3253
  376TIP3   OH222542   2.529   6.392  11.314 -0.0840 -0.1562  0.2556
  376TIP3    H122543   2.505   6.484  11.311 -1.1244 -0.4533 -1.4509
  376TIP3    H222544   2.624   6.392  11.314 -0.0741  0.9407  1.7317
  377TIP3   OH222545   4.001   6.305   1.252 -0.2117 -0.2175  0.4962
  377TIP3    H122546   3.956   6.221   1.244  0.5466 -0.4276 -2.0223
  377TIP3    H222547   4.057   6.309   1.175  3.0851  0.6568  2.8313
  378TIP3   OH222548   1.293   1.426  17.158 -0.2420  0.1114 -0.4632
  378TIP3    H122549   1.369   1.434  17.215  1.2126 -1.4777 -2.1114
  378TIP3    H222550   1.322   1.461  17.074 -1.5004 -0.0221 -0.9714
  379TIP3   OH222551   2.106   0.152  15.516  0.4400  0.8991 -0.4011
  379TIP3    H122552   2.097   0.246  15.504 -0.4088  0.8917  0.1570
  379TIP3    H222553   2.019   0.122  15.542  1.2920  0.3550  1.9850
  380TIP3   OH222554   2.451   6.251  16.560 -0.0367 -0.3916 -0.3068
  380TIP3    H122555   2.359   6.223  16.560 -0.1583  0.0154  0.3439
  380TIP3    H222556   2.470   6.271  16.651  1.1872 -2.0330 -0.1836
  381TIP3   OH222557   5.291   5.433  11.262 -0.5264  0.0637 -0.2378
  381TIP3    H122558   5.308   5.342  11.238  1.6749  0.7263 -1.2372
  381TIP3    H222559   5.257   5.473  11.181  1.3113  0.8451 -0.6345
  382TIP3   OH222560   2.183   6.292  15.685 -0.0631 -0.5064 -0.3005
  382TIP3    H122561   2.165   6.220  15.625  1.3264  1.4741 -3.1782
  382TIP3    H222562   2.114   6.356  15.667 -0.2877 -0.3520  1.0317
  383TIP3   OH222563   2.427   2.954   0.793 -0.4265  0.1626  0.3028
  383TIP3    H122564   2.412   2.948   0.888  0.0481  1.5546  0.4839
  383TIP3    H222565   2.384   3.036   0.767  1.2222  0.8660 -0.3007
  384TIP3   OH222566   4.195   5.742   3.163 -0.1764  0.5630  0.4085
  384TIP3    H122567   4.139   5.673   3.126  0.0184  0.7034 -0.1532
  384TIP3    H222568   4.156   5.762   3.248 -0.7546  0.3891  0.1848
  385TIP3   OH222569   0.742   0.256   5.859 -0.1143  0.0751  0.0933
  385TIP3    H122570   0.798   0.187   5.822 -1.7699 -1.1755 -0.1288
  385TIP3    H222571   0.745   0.240   5.954  0.4147  0.4168  0.1387
  386TIP3   OH222572   6.051   0.594   0.345 -0.1331 -0.2540 -0.4743
  386TIP3    H122573   6.076   0.571   0.256  2.6013  1.3757 -0.1960
  386TIP3    H222574   6.131   0.630   0.384 -1.5626  0.1179  2.2797
  387TIP3   OH222575   6.248   2.276   5.962  0.0019 -0.4146 -0.2831
  387TIP3    H122576   6.286   2.355   5.924 -0.5559 -0.1899 -0.3732
  387TIP3    H222577   6.298   2.262   6.043  2.3183 -1.8375 -1.8927
  388TIP3   OH222578   5.770   6.664  15.021  0.5098  0.2914 -0.1040
  388TIP3    H122579   5.797   6.578  15.055  0.6681  0.7843  1.0726
  388TIP3    H222580   5.726   6.705  15.095 -0.8956  0.6422 -1.1257
  389TIP3   OH222581   4.351   6.247  16.340 -0.8319 -0.3872 -0.0588
  389TIP3    H122582   4.340   6.152  16.352 -2.6790 -0.0291  1.2694
  389TIP3    H222583   4.298   6.268  16.263 -1.3566 -0.2680  0.3288
  390TIP3   OH222584   6.504   2.340   4.138 -0.1614 -0.0049 -0.0672
  390TIP3    H122585   6.556   2.381   4.207  1.6814  1.5595 -2.3143
  390TIP3    H222586   6.535   2.249   4.136  0.6599  0.2571  0.3745
  391TIP3   OH222587   0.408   0.740  13.477  0.1574  0.0209 -0.5641
  391TIP3    H122588   0.415   0.827  13.516  0.5579  0.0371 -0.6688
  391TIP3    H222589   0.490   0.696  13.501 -1.0809 -1.1786  1.5719
  392TIP3   OH222590   0.240   3.747  15.123  0.2183 -0.4081  0.2516
  392TIP3    H122591   0.284   3.830  15.143  0.3221 -0.2230 -0.7061
  392TIP3    H222592   0.274   3.685  15.188  2.7981 -0.5585 -1.1697
  393TIP3   OH222593   0.238   6.139   0.535 -0.3152 -0.6009 -0.5649
  393TIP3    H122594   0.300   6.152   0.606 -0.2844  0.0101 -0.6998
  393TIP3    H222595   0.167   6.200   0.554 -0.4012 -0.5827 -0.9479
  394TIP3   OH222596   1.309   5.382  14.541  0.2210 -0.1106 -0.0037
  394TIP3    H122597   1.402   5.397  14.560  1.2943 -2.2788 -3.1205
  394TIP3    H222598   1.279   5.465  14.503  1.0098  0.4636  0.6024
  395TIP3   OH222599   1.648   1.545   1.564  0.7011  0.0565 -0.5613
  395TIP3    H122600   1.606   1.616   1.612 -0.5241 -0.8270 -0.2814
  395TIP3    H222601   1.741   1.552   1.585  0.2503  0.0032  1.5268
  396TIP3   OH222602   3.576   1.558   0.334  0.3825  0.1628 -0.4749
  396TIP3    H122603   3.498   1.585   0.286 -0.1920 -1.9726 -0.8397
  396TIP3    H222604   3.541   1.515   0.412  1.1664 -0.9836 -0.7390
  397TIP3   OH222605   0.107   3.140  16.193 -0.1552  0.8328 -0.2978
  397TIP3    H122606   0.091   3.047  16.208  0.7130  0.4977 -1.3832
  397TIP3    H222607   0.107   3.179  16.280  2.2567 -0.6453  0.3975
  398TIP3   OH222608   1.631   3.234   4.570  0.2891 -0.1084 -0.0160
  398TIP3    H122609   1.568   3.298   4.603 -0.9058 -2.2704  1.9944
  398TIP3    H222610   1.715   3.263   4.607  0.2446  1.8108 -1.3359
  399TIP3   OH222611   3.560   0.870  11.824  0.0027  0.9936  0.1496
  399TIP3    H122612   3.609   0.951  11.840  0.1694  0.7759  0.7405
  399TIP3    H222613   3.625   0.801  11.832 -0.1779  0.7844 -0.1843
  400TIP3   OH222614   6.547   6.470  14.115 -0.4834 -0.0032  0.1815
  400TIP3    H122615   6.600   6.395  14.144  0.5463  0.8114  0.4494
  400TIP3    H222616   6.507   6.504  14.195  1.0376  1.2337  0.4459
  401TIP3   OH222617   3.309   5.545  15.013  0.4896  0.4900  0.3468
  401TIP3    H122618   3.359   5.491  14.952  1.6276  2.1045 -0.1678
  401TIP3    H222619   3.262   5.607  14.957 -0.3400  0.4541  0.9806
  402TIP3   OH222620   4.772   0.583   1.407  0.0446  0.6318  0.0523
  402TIP3    H122621   4.720   0.502   1.411 -0.2125  0.8184  0.5454
  402TIP3    H222622   4.720   0.641   1.351 -0.6562  1.0799  1.1440
  403TIP3   OH222623   0.776   4.901   0.942 -0.5602 -0.1466  0.0403
  403TIP3    H122624   0.827   4.820   0.930 -0.6458 -0.3418  0.9810
  403TIP3    H222625   0.762   4.907   1.037  1.3367  2.1273  0.2179
  404TIP3   OH222626   6.731   5.151  12.536 -0.6620 -0.7625  0.0857
  404TIP3    H122627   6.684   5.076  12.499 -0.8660 -1.0270  0.8669
  404TIP3    H222628   6.672   5.185  12.604 -0.0558 -0.6191  0.5434
  405TIP3   OH222629   0.046   2.586  11.942 -0.1290 -0.1000 -0.0430
  405TIP3    H122630   0.011   2.675  11.942  0.2556  0.0536  0.7787
  405TIP3    H222631   0.137   2.596  11.913  0.9770  0.2227  3.3066
  406TIP3   OH222632   1.149   6.305  14.992 -0.7367 -0.3541  0.3646
  406TIP3    H122633   1.139   6.350  14.908  0.6098 -1.0869 -0.2031
  406TIP3    H222634   1.205   6.229  14.972  0.7412  0.2211  2.1780
  407TIP3   OH222635   6.017   2.537   5.589 -0.2155 -0.3159  0.4610
  407TIP3    H122636   6.004   2.632   5.585 -1.5182 -0.4630  0.9778
  407TIP3    H222637   6.005   2.508   5.499  1.2591  0.1257  0.1025
  408TIP3   OH222638   2.915   5.780  10.777 -0.1558 -0.0597  0.2497
  408TIP3    H122639   2.997   5.749  10.738 -0.1739 -1.9577  1.6676
  408TIP3    H222640   2.848   5.722  10.739 -0.7000  0.7439 -0.0223
  409TIP3   OH222641   3.157   4.834   0.308  0.0284 -0.2986  0.0753
  409TIP3    H122642   3.196   4.917   0.336  0.3688 -0.2400 -0.5643
  409TIP3    H222643   3.063   4.850   0.311  0.0808 -0.0269  0.3634
  410TIP3   OH222644   4.298   2.519  16.595  0.3643  0.0780  0.1840
  410TIP3    H122645   4.384   2.480  16.612  1.5333  1.9189 -1.1570
  410TIP3    H222646   4.297   2.532  16.500 -1.1628  0.6120  0.2673
  411TIP3   OH222647   1.533   2.301   2.471  0.2384  0.5970  0.2794
  411TIP3    H122648   1.475   2.376   2.456  0.4653  1.0284  1.5151
  411TIP3    H222649   1.478   2.236   2.513  0.4055  0.6381  0.5642
  412TIP3   OH222650   2.202   0.030  13.827  0.3547 -0.0827 -0.1527
  412TIP3    H122651   2.151   0.037  13.746  2.1676 -1.2164 -1.4361
  412TIP3    H222652   2.232   0.119  13.844 -1.6708  0.5182  0.3873
  413TIP3   OH222653   0.111   4.905   1.139 -0.2206  0.0773 -0.2216
  413TIP3    H122654   0.193   4.856   1.131 -0.9470 -1.2630  0.2953
  413TIP3    H222655   0.113   4.968   1.068  1.2630  0.0618 -0.2109
  414TIP3   OH222656   4.179   3.642   1.031  0.3694  0.0837 -0.8296
  414TIP3    H122657   4.096   3.596   1.028  0.8706 -0.8751 -0.2169
  414TIP3    H222658   4.178   3.689   1.114  0.0339  0.8542 -1.2650
  415TIP3   OH222659   1.136   6.745  13.348  0.1169 -0.8142  0.3312
  415TIP3    H122660   1.151   6.736  13.254 -1.5917 -2.5610  0.2014
  415TIP3    H222661   1.138   6.840  13.363  0.0895 -0.4928 -1.5153
  416TIP3   OH222662   6.045   0.813   5.775  0.6854 -0.0261 -0.3123
  416TIP3    H122663   5.985   0.839   5.705 -0.4400  0.1150  0.6878
  416TIP3    H222664   6.109   0.884   5.779 -0.1125  0.6930 -0.2007
  417TIP3   OH222665   4.959   2.568  12.745 -0.5435 -0.8144  0.3745
  417TIP3    H122666   4.901   2.643  12.733  0.4317  0.0853  1.1733
  417TIP3    H222667   4.987   2.544  12.657 -1.5180 -0.7828  0.0486
  418TIP3   OH222668   5.407   5.039   0.955 -0.2400  0.3036 -0.4379
  418TIP3    H122669   5.477   5.039   1.020 -0.3064  0.4328 -0.3666
  418TIP3    H222670   5.450   5.010   0.874 -0.0097  0.7711 -0.4889
  419TIP3   OH222671   3.586   2.801  11.366  0.6578  0.0382  0.3315
  419TIP3    H122672   3.556   2.743  11.436 -1.7078  3.7059  2.5168
  419TIP3    H222673   3.520   2.791  11.297 -2.0622  3.0438  2.3784
  420TIP3   OH222674   0.936   5.201  10.952 -0.3332 -0.5574 -0.0625
  420TIP3    H122675   0.901   5.122  10.909 -0.1004  0.0784 -1.4317
  420TIP3    H222676   1.026   5.208  10.920  0.5661 -1.2837  2.2188
  421TIP3   OH222677   3.358   5.207  15.683 -0.1413  0.1923  0.5020
  421TIP3    H122678   3.371   5.220  15.589  1.4609 -0.1634  0.6583
  421TIP3    H222679   3.331   5.293  15.716  0.2099  0.5451 -0.1304
  422TIP3   OH222680   4.120   0.065   3.507 -0.2671 -0.5098  0.5041
  422TIP3    H122681   4.043   0.077   3.563 -1.7623 -3.3721 -0.8238
  422TIP3    H222682   4.132   0.149   3.464 -0.9418  0.8107  2.8116
  423TIP3   OH222683   6.522   2.625   1.300 -0.1435 -0.6343  0.3785
  423TIP3    H122684   6.519   2.600   1.392 -0.8053  1.7890  1.0536
  423TIP3    H222685   6.598   2.579   1.265  1.2426 -0.1044  2.5776
  424TIP3   OH222686   4.872   0.499  15.883  0.8324  0.1324 -0.2940
  424TIP3    H122687   4.870   0.437  15.810  0.7428  0.0266 -0.2024
  424TIP3    H222688   4.780   0.505  15.910  0.6227  1.4702 -1.2833
  425TIP3   OH222689   5.088   0.558  13.644  0.3956  0.2038 -0.2371
  425TIP3    H122690   5.081   0.555  13.739 -2.2849 -1.2883 -0.4364
  425TIP3    H222691   5.153   0.491  13.622  0.5121  0.0824  0.4694
  426TIP3   OH222692   4.988   5.717   2.769 -0.0865 -0.2496  0.1778
  426TIP3    H122693   4.974   5.797   2.718 -0.1118 -0.5605 -0.3042
  426TIP3    H222694   5.066   5.735   2.822 -1.1668  0.7744  1.4515
  427TIP3   OH222695   6.217   2.601  13.329  0.2171 -0.4604  0.2256
  427TIP3    H122696   6.301   2.646  13.338  0.6952 -1.3809  0.3570
  427TIP3    H222697   6.231   2.516  13.370 -1.6757  0.5134  3.0572
  428TIP3   OH222698   0.777   4.663  16.652 -0.3523  0.2143 -0.0810
  428TIP3    H122699   0.773   4.759  16.649 -3.4622  0.1242 -0.1216
  428TIP3    H222700   0.794   4.643  16.744  0.0715  0.7821 -0.0265
  429TIP3   OH222701   4.861   3.100  13.350  0.0444  0.7519  0.1453
  429TIP3    H122702   4.818   3.049  13.418 -0.0270  1.0406  0.3175
  429TIP3    H222703   4.951   3.109  13.380  0.5136 -0.7819 -0.7414
  430TIP3   OH222704   0.500   5.247  17.234  0.0013  0.3532  0.0394
  430TIP3    H122705   0.423   5.233  17.288 -0.2043 -0.2125 -0.3960
  430TIP3    H222706   0.569   5.196  17.276 -0.1045  0.0886 -0.1056
  431TIP3   OH222707   3.913   6.639   4.392 -0.3890  0.1995  0.2618
  431TIP3    H122708   3.950   6.579   4.327 -0.8180 -1.4193  1.4814
  431TIP3    H222709   3.977   6.640   4.463 -0.8889  0.3670  0.7125
  432TIP3   OH222710   1.610   2.750   2.712  0.2467 -0.1493  0.0550
  432TIP3    H122711   1.596   2.735   2.619  1.7138 -1.1718 -0.0329
  432TIP3    H222712   1.678   2.818   2.716 -1.0892  1.1735  0.3972
  433TIP3   OH222713   3.358   5.057  12.774 -0.3016  0.1107 -0.0622
  433TIP3    H122714   3.347   5.070  12.679  1.5461 -1.2479 -0.4791
  433TIP3    H222715   3.270   5.070  12.810 -0.7188  2.3143 -1.7576
  434TIP3   OH222716   4.628   6.322   0.088  0.1062 -0.5124  0.2035
  434TIP3    H122717   4.692   6.379   0.130 -0.2958 -1.3481  1.9646
  434TIP3    H222718   4.566   6.300   0.157 -0.5953 -1.8631 -0.8430
  435TIP3   OH222719   0.719   3.404  12.394  0.6292  0.0539  0.5334
  435TIP3    H122720   0.732   3.309  12.393  1.2020  0.1278  0.6199
  435TIP3    H222721   0.807   3.440  12.404  0.6519  0.6611 -1.7573
  436TIP3   OH222722   0.487   5.705   5.968  0.1776 -0.2796  0.4384
  436TIP3    H122723   0.455   5.779   5.916  1.4538 -0.1125 -0.1221
  436TIP3    H222724   0.508   5.744   6.053 -0.4686 -0.2636  0.5915
  437TIP3   OH222725   1.705   5.245  12.680 -0.1619  0.1751 -0.2107
  437TIP3    H122726   1.699   5.190  12.601  0.1512 -1.8425  1.1220
  437TIP3    H222727   1.630   5.303  12.674  0.6606  1.0516 -2.7261
  438TIP3   OH222728   6.457   1.082   5.738 -0.1693  0.1701 -0.2779
  438TIP3    H122729   6.513   1.005   5.727 -0.9898 -0.5321  0.3986
  438TIP3    H222730   6.509   1.143   5.791  0.5885  0.2016 -1.0438
  439TIP3   OH222731   0.025   3.046   2.243  0.1511  0.2005 -0.0858
  439TIP3    H122732  -0.032   2.972   2.264  0.3379  0.2310  0.5170
  439TIP3    H222733   0.005   3.065   2.151  2.1385 -2.3991 -1.1075
  440TIP3   OH222734   5.599   5.528   5.122 -0.3437  0.6326  0.0062
  440TIP3    H122735   5.506   5.518   5.142 -0.2725 -0.5872 -0.2603
  440TIP3    H222736   5.644   5.486   5.195 -0.0471 -1.1034 -1.1413
  441TIP3   OH222737   2.591   3.167   3.406  0.1159 -0.0018  0.3881
  441TIP3    H122738   2.503   3.203   3.390 -0.1054 -0.5013  0.4795
  441TIP3    H222739   2.582   3.074   3.389  0.4739 -0.1586  1.0501
  442TIP3   OH222740   2.602   2.345  14.571 -0.1485  0.0265  0.2406
  442TIP3    H122741   2.673   2.388  14.620  0.3442 -1.2617  0.6987
  442TIP3    H222742   2.645   2.309  14.493 -0.2347 -0.9819  0.6480
  443TIP3   OH222743   6.277   6.053   2.045 -0.0883 -0.1542 -0.3924
  443TIP3    H122744   6.259   6.079   2.136  2.3246 -1.5704  0.5328
  443TIP3    H222745   6.291   5.958   2.050  0.8479 -0.1166 -2.1246
  444TIP3   OH222746   5.370   1.202  14.559  0.0026  0.7462  0.8353
  444TIP3    H122747   5.442   1.189  14.621 -0.8666 -2.3061  1.3053
  444TIP3    H222748   5.411   1.191  14.473  0.0634 -1.4003  1.1156
  445TIP3   OH222749   2.081   6.694   6.514  0.0145  0.2057 -0.1998
  445TIP3    H122750   2.045   6.752   6.581 -0.5562 -0.7798  0.3523
  445TIP3    H222751   2.176   6.695   6.530  0.1123  1.6935 -0.7737
  446TIP3   OH222752   2.626   4.098   0.012  0.3526 -0.4459  0.1915
  446TIP3    H122753   2.625   4.068   0.103  2.2073  0.1200  0.4177
  446TIP3    H222754   2.655   4.189   0.018  0.8732 -0.5346 -1.0144
  447TIP3   OH222755   3.271   3.871   0.042  0.2048 -0.2718 -0.2517
  447TIP3    H122756   3.338   3.884  -0.025 -1.5002  0.5478 -1.8695
  447TIP3    H222757   3.283   3.945   0.102 -0.6811  1.2056 -1.8250
  448TIP3   OH222758   2.422   2.659   5.008  0.1548  0.3158  0.2387
  448TIP3    H122759   2.413   2.583   4.951  2.0346 -0.3378  0.7963
  448TIP3    H222760   2.481   2.631   5.078 -0.3906  1.7872  1.3313
  449TIP3   OH222761   3.060   0.728   0.324 -0.4514  0.9852  0.0298
  449TIP3    H122762   3.048   0.699   0.414  1.2456 -0.2560 -0.1253
  449TIP3    H222763   2.994   0.680   0.274  0.5436 -0.5702  0.1865
  450TIP3   OH222764   2.051   3.989   6.111  0.4363  0.2847 -0.4965
  450TIP3    H122765   2.123   3.945   6.067  0.5183  0.3465 -0.4231
  450TIP3    H222766   2.078   3.995   6.202 -0.0002 -0.3829 -0.3244
  451TIP3   OH222767   0.259   2.324   2.787 -0.1214 -0.4987 -0.5506
  451TIP3    H122768   0.239   2.401   2.735 -1.4378 -0.0107  0.6157
  451TIP3    H222769   0.353   2.329   2.805 -0.4252  1.5509  0.6135
  452TIP3   OH222770   6.130   5.199   1.197 -0.4519 -0.0637  0.4055
  452TIP3    H122771   6.183   5.277   1.181  0.3427 -0.4631  1.0775
  452TIP3    H222772   6.129   5.153   1.113 -0.0322  0.1142  0.3032
  453TIP3   OH222773   2.538   5.609   2.366 -0.1492  0.2996 -0.6510
  453TIP3    H122774   2.612   5.627   2.307 -0.5574  1.5760 -0.7736
  453TIP3    H222775   2.579   5.575   2.445  0.5529  0.6430 -0.8597
  454TIP3   OH222776   5.025   6.229  15.214  0.0181  0.1553 -1.0817
  454TIP3    H122777   5.066   6.166  15.273 -2.0592 -0.5305 -0.3067
  454TIP3    H222778   5.044   6.314  15.254  1.8521 -0.0493 -1.5042
  455TIP3   OH222779   0.139   1.476  11.455 -0.7496 -0.0842 -0.3614
  455TIP3    H122780   0.084   1.543  11.497 -1.3069 -1.2084  0.7338
  455TIP3    H222781   0.080   1.402  11.440 -0.1509 -0.3114 -1.6455
  456TIP3   OH222782   0.325   3.837   0.990 -0.3780 -0.0658 -0.3089
  456TIP3    H122783   0.411   3.855   1.026 -0.8876 -2.7777  2.4721
  456TIP3    H222784   0.305   3.912   0.934  2.2861  2.2222  1.7421
  457TIP3   OH222785   1.855   6.649   2.112  0.8817 -0.0397 -0.0332
  457TIP3    H122786   1.923   6.674   2.050  1.9193  1.3523  1.6324
  457TIP3    H222787   1.893   6.665   2.199 -1.9106  1.8364  0.9402
  458TIP3   OH222788   2.005   1.390   1.208  0.4268  0.5788 -0.2157
  458TIP3    H122789   2.071   1.423   1.269 -0.2012  0.4466  0.5418
  458TIP3    H222790   1.964   1.316   1.253 -0.0415  0.4805 -0.7895
  459TIP3   OH222791   4.618   0.125  11.959 -0.6108  0.6838 -0.3323
  459TIP3    H122792   4.606   0.084  12.044 -0.0253  0.5525 -0.3074
  459TIP3    H222793   4.533   0.119  11.916 -0.8495  0.5550  0.1569
  460TIP3   OH222794   0.712   5.282   5.125 -0.0888  0.6762 -0.1752
  460TIP3    H122795   0.729   5.370   5.092  0.1410  0.0868 -1.6449
  460TIP3    H222796   0.618   5.270   5.115 -0.2788  1.1177  0.9670
  461TIP3   OH222797   3.108   4.843  14.334  0.5130 -0.0981 -0.5284
  461TIP3    H122798   3.178   4.858  14.398 -0.1902 -1.8966  0.7295
  461TIP3    H222799   3.027   4.858  14.383 -0.0194 -0.1092 -1.3943
  462TIP3   OH222800   4.952   2.102  17.092 -0.6332 -0.0116  0.5151
  462TIP3    H122801   4.859   2.097  17.114 -0.4997  0.1175  1.1073
  462TIP3    H222802   4.976   2.193  17.112 -0.0598 -0.4019  1.6327
  463TIP3   OH222803   1.188   1.787   1.267 -0.0251 -0.1549 -0.4881
  463TIP3    H122804   1.157   1.768   1.356 -1.2699  0.9128 -0.6702
  463TIP3    H222805   1.228   1.873   1.273  0.2649 -0.2625 -0.8700
  464TIP3   OH222806   1.270   5.698  14.677  0.2112  0.4046 -0.5827
  464TIP3    H122807   1.216   5.620  14.691  0.5130  0.0345 -1.4191
  464TIP3    H222808   1.217   5.771  14.709 -0.7511  0.0353 -1.3290
  465TIP3   OH222809   3.812   3.114   1.802 -0.5591  0.5568  0.7251
  465TIP3    H122810   3.817   3.175   1.729  0.5075 -1.1290 -0.6311
  465TIP3    H222811   3.903   3.104   1.831 -0.8046  0.1109  1.3489
  466TIP3   OH222812   5.971   3.603   3.096 -0.1159  0.6570  0.7765
  466TIP3    H122813   5.890   3.563   3.126  0.4212  0.0363  1.4146
  466TIP3    H222814   5.961   3.696   3.116 -0.4778  0.5094  1.2704
  467TIP3   OH222815   4.345   5.393  12.915  0.7830  0.1107  0.0834
  467TIP3    H122816   4.409   5.344  12.865  2.0829  1.9510 -0.1137
  467TIP3    H222817   4.356   5.484  12.886 -0.9268  0.6627  1.0758
  468TIP3   OH222818   0.468   1.574  13.326  0.1379  0.5121 -0.5135
  468TIP3    H122819   0.482   1.494  13.276 -0.0159  0.8960 -1.1788
  468TIP3    H222820   0.401   1.551  13.390  1.3462 -0.3768  0.4455
  469TIP3   OH222821   5.350   2.066  11.567 -0.1759  0.5242 -0.1597
  469TIP3    H122822   5.280   2.125  11.539 -0.3213  0.7805  0.7242
  469TIP3    H222823   5.427   2.097  11.519 -0.8220 -0.2375 -1.7069
  470TIP3   OH222824   3.296   4.666   4.086  0.6414 -0.1870  0.5286
  470TIP3    H122825   3.232   4.709   4.028  1.5560  0.0108 -0.3498
  470TIP3    H222826   3.360   4.735   4.105  1.1075 -0.6443  0.6189
  471TIP3   OH222827   1.770   1.789  12.825 -0.1822  0.2877 -0.1177
  471TIP3    H122828   1.788   1.875  12.864 -1.7001  1.1699 -1.2783
  471TIP3    H222829   1.730   1.738  12.895 -0.2897  0.9013  0.2686
  472TIP3   OH222830   6.219   2.874   6.105 -0.7400  0.4511 -0.4004
  472TIP3    H122831   6.197   2.882   6.198  1.1568  3.7506 -0.1826
  472TIP3    H222832   6.149   2.920   6.059 -1.6409 -1.1216 -0.6610
  473TIP3   OH222833   4.649   5.520   3.200 -0.2766 -0.3521  0.1127
  473TIP3    H122834   4.622   5.605   3.233  1.8729  0.7703 -0.9554
  473TIP3    H222835   4.692   5.478   3.275  0.3068  0.2495  0.1188
  474TIP3   OH222836   2.949   2.400  16.944  0.0869 -0.3809 -0.0482
  474TIP3    H122837   2.934   2.489  16.913  0.7438 -0.0913  0.4541
  474TIP3    H222838   2.901   2.345  16.882 -0.2987  0.3154 -0.3778
  475TIP3   OH222839   4.822   2.291   4.252  0.3047 -0.9276  0.2973
  475TIP3    H122840   4.819   2.381   4.219 -1.6632 -0.1446  2.3731
  475TIP3    H222841   4.796   2.237   4.178  2.2134  0.1269 -1.1828
  476TIP3   OH222842   4.646   1.098   1.915  0.1958 -0.0353 -0.1182
  476TIP3    H122843   4.597   1.112   1.834  0.6257 -1.0302 -0.5650
  476TIP3    H222844   4.689   1.181   1.932 -0.4207  0.3828 -0.5505
  477TIP3   OH222845   5.760   2.315  13.125  0.1005 -0.3583  0.4871
  477TIP3    H122846   5.808   2.293  13.045  1.2984 -1.9450  1.6144
  477TIP3    H222847   5.731   2.405  13.111 -1.9082 -1.4479 -2.7860
  478TIP3   OH222848   4.817   0.735   0.926  0.2187 -0.2015  0.8026
  478TIP3    H122849   4.818   0.649   0.884 -0.1036  0.2419 -0.1337
  478TIP3    H222850   4.724   0.758   0.931  0.3444  0.3751  0.4578
  479TIP3   OH222851   6.444   4.293  15.640 -0.0201 -0.0567  0.4899
  479TIP3    H122852   6.435   4.201  15.613 -0.7214  0.1234  0.0982
  479TIP3    H222853   6.466   4.339  15.559 -0.3592  0.2255  0.5603
  480TIP3   OH222854   0.072   2.150   5.901  0.3265  0.6403  0.3383
  480TIP3    H122855   0.119   2.187   5.826 -2.4414  2.1305 -0.7648
  480TIP3    H222856   0.027   2.225   5.940 -0.9231 -0.6755  1.4786
  481TIP3   OH222857   0.241   0.505   4.903 -0.0424 -0.3339 -0.1535
  481TIP3    H122858   0.174   0.531   4.840 -0.3406 -0.5302  0.0815
  481TIP3    H222859   0.267   0.417   4.874  1.5088  0.5146 -1.4003
  482TIP3   OH222860   6.016   4.708   4.014  0.1649 -1.0713  0.1323
  482TIP3    H122861   6.110   4.725   4.018  0.1378 -0.6990 -0.6654
  482TIP3    H222862   6.009   4.618   3.983  0.2559 -0.7748 -0.7755
  483TIP3   OH222863   5.172   4.077  12.872  0.2812  0.2070  0.5818
  483TIP3    H122864   5.192   4.098  12.963  0.8851  1.5070  0.1686
  483TIP3    H222865   5.097   4.018  12.876 -0.1725  0.8655  1.8856
  484TIP3   OH222866   2.109   4.813  16.089 -0.2116 -0.2962 -0.4084
  484TIP3    H122867   2.020   4.847  16.075 -0.2819 -0.5695 -0.6346
  484TIP3    H222868   2.163   4.891  16.099 -0.5362 -0.1316  0.0995
  485TIP3   OH222869   0.809   2.524  13.805 -0.1416  0.3025  0.4327
  485TIP3    H122870   0.854   2.581  13.744  0.7956 -0.8911 -0.0134
  485TIP3    H222871   0.782   2.581  13.877 -0.5934  1.5700 -0.7364
  486TIP3   OH222872   2.347   5.931  15.012  0.6345  0.0506  0.2953
  486TIP3    H122873   2.346   6.023  15.039 -0.5084  0.4634 -1.1054
  486TIP3    H222874   2.254   5.908  15.003  0.9475 -0.9453 -0.3576
  487TIP3   OH222875   2.918   4.201  15.508 -0.3424  0.0502  0.3667
  487TIP3    H122876   2.850   4.175  15.447  0.3322  2.4355 -1.4847
  487TIP3    H222877   2.998   4.203  15.456  0.5630  0.5107  1.7263
  488TIP3   OH222878   1.290   2.200   1.795 -0.2985 -0.3734  0.1994
  488TIP3    H122879   1.212   2.160   1.756  0.3826 -0.9710 -0.5840
  488TIP3    H222880   1.274   2.198   1.889 -1.5316  0.1586  0.0141
  489TIP3   OH222881   4.218   4.512  14.252  0.5268  0.3658  0.5489
  489TIP3    H122882   4.148   4.499  14.188  1.1550 -1.2771  0.1691
  489TIP3    H222883   4.172   4.525  14.335 -0.2966  2.5498 -0.2111
  490TIP3   OH222884   0.986   2.995   3.899  0.2777  0.1741  0.3437
  490TIP3    H122885   0.984   3.086   3.927  1.4765 -0.1615  1.5858
  490TIP3    H222886   0.894   2.970   3.890 -0.0598  1.7988 -1.0401
  491TIP3   OH222887   2.730   3.310   5.535  0.2992  0.3048  0.0511
  491TIP3    H122888   2.713   3.296   5.442  0.7368 -5.0387  0.5744
  491TIP3    H222889   2.646   3.338   5.571 -0.5793 -0.1630 -1.5791
  492TIP3   OH222890   1.149   1.820  11.907  0.0140  0.0840 -0.3166
  492TIP3    H122891   1.154   1.838  11.813 -1.1577  0.7485 -0.2660
  492TIP3    H222892   1.239   1.799  11.933  0.6967  1.7882 -1.2179
  493TIP3   OH222893   2.005   1.740  13.580  0.3987  0.4761 -0.0335
  493TIP3    H122894   1.994   1.824  13.626  0.3091 -0.0489  0.9351
  493TIP3    H222895   1.979   1.674  13.645  1.1416 -0.3411 -0.5487
  494TIP3   OH222896   3.423   5.621  13.620  0.9394 -0.1949 -0.2910
  494TIP3    H122897   3.513   5.591  13.627  1.3636  1.4584  2.3187
  494TIP3    H222898   3.430   5.713  13.593 -0.0736 -0.7120 -2.3948
  495TIP3   OH222899   1.748   2.800  10.531  0.3767 -0.3807  0.5242
  495TIP3    H122900   1.685   2.748  10.482  0.0987 -0.1551  0.6387
  495TIP3    H222901   1.740   2.769  10.622  1.9528 -1.8464  0.1927
  496TIP3   OH222902   5.681   0.743  11.034 -0.0126 -0.3570 -0.5072
  496TIP3    H122903   5.592   0.752  11.068  0.0078  1.3179 -0.8811
  496TIP3    H222904   5.670   0.708  10.946 -0.1438 -3.0091  0.5122
  497TIP3   OH222905   6.562   5.978  13.296 -0.4379 -0.1357  0.2189
  497TIP3    H122906   6.557   5.954  13.389 -2.1598 -2.8029 -0.5063
  497TIP3    H222907   6.654   6.001  13.282  0.4413 -2.4366  1.9465
  498TIP3   OH222908   4.074   4.786   0.058 -0.0297 -0.5504  0.0727
  498TIP3    H122909   4.033   4.716   0.006 -2.2681  1.2174 -0.5979
  498TIP3    H222910   4.057   4.762   0.149 -1.2508 -0.6226 -0.1667
  499TIP3   OH222911   3.010   2.155   0.814  0.0708  0.0019 -0.3448
  499TIP3    H122912   2.985   2.243   0.842  0.7081 -0.0998  0.5662
  499TIP3    H222913   2.977   2.148   0.725  0.2264  1.2606 -0.5157
  500TIP3   OH222914   6.659   5.344   3.110 -0.2868  0.9579  0.0354
  500TIP3    H122915   6.697   5.328   3.196 -0.7384  0.0083  0.0680
  500TIP3    H222916   6.696   5.276   3.054 -2.5644 -0.5312  0.2697
  501TIP3   OH222917   5.142   5.037   3.974 -0.2476 -0.5670  0.1476
  501TIP3    H122918   5.198   5.080   3.909  0.3114 -2.1448 -0.4377
  501TIP3    H222919   5.068   5.097   3.986  1.2271  1.2303  0.4421
  502TIP3   OH222920   4.761   5.079   4.826 -0.4822  0.4681  0.5633
  502TIP3    H122921   4.705   5.049   4.755 -0.4055 -0.0450  0.7175
  502TIP3    H222922   4.767   5.174   4.813 -0.4841  0.3811 -0.1010
  503TIP3   OH222923   2.603   2.972  16.344 -0.4178  0.3073  0.1795
  503TIP3    H122924   2.536   2.946  16.282  1.0850 -0.0847 -1.3099
  503TIP3    H222925   2.675   3.005  16.290  1.2301 -0.7722  1.6413
  504TIP3   OH222926   6.591   2.413  14.813  0.4772 -0.6875  0.0321
  504TIP3    H122927   6.497   2.400  14.808  0.3120  1.1045 -3.0575
  504TIP3    H222928   6.602   2.487  14.872 -0.0319 -0.9441  0.4545
  505TIP3   OH222929   4.859   0.567   5.968 -0.0051 -0.8060  0.0385
  505TIP3    H122930   4.903   0.588   5.886  0.7571 -0.2779  0.5680
  505TIP3    H222931   4.926   0.580   6.035 -0.7709 -0.6880  0.7976
  506TIP3   OH222932   5.499   1.789  14.979  0.4716  0.3986 -0.4878
  506TIP3    H122933   5.455   1.867  15.011  1.4977  1.3286 -1.3321
  506TIP3    H222934   5.568   1.772  15.043 -1.0959 -1.0840  0.8579
  507TIP3   OH222935   5.299   5.943  11.670 -0.2972 -0.0636 -0.1538
  507TIP3    H122936   5.354   5.995  11.612 -0.3934  0.9420  0.6265
  507TIP3    H222937   5.354   5.926  11.747 -1.1263  1.1635  0.7407
  508TIP3   OH222938   2.699   4.774   6.062  0.2991  0.1102  0.4277
  508TIP3    H122939   2.728   4.707   6.124  1.4725  0.0062 -0.2125
  508TIP3    H222940   2.686   4.852   6.116 -0.4210 -0.4468  1.0732
  509TIP3   OH222941   2.502   0.317  11.827 -0.6972  0.4441 -0.0148
  509TIP3    H122942   2.503   0.234  11.874 -1.2729  0.8157  0.6553
  509TIP3    H222943   2.534   0.381  11.891 -1.1615  0.8982 -0.2368
  510TIP3   OH222944   0.126   4.196  11.186 -0.2281  0.3203 -0.1084
  510TIP3    H122945   0.103   4.253  11.113  0.4873  1.5709  0.6135
  510TIP3    H222946   0.124   4.108  11.150  0.2990  0.9367 -1.6755
  511TIP3   OH222947   5.432   0.959   2.386  0.2431  0.6025  0.1625
  511TIP3    H122948   5.362   1.020   2.410  0.0954 -0.0683  1.4647
  511TIP3    H222949   5.387   0.886   2.344 -0.0501 -0.5982  2.4669
  512TIP3   OH222950   3.024   0.174  15.274 -0.0842 -0.3263 -0.3147
  512TIP3    H122951   3.107   0.168  15.228  0.4889 -0.3736  0.7085
  512TIP3    H222952   3.028   0.257  15.321  0.4162 -1.4753  1.7032
  513TIP3   OH222953   5.015   3.697  13.163  0.2791 -0.0508  0.1833
  513TIP3    H122954   4.976   3.639  13.229  1.0651  0.3769  1.0481
  513TIP3    H222955   4.942   3.751  13.133 -0.2943 -0.9295 -0.0317
  514TIP3   OH222956   1.805   0.405  15.508 -0.1580 -0.2804 -0.0614
  514TIP3    H122957   1.820   0.313  15.528 -0.2632 -0.3563 -0.3176
  514TIP3    H222958   1.715   0.407  15.474 -0.3017 -0.0203  0.3404
  515TIP3   OH222959   6.364   1.950   5.849 -0.4523  0.0625  0.4358
  515TIP3    H122960   6.445   2.001   5.838 -0.7786  0.6665  0.7808
  515TIP3    H222961   6.354   1.943   5.944 -1.3489  0.8762  0.4152
  516TIP3   OH222962   4.588   3.123   3.113  0.1630  0.0197  0.2587
  516TIP3    H122963   4.493   3.132   3.111  0.1585  0.5105  1.8326
  516TIP3    H222964   4.606   3.077   3.195  1.1458 -2.1261 -1.1221
  517TIP3   OH222965   1.910   4.284   0.897  0.1495 -0.5244  0.3686
  517TIP3    H122966   1.847   4.235   0.951 -1.9273 -0.9525 -2.3027
  517TIP3    H222967   1.969   4.216   0.863 -2.1442 -1.1620 -2.5575
  518TIP3   OH222968   2.977   1.342  14.897 -0.6795 -0.0045  0.1436
  518TIP3    H122969   3.035   1.410  14.863  0.8246 -0.9162  0.7699
  518TIP3    H222970   2.999   1.264  14.846 -0.3522 -0.7016  1.3150
  519TIP3   OH222971   0.323   6.111  12.805 -0.1286  0.7458 -0.0842
  519TIP3    H122972   0.341   6.126  12.898 -0.6890 -2.7493  0.6738
  519TIP3    H222973   0.228   6.105  12.800 -0.2883  3.5019 -1.3871
  520TIP3   OH222974   5.347   2.444   1.620 -0.5310 -0.9285 -0.1032
  520TIP3    H122975   5.258   2.433   1.652 -0.9939 -0.2995 -1.1457
  520TIP3    H222976   5.397   2.475   1.696 -0.9100 -2.5033  0.8173
  521TIP3   OH222977   3.365   0.801  12.789  0.2346  0.2168 -0.3094
  521TIP3    H122978   3.403   0.714  12.797 -1.0469 -0.1911  1.9080
  521TIP3    H222979   3.422   0.847  12.729  0.5998 -2.3366 -1.9820
  522TIP3   OH222980   4.187   5.447  15.775 -0.1067  0.2688  0.1083
  522TIP3    H122981   4.171   5.472  15.866  1.1410 -1.9416  0.9747
  522TIP3    H222982   4.133   5.369  15.761 -1.0227  1.1413 -1.3565
  523TIP3   OH222983   0.843   3.163  14.282 -0.3113 -0.3675 -0.6589
  523TIP3    H122984   0.929   3.122  14.272  0.1030 -0.9624  4.0636
  523TIP3    H222985   0.857   3.254  14.257  1.6470 -0.5432 -0.2750
  524TIP3   OH222986   1.765   0.031   4.697  0.1928 -0.1394 -0.7155
  524TIP3    H122987   1.817   0.085   4.757 -0.0698 -1.4330  0.7197
  524TIP3    H222988   1.761  -0.055   4.740  0.4163 -1.2394 -2.8515
  525TIP3   OH222989   2.512   1.467  15.745  0.0662  0.1753 -0.4676
  525TIP3    H122990   2.590   1.524  15.747 -0.1979  0.5776 -1.2335
  525TIP3    H222991   2.452   1.506  15.809  0.8917 -0.7338  0.8820
  526TIP3   OH222992   2.196   6.285  12.680  0.0259 -0.7602  0.0599
  526TIP3    H122993   2.253   6.358  12.658 -1.8803  0.7902  0.1535
  526TIP3    H222994   2.149   6.266  12.598  0.7111 -2.0767 -0.0412
  527TIP3   OH222995   5.343   4.795   5.664 -0.1620 -0.0207  0.3677
  527TIP3    H122996   5.291   4.819   5.587 -0.9719 -1.7400  0.3571
  527TIP3    H222997   5.343   4.874   5.718 -2.4473  0.1636  0.1651
  528TIP3   OH222998   5.417   1.573  12.064 -0.1968  0.4916 -0.2131
  528TIP3    H122999   5.327   1.554  12.039 -0.3172 -2.2008  2.0546
  528TIP3    H223000   5.413   1.589  12.158  2.0151 -2.1519  0.3853
  529TIP3   OH223001   6.320   1.233  14.624  0.2418 -0.3443  0.2772
  529TIP3    H123002   6.230   1.213  14.651  0.3670 -1.1517  0.0899
  529TIP3    H223003   6.374   1.198  14.695  0.4280 -0.0290  0.2942
  530TIP3   OH223004   0.223   5.381   5.504  0.1942 -0.0943 -0.3897
  530TIP3    H123005   0.192   5.291   5.519  0.9102 -0.0817  1.2982
  530TIP3    H223006   0.306   5.371   5.458 -0.5484 -0.2351 -1.7206
  531TIP3   OH223007   5.152   3.727   1.096 -0.2276  0.1071  0.0949
  531TIP3    H123008   5.101   3.721   1.176  0.7814 -1.2398  0.6560
  531TIP3    H223009   5.163   3.637   1.067 -0.9017  0.5982 -1.7772
  532TIP3   OH223010   5.250   1.463   4.872 -0.1138 -0.2681  0.2306
  532TIP3    H123011   5.250   1.441   4.778  0.2791 -0.2925  0.2387
  532TIP3    H223012   5.257   1.378   4.916  0.1534 -0.2201  0.2785
  533TIP3   OH223013   0.518   0.287   2.041  0.0882 -0.2930 -0.0586
  533TIP3    H123014   0.436   0.324   2.008  0.5087  0.3643 -0.3831
  533TIP3    H223015   0.509   0.193   2.028 -0.6595 -0.2349  0.0078
  534TIP3   OH223016   1.094   3.703   2.379  0.1933 -0.7345 -0.6987
  534TIP3    H123017   1.157   3.673   2.313 -0.6254  0.6386 -2.1253
  534TIP3    H223018   1.021   3.642   2.373 -0.3634  0.0423 -1.8328
  535TIP3   OH223019   0.172   0.129  12.323 -0.3650  0.6451  0.0518
  535TIP3    H123020   0.170   0.223  12.308 -0.2486  0.3260 -2.1487
  535TIP3    H223021   0.150   0.091  12.238 -0.2583 -1.3129  0.8801
  536TIP3   OH223022   5.519   1.223   5.244 -0.6730 -0.0355 -0.2530
  536TIP3    H123023   5.559   1.139   5.267 -2.8119 -1.7794 -2.5091
  536TIP3    H223024   5.592   1.277   5.214  0.5752 -1.6137 -0.1213
  537TIP3   OH223025   3.631   3.946   1.432  0.3920 -0.0351  0.2754
  537TIP3    H123026   3.563   3.980   1.490 -0.3974 -0.0076 -0.6616
  537TIP3    H223027   3.604   3.856   1.414  0.3436  0.1277 -0.4810
  538TIP3   OH223028   5.985   0.672   4.478  0.2106 -0.2557 -0.9612
  538TIP3    H123029   5.940   0.719   4.408  1.1661  0.5273 -1.0656
  538TIP3    H223030   5.931   0.686   4.556 -0.8499 -1.1195 -1.5307
  539TIP3   OH223031   0.525   5.201  11.044 -0.0005  0.7610  0.5809
  539TIP3    H123032   0.583   5.272  11.018  0.3465  0.2428 -0.0766
  539TIP3    H223033   0.437   5.231  11.020  0.5210 -0.7112 -3.5921
  540TIP3   OH223034   5.197   4.690   5.190 -0.0213  0.2169 -0.1071
  540TIP3    H123035   5.225   4.613   5.142 -3.3250 -2.5481  2.1038
  540TIP3    H223036   5.134   4.733   5.133 -1.1259 -0.9830  0.1716
  541TIP3   OH223037   1.671   2.134   5.290 -0.4346  0.4330  0.5382
  541TIP3    H123038   1.587   2.175   5.308 -0.7868 -0.1283  0.1995
  541TIP3    H223039   1.735   2.205   5.298 -0.9922  0.9673  0.3070
  542TIP3   OH223040   2.471   1.410   6.949 -0.0846  0.2808 -0.4077
  542TIP3    H123041   2.500   1.501   6.950  0.0339  0.2474 -1.2286
  542TIP3    H223042   2.450   1.392   6.858 -0.3517 -0.4392 -0.2059
  543TIP3   OH223043   0.747   4.908  16.203  0.1204  0.2074 -0.8589
  543TIP3    H123044   0.773   4.852  16.277 -0.7430  0.3553 -0.4289
  543TIP3    H223045   0.718   4.989  16.245 -0.9210  0.0819 -1.3194
  544TIP3   OH223046   3.440   3.442  14.435  0.5580 -0.3532 -0.4358
  544TIP3    H123047   3.483   3.526  14.416 -0.9308  0.1894 -1.4960
  544TIP3    H223048   3.347   3.460  14.424  0.1965 -2.0707 -0.3183
  545TIP3   OH223049   2.507   2.383   5.529  0.1909 -0.2505  0.0391
  545TIP3    H123050   2.586   2.347   5.569  0.4267 -0.3623 -0.5275
  545TIP3    H223051   2.507   2.475   5.554  0.3682 -0.3069  0.2436
  546TIP3   OH223052   4.983   4.890  13.280 -0.2689 -0.1849  0.0367
  546TIP3    H123053   4.944   4.976  13.267 -1.8105 -1.2924 -3.3450
  546TIP3    H223054   4.912   4.837  13.316 -0.4663 -0.9682 -1.4662
  547TIP3   OH223055   0.959   4.268   0.301 -0.2702  0.1203 -0.5448
  547TIP3    H123056   1.025   4.322   0.342 -0.5541  0.2742 -0.2921
  547TIP3    H223057   1.001   4.182   0.292 -1.4585 -0.9739  3.4707
  548TIP3   OH223058   1.074   4.133  12.015 -0.4263  0.0177  0.3197
  548TIP3    H123059   1.153   4.166  11.972 -0.8249 -0.7248 -1.0165
  548TIP3    H223060   1.003   4.156  11.954 -0.9266 -1.5900  0.2810
  549TIP3   OH223061   3.923   5.345   4.362  0.1512  0.1164 -0.0637
  549TIP3    H123062   3.896   5.265   4.317 -1.6900 -0.9270  2.7672
  549TIP3    H223063   4.018   5.338   4.370  0.0875 -1.4135 -0.5765
  550TIP3   OH223064   5.441   3.316   5.869  0.1695  0.1499 -0.5189
  550TIP3    H123065   5.373   3.363   5.917 -0.9285  0.8388 -2.7031
  550TIP3    H223066   5.517   3.374   5.873  0.3249 -0.1321  0.9855
  551TIP3   OH223067   2.352   1.675  13.283  0.2008  0.2145  0.3015
  551TIP3    H123068   2.285   1.722  13.234  1.2010 -0.1763 -1.4826
  551TIP3    H223069   2.414   1.742  13.309  0.5601  0.1792 -0.4600
  552TIP3   OH223070   0.481   3.814  17.192  0.7671 -0.1225 -0.2415
  552TIP3    H123071   0.439   3.785  17.111  2.0828 -0.4536 -0.8084
  552TIP3    H223072   0.518   3.734  17.230  4.5671  0.7635 -1.9024
  553TIP3   OH223073   0.848   5.031   0.508  0.6183 -0.0817 -0.2114
  553TIP3    H123074   0.806   5.087   0.443  1.3379 -0.2527 -0.8366
  553TIP3    H223075   0.780   5.012   0.572 -0.4264 -0.8923 -1.5514
  554TIP3   OH223076   4.632   3.030  15.978 -0.2406 -0.4688  0.0483
  554TIP3    H123077   4.544   3.011  16.011 -0.6219 -0.7390 -1.0839
  554TIP3    H223078   4.629   3.003  15.886  1.1335 -0.8079  0.0918
  555TIP3   OH223079   1.274   0.232   3.059  0.7754  0.0582  0.5236
  555TIP3    H123080   1.237   0.153   3.098  2.4559 -1.3345 -0.6272
  555TIP3    H223081   1.200   0.275   3.017 -0.1914 -0.8208  1.3178
  556TIP3   OH223082   3.461   4.394   5.142  0.4311  0.6186 -0.3276
  556TIP3    H123083   3.417   4.460   5.195  1.1495  1.9604 -1.3609
  556TIP3    H223084   3.391   4.352   5.092  0.0697  1.2318 -0.3376
  557TIP3   OH223085   1.535   0.241   5.733  0.1183 -0.8656  0.5660
  557TIP3    H123086   1.474   0.315   5.723 -0.2203 -1.1881  0.2481
  557TIP3    H223087   1.610   0.279   5.779 -0.5733 -0.5941  1.4925
  558TIP3   OH223088   1.504   3.261   1.450 -0.4750  0.7066  0.0184
  558TIP3    H123089   1.436   3.327   1.440 -0.1012  0.9302 -1.0448
  558TIP3    H223090   1.584   3.303   1.418 -0.4694 -0.6649 -1.8429
  559TIP3   OH223091   5.230   2.267  16.358  0.2229  0.1776 -0.0962
  559TIP3    H123092   5.314   2.291  16.317  0.5564 -1.1417 -0.1941
  559TIP3    H223093   5.169   2.334  16.326  1.3258  1.4327  0.3468
  560TIP3   OH223094   3.806   3.992   1.198 -0.0933 -0.3615  0.3206
  560TIP3    H123095   3.860   4.049   1.254 -0.9562 -0.2930  1.0931
  560TIP3    H223096   3.745   3.950   1.258 -2.7143  1.6211 -0.8705
  561TIP3   OH223097   2.349   4.393   4.663  0.0805  0.6565 -0.5572
  561TIP3    H123098   2.316   4.397   4.752  1.9050 -1.4389  0.2615
  561TIP3    H223099   2.314   4.311   4.628 -0.3658  1.3063 -1.6702
  562TIP3   OH223100   2.414   6.220  12.067  0.7808  0.0142  0.1766
  562TIP3    H123101   2.357   6.230  12.143 -0.4562  2.4836 -1.0199
  562TIP3    H223102   2.480   6.288  12.077  0.2476  0.7586 -1.2634
  563TIP3   OH223103   3.997   5.255   2.743  1.0437 -0.3119 -0.0160
  563TIP3    H123104   4.031   5.182   2.690  1.1496 -0.1697 -0.1455
  563TIP3    H223105   3.932   5.215   2.800 -0.4239 -0.1741 -1.5394
  564TIP3   OH223106   3.544   3.840  14.176 -0.4260 -0.3381 -0.2686
  564TIP3    H123107   3.538   3.872  14.266 -0.5612  0.8489 -0.6919
  564TIP3    H223108   3.584   3.753  14.184 -0.5996 -0.3150  0.9462
  565TIP3   OH223109   6.142   0.753  16.913 -0.5322  0.7680 -0.0235
  565TIP3    H123110   6.078   0.727  16.847  0.8072  1.8992 -1.7720
  565TIP3    H223111   6.197   0.675  16.924  1.3970  1.6762 -2.8149
  566TIP3   OH223112   2.740   2.786  14.863 -0.2582  0.4635 -0.0635
  566TIP3    H123113   2.804   2.826  14.804 -1.2837 -0.3037 -1.7248
  566TIP3    H223114   2.743   2.693  14.843  0.6078 -0.0669  2.3322
  567TIP3   OH223115   5.206   4.297   0.242  0.3801 -0.2812 -0.2093
  567TIP3    H123116   5.270   4.228   0.224  0.7638 -0.2389  0.9749
  567TIP3    H223117   5.130   4.251   0.277  0.7366 -0.0925  0.8382
  568TIP3   OH223118   3.334   5.632   6.042 -0.0959 -0.2631  0.3366
  568TIP3    H123119   3.387   5.569   5.994  0.9948  0.1862  0.9298
  568TIP3    H223120   3.275   5.578   6.095 -2.4619 -0.7686 -2.6635
  569TIP3   OH223121   4.155   5.592   5.878 -0.6186 -0.0476 -0.4640
  569TIP3    H123122   4.142   5.687   5.879  0.4293  0.1012  0.1210
  569TIP3    H223123   4.148   5.565   5.969  1.5549 -0.1579 -0.2976
  570TIP3   OH223124   5.216   6.677   2.842 -0.1206  0.6331 -0.3941
  570TIP3    H123125   5.284   6.672   2.775 -0.0298  0.7588 -0.3133
  570TIP3    H223126   5.236   6.758   2.890 -0.1215  0.4868 -0.1474
  571TIP3   OH223127   5.853   5.811  12.959  0.0395  0.1408  0.1358
  571TIP3    H123128   5.765   5.839  12.935 -0.3429  0.0493  1.4165
  571TIP3    H223129   5.845   5.716  12.972 -0.4505  0.5933  3.5379
  572TIP3   OH223130   2.617   6.065   2.529 -0.5697  0.3821  0.0628
  572TIP3    H123131   2.634   6.035   2.439 -0.9917  1.5968 -0.4215
  572TIP3    H223132   2.637   5.988   2.583 -0.3681 -0.3806 -1.0675
  573TIP3   OH223133   3.587   6.212   4.412  0.1577  0.9739  0.3317
  573TIP3    H123134   3.626   6.160   4.342  0.2093  0.4228  0.7632
  573TIP3    H223135   3.553   6.290   4.368 -0.8584  0.0949 -0.4859
  574TIP3   OH223136   6.247   5.024  13.147 -0.4551 -0.2307 -0.1093
  574TIP3    H123137   6.221   5.114  13.127  0.9332  0.5290  1.4093
  574TIP3    H223138   6.171   4.987  13.192 -0.4632  0.6871  0.6506
  575TIP3   OH223139   6.561   6.723   4.643 -0.3483 -0.2916  0.2836
  575TIP3    H123140   6.615   6.663   4.694  0.0613 -0.6063 -0.5209
  575TIP3    H223141   6.574   6.808   4.685 -0.0617 -0.5565  0.7363
  576TIP3   OH223142   1.303   4.467   6.760  0.0991 -0.0897 -0.6960
  576TIP3    H123143   1.368   4.517   6.711  0.5304  1.1580  1.1355
  576TIP3    H223144   1.227   4.524   6.764  0.5560  0.4097  1.3021
  577TIP3   OH223145   6.317   0.441  12.524  0.0563 -0.0751  0.0950
  577TIP3    H123146   6.278   0.363  12.565  2.7955 -0.7210  1.6022
  577TIP3    H223147   6.280   0.442  12.436 -0.3130 -2.8945  0.1496
  578TIP3   OH223148   4.790   5.417  12.522  0.2158  0.2037  0.1237
  578TIP3    H123149   4.848   5.486  12.490  0.9068 -0.2725  0.3483
  578TIP3    H223150   4.753   5.453  12.603  0.2436  0.4811  0.0133
  579TIP3   OH223151   1.880   3.414   0.430  0.1448 -0.7483  0.4623
  579TIP3    H123152   1.888   3.353   0.503 -0.5512 -1.5345 -0.1088
  579TIP3    H223153   1.892   3.500   0.470 -0.5532 -1.1427  1.5711
  580TIP3   OH223154   4.268   6.107   3.432  0.0989  0.0640 -0.1196
  580TIP3    H123155   4.285   6.120   3.525 -0.9952 -0.0430  0.1078
  580TIP3    H223156   4.354   6.098   3.392  0.5462 -1.4101  1.1166
  581TIP3   OH223157   4.164   0.543   2.022 -0.3670  0.1645  0.0034
  581TIP3    H123158   4.187   0.470   2.079 -0.3922 -0.6615 -1.0285
  581TIP3    H223159   4.072   0.529   2.001 -0.5597  0.8790  0.3619
  582TIP3   OH223160   0.538   2.979   5.615 -0.0146  0.2397  0.0906
  582TIP3    H123161   0.462   2.926   5.640 -1.1484  1.6447 -0.2548
  582TIP3    H223162   0.543   2.970   5.519  0.4664 -0.1336  0.1525
  583TIP3   OH223163   4.570   6.646  15.147 -0.1704  0.4017  0.3179
  583TIP3    H123164   4.547   6.604  15.064 -0.8823  0.8765  0.2678
  583TIP3    H223165   4.659   6.677  15.134 -0.1549  0.1686 -0.1510
  584TIP3   OH223166   3.335   6.076  16.128 -0.4900 -0.8399 -0.0499
  584TIP3    H123167   3.257   6.097  16.180  0.5057 -0.5766  1.3732
  584TIP3    H223168   3.409   6.106  16.182  0.5700 -0.2815 -1.7590
  585TIP3   OH223169   4.643   1.571   0.173 -0.2256  0.3582 -0.5127
  585TIP3    H123170   4.607   1.654   0.141  1.0769 -0.3112 -3.8937
  585TIP3    H223171   4.569   1.510   0.169  0.0184  0.1842 -2.7045
  586TIP3   OH223172   4.914   0.588   3.396 -0.0319  0.0393  0.3028
  586TIP3    H123173   4.843   0.528   3.370 -0.8831  1.1975 -0.1091
  586TIP3    H223174   4.987   0.565   3.339 -0.5661 -0.1798 -0.3056
  587TIP3   OH223175   5.521   3.322   4.299  0.2268 -0.1240 -0.2772
  587TIP3    H123176   5.453   3.326   4.366 -1.3974  0.5235 -1.9320
  587TIP3    H223177   5.561   3.236   4.310 -0.6373 -0.3778  0.9170
  588TIP3   OH223178   4.497   6.652  17.112  0.1670  0.0470 -0.2054
  588TIP3    H123179   4.503   6.736  17.067  0.3758 -0.4353 -1.0885
  588TIP3    H223180   4.565   6.598  17.072 -0.7608 -0.9347 -0.5021
  589TIP3   OH223181   4.996   1.018  13.423 -0.1801  0.4106  0.0405
  589TIP3    H123182   5.041   0.946  13.467  2.3104  1.9217  0.0371
  589TIP3    H223183   4.955   0.978  13.346  0.6299 -1.1118  0.3907
  590TIP3   OH223184   3.205   1.292   6.577  1.0819 -0.0089  0.2144
  590TIP3    H123185   3.202   1.232   6.651  0.1491 -0.9691 -0.5844
  590TIP3    H223186   3.130   1.266   6.522  4.0091 -1.8944 -3.0795
  591TIP3   OH223187   2.907   5.647  14.694 -0.3047 -0.8549  0.5612
  591TIP3    H123188   2.822   5.615  14.664 -1.2230  1.4511  0.6199
  591TIP3    H223189   2.941   5.698  14.620  0.4370 -0.6765  1.0225
  592TIP3   OH223190   0.453   4.029  11.166 -0.1228 -0.1764 -0.2032
  592TIP3    H123191   0.378   3.971  11.182 -0.4773  0.0963 -0.8855
  592TIP3    H223192   0.521   3.971  11.131 -0.0571 -0.3986  0.2846
  593TIP3   OH223193   5.651   3.844  15.249 -0.0305  0.0469 -0.8245
  593TIP3    H123194   5.571   3.863  15.299  1.0694  1.0749  0.5949
  593TIP3    H223195   5.637   3.887  15.165  0.1450  2.6193  0.4052
  594TIP3   OH223196   3.546   0.380  13.354  0.3592 -0.3234  0.0995
  594TIP3    H123197   3.518   0.296  13.389  1.9012 -0.4479  1.0904
  594TIP3    H223198   3.465   0.421  13.322 -0.8537 -0.9312  2.2785
  595TIP3   OH223199   3.247   1.935  11.065 -0.5227 -0.1375 -0.2218
  595TIP3    H123200   3.235   2.019  11.109 -1.2186 -0.3415 -0.0198
  595TIP3    H223201   3.207   1.946  10.979  0.7665  0.2346 -0.7894
  596TIP3   OH223202   4.001   3.402   4.471 -0.0758  0.5391 -0.1479
  596TIP3    H123203   3.930   3.408   4.407 -0.3454  0.1194  0.1053
  596TIP3    H223204   3.972   3.456   4.544 -0.9320 -1.0002  0.6843
  597TIP3   OH223205   3.649   2.634   2.786  0.4704  0.3266  0.0536
  597TIP3    H123206   3.737   2.669   2.770  1.1618 -1.8586 -1.0535
  597TIP3    H223207   3.626   2.589   2.705 -0.7670 -1.0190  1.1322
  598TIP3   OH223208   5.920   1.424   3.686 -0.1720  0.1122  0.0381
  598TIP3    H123209   5.971   1.489   3.734 -1.7654  0.7592  0.8608
  598TIP3    H223210   5.873   1.375   3.753 -0.4773 -0.6326 -0.7025
  599TIP3   OH223211   0.271   4.822   4.761 -0.1428 -0.0917  0.0712
  599TIP3    H123212   0.312   4.847   4.679 -1.6344  1.1033 -0.3373
  599TIP3    H223213   0.191   4.776   4.735  0.1435 -1.0528  0.8502
  600TIP3   OH223214   1.932   2.397  16.574  0.0166 -0.2717  0.7209
  600TIP3    H123215   1.992   2.326  16.597  1.7264  0.6269 -0.8809
  600TIP3    H223216   1.984   2.457  16.520 -2.5947 -0.0199 -1.6596
  601TIP3   OH223217   5.581   2.500   2.613  0.0550  0.4604  0.3386
  601TIP3    H123218   5.553   2.481   2.702 -0.8714  2.6744  0.5654
  601TIP3    H223219   5.548   2.426   2.561 -1.4262  0.2979  1.4707
  602TIP3   OH223220   1.562   0.391   5.317 -0.2507  0.0672 -0.1260
  602TIP3    H123221   1.616   0.386   5.396 -0.7758  2.2580  0.4297
  602TIP3    H223222   1.477   0.356   5.343 -0.3457  0.5523  0.2271
  603TIP3   OH223223   1.924   5.516  13.213 -0.0007 -0.3014  0.0355
  603TIP3    H123224   1.870   5.594  13.223  0.4736  0.0139  0.1597
  603TIP3    H223225   1.923   5.497  13.119  1.2873  0.8732 -0.2390
  604TIP3   OH223226   1.744   4.352  14.833  0.4836 -0.5432 -0.4017
  604TIP3    H123227   1.673   4.389  14.782  1.4789 -0.6215 -1.8782
  604TIP3    H223228   1.753   4.412  14.908  0.1619  0.5716 -1.2369
  605TIP3   OH223229   3.632   3.303  13.429  0.3764 -0.4218  0.0484
  605TIP3    H123230   3.578   3.236  13.471 -0.9694  0.5015 -0.1614
  605TIP3    H223231   3.603   3.385  13.470  0.8633  0.1966 -0.8491
  606TIP3   OH223232   1.886   2.846   5.617 -0.5419  0.5466  0.1302
  606TIP3    H123233   1.889   2.766   5.670 -0.3539  0.6183  0.2284
  606TIP3    H223234   1.870   2.815   5.528  3.8158  0.0296 -0.6112
  607TIP3   OH223235   1.308   4.984   0.091 -0.2947 -0.2359 -0.2411
  607TIP3    H123236   1.382   4.935   0.125 -0.8398 -2.2280 -1.8410
  607TIP3    H223237   1.347   5.057   0.042  0.5114  0.9539  2.0658
  608TIP3   OH223238   6.626   5.644  15.876 -0.6002 -0.5280  0.2306
  608TIP3    H123239   6.588   5.556  15.874 -2.5208  0.2863 -0.1689
  608TIP3    H223240   6.599   5.683  15.793  2.7561 -0.5656 -0.9266
  609TIP3   OH223241   3.242   5.305   2.869 -0.0655 -0.4790  0.1849
  609TIP3    H123242   3.214   5.264   2.787 -2.9536 -0.2368  0.9645
  609TIP3    H223243   3.218   5.397   2.859  0.7604 -0.1988  0.7874
  610TIP3   OH223244   1.523   6.383  11.595 -0.0671  0.5204  0.2982
  610TIP3    H123245   1.439   6.421  11.618 -0.1723  1.0731 -0.9350
  610TIP3    H223246   1.550   6.335  11.673 -1.1912  0.9130  0.9433
  611TIP3   OH223247   3.328   0.460  14.089 -0.4234  0.1632  0.3187
  611TIP3    H123248   3.337   0.532  14.028 -0.3666 -0.1149 -0.0034
  611TIP3    H223249   3.399   0.473  14.153  0.8650 -0.7263 -0.8885
  612TIP3   OH223250   4.848   0.646  14.111  0.1690  0.3399 -0.5977
  612TIP3    H123251   4.843   0.551  14.102  1.4188  0.0494  1.5547
  612TIP3    H223252   4.914   0.661  14.178 -2.8915  2.5895  2.0700
  613TIP3   OH223253   2.698   4.396  13.095  0.4039  0.0830  0.0258
  613TIP3    H123254   2.688   4.483  13.059  0.0381 -0.2094 -0.5809
  613TIP3    H223255   2.755   4.350  13.034 -0.6948 -0.5941 -0.5083
  614TIP3   OH223256   4.575   3.303  16.196  0.4332  0.4168  0.1800
  614TIP3    H123257   4.494   3.258  16.220  0.9313 -0.6059 -0.0239
  614TIP3    H223258   4.564   3.324  16.103  0.3238  0.4433  0.1988
  615TIP3   OH223259   2.729   5.700   2.177 -0.5291  0.8797 -0.2183
  615TIP3    H123260   2.726   5.689   2.082 -1.1899  1.6044 -0.2904
  615TIP3    H223261   2.815   5.669   2.202 -0.3818  0.6061 -1.0530
  616TIP3   OH223262   5.086   5.034  14.506 -0.5859  0.3912 -0.1143
  616TIP3    H123263   5.000   5.016  14.544 -0.7353  1.9135  0.2892
  616TIP3    H223264   5.067   5.087  14.428 -0.0997 -0.4365 -0.8047
  617TIP3   OH223265   5.794   6.330  14.296  0.2006 -0.0693 -0.1375
  617TIP3    H123266   5.826   6.399  14.354 -0.5556  0.1522  0.0239
  617TIP3    H223267   5.777   6.375  14.213 -0.1567 -0.0885 -0.0757
  618TIP3   OH223268   2.650   4.833   1.537 -0.0664  0.5883  0.1648
  618TIP3    H123269   2.583   4.766   1.552 -0.6241  1.3572  1.2492
  618TIP3    H223270   2.730   4.796   1.575 -0.1587  0.1590 -0.0581
  619TIP3   OH223271   5.042   1.926   1.853  0.5107  0.6444 -0.3044
  619TIP3    H123272   4.950   1.906   1.870  0.7851  0.3877  0.9624
  619TIP3    H223273   5.088   1.893   1.930  1.5775  1.4757 -0.5677
  620TIP3   OH223274   2.318   0.701  12.599  0.2646  0.6614  0.1049
  620TIP3    H123275   2.297   0.662  12.514 -0.7922  0.1088  0.6138
  620TIP3    H223276   2.252   0.769  12.611 -2.6630 -2.4509  2.6519
  621TIP3   OH223277   3.856   2.893  11.491 -0.2981 -0.1244 -0.2129
  621TIP3    H123278   3.763   2.911  11.505  0.0079  0.4027  1.2196
  621TIP3    H223279   3.901   2.973  11.519  0.7232 -1.1731  1.2512
  622TIP3   OH223280   5.587   5.633   0.889 -0.1037 -0.2731  0.4162
  622TIP3    H123281   5.591   5.674   0.975  4.1568 -0.3598  0.3935
  622TIP3    H223282   5.580   5.539   0.907  1.0288 -0.3079  0.6915
  623TIP3   OH223283   5.217   5.961   2.294  0.1834  0.3055  0.2920
  623TIP3    H123284   5.133   5.981   2.254  0.7736  2.0116 -0.1300
  623TIP3    H223285   5.251   6.046   2.322  2.8319 -0.0418 -1.6600
  624TIP3   OH223286   5.127   6.513   0.302  0.4996  0.0922  0.9480
  624TIP3    H123287   5.117   6.584   0.365 -1.8230  1.8312 -1.2621
  624TIP3    H223288   5.211   6.531   0.259  0.6199  0.6671  1.4133
  625TIP3   OH223289   2.900   1.720  11.359 -0.9283 -0.3423  0.2609
  625TIP3    H123290   2.871   1.757  11.442  0.7487  3.1478 -0.5964
  625TIP3    H223291   2.882   1.789  11.295  0.1946 -1.9389 -1.8298
  626TIP3   OH223292   2.376   2.288  11.630  0.0185  0.1415  0.2869
  626TIP3    H123293   2.388   2.194  11.638  2.4680  0.4601  0.5161
  626TIP3    H223294   2.390   2.307  11.537  1.5078  0.5307  0.5794
  627TIP3   OH223295   5.808   1.586  13.213 -0.0049  0.1041  0.4740
  627TIP3    H123296   5.779   1.551  13.297  0.3312  0.4756  0.7465
  627TIP3    H223297   5.784   1.678  13.216 -0.3707  0.0257 -0.0091
  628TIP3   OH223298   3.464   1.112  15.396  0.2259  0.2653 -0.1748
  628TIP3    H123299   3.414   1.038  15.429  1.2582  0.6002  2.2058
  628TIP3    H223300   3.415   1.189  15.426  1.8151  0.5876  1.7083
  629TIP3   OH223301   3.926   3.671  13.139  0.0694  0.2898 -0.2054
  629TIP3    H123302   3.976   3.711  13.211  0.4532  1.4597 -1.1133
  629TIP3    H223303   3.961   3.582  13.133  0.7008  0.4873  0.4375
  630TIP3   OH223304   3.977   5.275  16.517 -0.0290  0.0812  0.1713
  630TIP3    H123305   4.017   5.220  16.450 -0.7568 -0.5757  0.2563
  630TIP3    H223306   3.912   5.327  16.470 -0.7860 -0.6327  0.4065
  631TIP3   OH223307   3.285   3.701  13.440 -0.7812  0.8911  0.0749
  631TIP3    H123308   3.290   3.606  13.424 -1.2299  1.3597 -3.1613
  631TIP3    H223309   3.201   3.713  13.484 -0.8642 -0.1898  0.2370
  632TIP3   OH223310   1.781   4.835   5.315  0.2788  0.1172 -0.1483
  632TIP3    H123311   1.766   4.776   5.390 -0.6363 -0.7053 -0.9773
  632TIP3    H223312   1.713   4.901   5.323 -0.3574 -0.4642 -0.7462
  633TIP3   OH223313   3.010   1.680   1.034  0.3767  0.4336 -0.1596
  633TIP3    H123314   3.089   1.654   0.987  0.9829 -1.3330  1.7676
  633TIP3    H223315   2.941   1.625   0.997  0.3029  1.0233 -0.9072
  634TIP3   OH223316   2.952   4.804   5.681  0.2972 -0.4266 -0.6232
  634TIP3    H123317   2.934   4.714   5.652 -0.2132 -0.6960  0.5050
  634TIP3    H223318   2.881   4.856   5.642  0.6243 -0.4907 -1.3243
  635TIP3   OH223319   0.782   0.003  14.260 -0.4868 -0.2297  0.1415
  635TIP3    H123320   0.781   0.011  14.164 -0.3944 -1.1277  0.0603
  635TIP3    H223321   0.873   0.020  14.285 -0.4728 -0.1675  0.0455
  636TIP3   OH223322   2.939   5.984  15.996 -0.2456 -0.0056  0.0109
  636TIP3    H123323   2.976   6.007  16.081  0.4829  0.2123 -0.3582
  636TIP3    H223324   2.902   6.065  15.962  1.1327  0.3542 -0.6999
  637TIP3   OH223325   3.667   5.495   0.934  0.4650  0.3723  0.1060
  637TIP3    H123326   3.744   5.445   0.905  0.0709 -0.9098  1.2351
  637TIP3    H223327   3.609   5.430   0.973 -0.1751  1.6837  1.3918
  638TIP3   OH223328   6.320   3.660   4.699  0.4445 -0.3556 -0.3231
  638TIP3    H123329   6.410   3.662   4.731 -0.4154  0.2341  2.1718
  638TIP3    H223330   6.304   3.747   4.664  0.6843 -0.3152 -0.3269
  639TIP3   OH223331   3.949   5.962  16.657  0.3567  0.7868 -0.3754
  639TIP3    H123332   3.898   6.042  16.644 -1.1555 -0.4385 -2.2281
  639TIP3    H223333   3.929   5.935  16.747  0.1541  1.9710 -0.0530
  640TIP3   OH223334   3.662   0.752  14.522  0.0450 -0.2825 -0.2596
  640TIP3    H123335   3.698   0.741  14.434 -1.0365  0.5969 -0.8170
  640TIP3    H223336   3.589   0.812  14.511  0.1218  0.1209  1.3038
  641TIP3   OH223337   0.575   2.247   4.338 -0.0458 -0.1275 -0.4646
  641TIP3    H123338   0.583   2.167   4.391 -3.4179  1.2543  2.3208
  641TIP3    H223339   0.610   2.316   4.394 -1.2860  0.9926 -1.0655
  642TIP3   OH223340   5.541   6.672   2.321 -0.1689 -0.0451  0.3599
  642TIP3    H123341   5.633   6.646   2.327  0.0882  0.3079 -1.6446
  642TIP3    H223342   5.493   6.590   2.313 -0.2090 -0.3252  3.0647
  643TIP3   OH223343   5.529   5.152   4.169 -0.1167  0.2742 -0.1036
  643TIP3    H123344   5.467   5.209   4.216 -0.1090 -0.0663  0.3228
  643TIP3    H223345   5.475   5.080   4.136  0.4729 -1.4739  2.6093
  644TIP3   OH223346   2.610   0.852  12.011  0.1166 -0.2349  0.1125
  644TIP3    H123347   2.620   0.947  12.001  0.5499 -0.2279  0.5786
  644TIP3    H223348   2.539   0.843  12.075 -0.6575 -0.2440 -0.7308
  645TIP3   OH223349   1.830   1.563   5.532 -0.6061 -0.0042 -0.2234
  645TIP3    H123350   1.787   1.487   5.571 -0.0924 -0.5391 -0.6981
  645TIP3    H223351   1.784   1.638   5.569 -2.7725 -0.5852 -1.6378
  646TIP3   OH223352   5.336   4.810   2.457  0.4065  0.1455 -0.4563
  646TIP3    H123353   5.358   4.803   2.364 -0.2520  0.1624 -0.6099
  646TIP3    H223354   5.246   4.841   2.459  0.3323 -0.1043  0.1904
  647TIP3   OH223355   2.844   6.308  10.542  0.6089  0.3065 -0.1013
  647TIP3    H123356   2.882   6.221  10.547 -0.4995 -0.1544  0.4984
  647TIP3    H223357   2.750   6.293  10.529  0.6371  1.4150 -1.7048
  648TIP3   OH223358   4.208   0.407   1.646  0.1103  0.1694  0.3375
  648TIP3    H123359   4.197   0.312   1.654 -0.6022  0.1898 -0.3494
  648TIP3    H223360   4.119   0.442   1.652  0.4734  0.8874  1.6939
  649TIP3   OH223361   1.530   4.183  16.540 -0.1990  0.0750  0.3752
  649TIP3    H123362   1.515   4.216  16.629 -0.6491  0.5126  0.1345
  649TIP3    H223363   1.569   4.256  16.493  1.1514 -0.5251  0.5248
  650TIP3   OH223364   3.453   1.073   5.425  0.0332  0.1245  0.1044
  650TIP3    H123365   3.460   1.123   5.507  2.2214  1.6156 -0.9463
  650TIP3    H223366   3.364   1.037   5.427 -0.6525  1.7921  2.2028
  651TIP3   OH223367   3.399   3.843  11.149 -0.1614  0.1718 -0.1026
  651TIP3    H123368   3.389   3.764  11.201 -1.6722  0.1428 -0.4097
  651TIP3    H223369   3.402   3.914  11.214 -0.2387 -0.0180  0.1102
  652TIP3   OH223370   5.838   5.703   1.149 -0.6425 -0.3795  0.7576
  652TIP3    H123371   5.917   5.757   1.148 -0.8693 -0.0671 -0.1590
  652TIP3    H223372   5.772   5.754   1.103 -1.4084 -0.6140  1.5787
  653TIP3   OH223373   3.674   6.645   1.950  0.3104  0.0156  0.3317
  653TIP3    H123374   3.669   6.612   1.861  2.3139 -0.9003  0.5153
  653TIP3    H223375   3.670   6.740   1.941  3.9981  0.1455 -1.1247
  654TIP3   OH223376   1.076   1.563  16.328  0.0538 -0.0792  0.0796
  654TIP3    H123377   1.034   1.477  16.334 -0.3600  0.0473 -0.8313
  654TIP3    H223378   1.154   1.548  16.274 -0.0644  0.1281 -0.1505
  655TIP3   OH223379   1.728   2.831  13.722  0.0230 -0.2887 -0.2248
  655TIP3    H123380   1.795   2.839  13.791 -1.2627 -1.1914  1.1587
  655TIP3    H223381   1.770   2.776  13.655  1.2707  0.5524 -0.1576
  656TIP3   OH223382   1.371   4.554   6.406  0.0873 -0.0865 -0.1234
  656TIP3    H123383   1.399   4.582   6.493 -1.7950  0.0597  0.4402
  656TIP3    H223384   1.326   4.630   6.370  0.5934 -0.2498 -1.1188
  657TIP3   OH223385   4.675   1.074   3.747 -0.2027  0.1068 -0.8084
  657TIP3    H123386   4.709   0.984   3.743 -0.3302  0.0148  0.1997
  657TIP3    H223387   4.580   1.064   3.750 -0.2504  0.3059 -1.6526
  658TIP3   OH223388   4.178   0.196   3.903  0.1122  0.0020 -0.8065
  658TIP3    H123389   4.173   0.134   3.976 -0.4116  1.4238  0.4155
  658TIP3    H223390   4.189   0.282   3.946 -2.6419  1.1549 -2.2653
  659TIP3   OH223391   3.299   2.213  15.931  0.2720 -0.3444  0.6853
  659TIP3    H123392   3.391   2.206  15.957  0.0862 -0.8908  1.1947
  659TIP3    H223393   3.252   2.227  16.013  0.0382  1.2748  0.2941
  660TIP3   OH223394   4.104   1.944   0.380 -0.5251  0.0837 -0.0365
  660TIP3    H123395   4.122   2.016   0.440 -1.1872  0.6213 -0.4869
  660TIP3    H223396   4.114   1.982   0.292  1.5700 -0.9643 -0.2966
  661TIP3   OH223397   6.210   2.210  12.456  0.1111  0.0057 -0.1220
  661TIP3    H123398   6.282   2.148  12.469 -0.3580 -0.4345  0.4147
  661TIP3    H223399   6.248   2.281  12.405  0.7754 -0.5083 -0.3467
  662TIP3   OH223400   3.580   4.576  15.007  0.1379 -0.2512 -0.0769
  662TIP3    H123401   3.577   4.652  15.065  0.5001 -0.7664  0.6252
  662TIP3    H223402   3.492   4.569  14.971  0.0423  0.3626  0.0355
  663TIP3   OH223403   3.706   5.171  14.170 -0.0793  0.2887 -0.4313
  663TIP3    H123404   3.650   5.203  14.240  2.1127 -1.4318  2.2190
  663TIP3    H223405   3.652   5.108  14.122 -1.5813  1.4519 -0.2956
  664TIP3   OH223406   1.639   2.170  12.332 -0.1541  0.3342  0.4500
  664TIP3    H123407   1.658   2.103  12.266 -0.2117  2.0286 -1.2935
  664TIP3    H223408   1.712   2.231  12.326  0.6739 -0.3260  3.0929
  665TIP3   OH223409   6.064   2.271   2.096 -0.4003  0.7206  0.2401
  665TIP3    H123410   6.137   2.216   2.122 -0.0576  1.1880  0.2694
  665TIP3    H223411   5.997   2.255   2.163  0.6585  2.2786  1.7153
  666TIP3   OH223412   5.550   4.183  14.154  0.7976  0.1349  0.2458
  666TIP3    H123413   5.645   4.185  14.142  0.9190  0.5256  1.2285
  666TIP3    H223414   5.515   4.172  14.066  1.7103  1.7044 -0.3378
  667TIP3   OH223415   0.957   5.877   2.950  0.2860  0.0864 -0.6604
  667TIP3    H123416   0.980   5.929   2.873  1.4671  0.5132 -0.0339
  667TIP3    H223417   1.037   5.828   2.970  0.1396  0.3453  0.5842
  668TIP3   OH223418   1.341   5.291  14.106 -0.5586 -0.2844  0.0902
  668TIP3    H123419   1.360   5.197  14.106 -1.5112 -0.5057 -1.4011
  668TIP3    H223420   1.300   5.308  14.191 -0.0568 -1.1490  0.5086
  669TIP3   OH223421   4.854   3.020  16.131  0.0551  0.5240 -0.8527
  669TIP3    H123422   4.775   3.052  16.089 -0.5340 -0.9275 -0.8705
  669TIP3    H223423   4.892   2.959  16.067  0.2511 -0.1160 -0.1332
  670TIP3   OH223424   2.176   2.247  14.316  0.0506  0.2405 -0.4150
  670TIP3    H123425   2.187   2.342  14.317 -1.6546  0.4641 -1.5987
  670TIP3    H223426   2.265   2.213  14.321  0.7547  1.9127 -1.2694
  671TIP3   OH223427   1.068   3.657  11.970  0.2838  0.2549  0.3949
  671TIP3    H123428   1.076   3.739  12.019 -1.2333 -0.4304  1.8747
  671TIP3    H223429   1.080   3.681  11.879  0.0252  2.0937  0.8322
  672TIP3   OH223430   3.776   3.512  12.407  0.0190 -0.0956 -0.1754
  672TIP3    H123431   3.738   3.429  12.376 -1.0414  0.1887  0.3464
  672TIP3    H223432   3.725   3.580  12.362  1.8301  0.2860 -1.7360
  673TIP3   OH223433   5.474   5.441   4.530  0.1702  0.0100 -0.0358
  673TIP3    H123434   5.525   5.364   4.556 -0.6167 -0.0826  1.2746
  673TIP3    H223435   5.417   5.458   4.605  0.9002  2.3672  0.0224
  674TIP3   OH223436   0.966   4.316   1.057 -0.5465  0.2729 -0.4384
  674TIP3    H123437   0.874   4.324   1.031 -1.1648 -0.2845  1.5154
  674TIP3    H223438   0.991   4.227   1.031 -0.7400  0.2127 -0.4169
  675TIP3   OH223439   4.305   3.219   4.994  0.3998  0.4576  0.4408
  675TIP3    H123440   4.293   3.194   4.902 -0.3525  0.2782  0.5869
  675TIP3    H223441   4.257   3.301   5.004 -2.3696 -1.2297  1.4849
  676TIP3   OH223442   6.174   5.712   0.140  0.2200 -0.1918 -0.5120
  676TIP3    H123443   6.184   5.617   0.145  0.1882 -0.1796 -0.2297
  676TIP3    H223444   6.256   5.743   0.099  0.5844 -0.2591  0.1679
  677TIP3   OH223445   1.895   1.734  12.027 -0.0212 -0.2556  0.2079
  677TIP3    H123446   1.818   1.679  12.039  0.6574 -1.1208  0.6160
  677TIP3    H223447   1.866   1.804  11.968 -0.8670 -1.0612 -0.3294
  678TIP3   OH223448   1.005   1.215  13.693  0.0876 -0.7627  0.3203
  678TIP3    H123449   0.968   1.298  13.722  1.3075  0.4614 -1.5330
  678TIP3    H223450   0.934   1.171  13.646 -0.5334 -0.7585  1.2386
  679TIP3   OH223451   1.569   0.192  11.489  0.6489 -0.2817 -0.0088
  679TIP3    H123452   1.641   0.140  11.453  0.3396 -0.8998  0.2489
  679TIP3    H223453   1.544   0.252  11.419  0.3220 -1.1927 -0.6809
  680TIP3   OH223454   1.992   1.100  16.317  0.2946  0.0319 -0.2277
  680TIP3    H123455   2.008   1.187  16.279 -0.5274 -0.2844 -1.3052
  680TIP3    H223456   2.054   1.095  16.390  0.2417  1.5923 -0.0543
  681TIP3   OH223457   0.690   3.942  13.555 -0.1375  0.4191 -0.3820
  681TIP3    H123458   0.773   3.989  13.561  0.6139 -0.6441 -2.0263
  681TIP3    H223459   0.714   3.852  13.533 -1.5693 -0.6921  2.3900
  682TIP3   OH223460   1.038   0.926   1.150  0.0758  0.0419 -0.2851
  682TIP3    H123461   1.067   0.925   1.059 -2.3882  2.3366 -1.1724
  682TIP3    H223462   1.027   0.834   1.173  2.1798 -0.6050 -1.8120
  683TIP3   OH223463   1.921   5.852  17.197 -0.3846  0.1279 -0.4294
  683TIP3    H123464   1.990   5.835  17.132  0.2407  0.3907  0.1548
  683TIP3    H223465   1.876   5.768  17.207 -0.2500 -0.0042 -0.9362
  684TIP3   OH223466   2.338   6.704  12.448 -0.5410 -0.4652  0.5292
  684TIP3    H123467   2.402   6.659  12.392 -1.5864 -0.1798 -0.9195
  684TIP3    H223468   2.368   6.795  12.449  0.4981 -0.8063  1.9189
  685TIP3   OH223469   3.669   1.703  13.458  0.1545 -0.2693 -0.3617
  685TIP3    H123470   3.689   1.728  13.548 -1.2590 -0.3284 -0.0322
  685TIP3    H223471   3.589   1.652  13.463  0.3830 -0.7913 -1.5934
  686TIP3   OH223472   2.701   6.400   2.071 -0.1382 -0.1131  0.3632
  686TIP3    H123473   2.769   6.383   2.137 -1.3685 -0.8431  1.4601
  686TIP3    H223474   2.743   6.459   2.008  2.0905 -1.8955  0.0919
  687TIP3   OH223475   5.457   2.101   0.567  0.5515 -0.7212 -0.2384
  687TIP3    H123476   5.433   2.118   0.476 -3.4579 -1.2933  0.6052
  687TIP3    H223477   5.377   2.065   0.606  1.5065  1.5087  4.0473
  688TIP3   OH223478   3.075   4.331   4.095 -0.1590 -0.2512  0.0312
  688TIP3    H123479   3.126   4.277   4.155 -0.0445 -0.9971 -0.7300
  688TIP3    H223480   2.984   4.319   4.123  0.0188  0.6569  1.0500
  689TIP3   OH223481   5.514   4.274   5.058  0.2649 -0.3988  0.0690
  689TIP3    H123482   5.581   4.339   5.081  0.1052 -0.3013  0.2637
  689TIP3    H223483   5.555   4.190   5.075 -0.7992 -0.3177  3.4814
  690TIP3   OH223484   6.651   5.222  15.957 -0.4102  0.3607 -0.3147
  690TIP3    H123485   6.714   5.212  15.886 -1.9855 -1.0625 -1.5468
  690TIP3    H223486   6.570   5.246  15.914 -1.8640 -2.3687  0.7908
  691TIP3   OH223487   5.516   4.797   5.394  0.0243 -0.0583 -0.5112
  691TIP3    H123488   5.558   4.786   5.479  1.0482  2.0651 -0.7177
  691TIP3    H223489   5.426   4.821   5.414 -0.1000 -0.8783 -0.0563
  692TIP3   OH223490   6.264   2.945   5.696 -0.4550  0.0437  0.3100
  692TIP3    H123491   6.336   2.912   5.642  0.1568 -0.5509  1.4901
  692TIP3    H223492   6.306   2.988   5.770 -1.2854  1.4483  0.0090
  693TIP3   OH223493   4.689   5.037  15.689  0.0788  0.2595  0.1813
  693TIP3    H123494   4.728   4.954  15.663  0.4596  0.9251 -1.4459
  693TIP3    H223495   4.596   5.027  15.669 -0.0914 -0.2533  1.2337
  694TIP3   OH223496   6.136   4.584   3.241  0.1549  0.4081  0.1688
  694TIP3    H123497   6.202   4.649   3.266 -0.2715  1.2226 -0.7640
  694TIP3    H223498   6.141   4.517   3.308 -2.1488  3.3477  3.4419
  695TIP3   OH223499   0.348   0.095   2.700 -0.2277 -0.3886 -0.0645
  695TIP3    H123500   0.352  -0.001   2.693  0.0902 -0.4035  0.2964
  695TIP3    H223501   0.439   0.123   2.691 -0.2480 -0.1638  0.4443
  696TIP3   OH223502   5.399   3.967   5.720 -0.3484 -0.3592 -0.2515
  696TIP3    H123503   5.454   3.998   5.648  3.1358 -0.6119  2.1660
  696TIP3    H223504   5.456   3.910   5.771 -2.8219 -0.5034  2.4930
  697TIP3   OH223505   2.626   3.850  11.809 -0.0630  0.1339  0.0207
  697TIP3    H123506   2.567   3.796  11.756  0.5468  0.0926 -0.6265
  697TIP3    H223507   2.648   3.795  11.884 -1.1509  0.2949  0.4660
  698TIP3   OH223508   5.349   5.647  15.771 -0.3385  0.5282  0.0358
  698TIP3    H123509   5.430   5.598  15.785 -1.5930 -1.2404  1.3769
  698TIP3    H223510   5.297   5.630  15.850 -1.9654  1.7352 -0.7496
  699TIP3   OH223511   6.209   1.004  11.948  0.0166 -0.1149 -0.5947
  699TIP3    H123512   6.137   1.022  12.009  1.2317  0.5116  0.6902
  699TIP3    H223513   6.242   0.918  11.976 -0.5636 -0.6391 -1.5136
  700TIP3   OH223514   2.289   3.796  14.094  0.0952 -0.1967 -0.4068
  700TIP3    H123515   2.336   3.722  14.055 -1.0587 -0.2519 -1.7534
  700TIP3    H223516   2.223   3.755  14.150  1.1835 -0.1337  0.9232
  701TIP3   OH223517   1.400   1.246  13.267 -0.2706 -0.3664 -0.0205
  701TIP3    H123518   1.315   1.219  13.233 -0.7864  1.1829  0.0054
  701TIP3    H223519   1.463   1.208  13.207 -1.0328 -0.6140 -0.6777
  702TIP3   OH223520   4.308   1.632   6.707 -0.1324  0.0518 -0.1442
  702TIP3    H123521   4.220   1.645   6.670  0.2482  0.6501 -0.8347
  702TIP3    H223522   4.366   1.633   6.631  0.2088 -3.0739  0.0047
  703TIP3   OH223523   4.406   3.229   2.119 -0.2872 -0.0725  0.1969
  703TIP3    H123524   4.411   3.176   2.199  0.6511  0.0840  0.2396
  703TIP3    H223525   4.312   3.235   2.101 -0.4714 -0.6424  0.9322
  704TIP3   OH223526   3.433   3.294  15.499 -0.5466 -0.0710 -0.3415
  704TIP3    H123527   3.488   3.216  15.508  1.7259  1.4672 -0.4896
  704TIP3    H223528   3.405   3.294  15.408 -0.8740 -0.9138 -0.2432
  705TIP3   OH223529   4.228   6.034  12.294 -0.6710 -0.3599 -0.0663
  705TIP3    H123530   4.235   6.048  12.199  0.3001  0.5073  0.1255
  705TIP3    H223531   4.159   6.095  12.321  0.0826  0.4823 -0.0015
  706TIP3   OH223532   4.229   4.835  15.457 -0.4466  0.0372 -0.0054
  706TIP3    H123533   4.191   4.878  15.534 -1.1163 -0.8852  0.1968
  706TIP3    H223534   4.177   4.755  15.447  1.2409 -1.1100  0.0938
  707TIP3   OH223535   4.795   4.203   2.560 -0.3475 -0.1009  0.1214
  707TIP3    H123536   4.720   4.145   2.572  0.0730 -0.1811  2.5911
  707TIP3    H223537   4.758   4.283   2.524 -1.3212 -0.8481 -0.5674
  708TIP3   OH223538   2.563   3.889  14.960  0.3891  0.4655  0.1003
  708TIP3    H123539   2.494   3.849  14.907 -1.2000  0.5071  2.0607
  708TIP3    H223540   2.567   3.835  15.039  0.2186  2.4356  1.5105
  709TIP3   OH223541   5.307   2.481   3.222 -0.2435  0.4916 -0.4048
  709TIP3    H123542   5.315   2.390   3.196  2.2820  1.0953 -1.9267
  709TIP3    H223543   5.284   2.478   3.315 -1.0035 -1.6773 -0.6495
  710TIP3   OH223544   3.711   2.078   3.218 -0.1507 -0.4068  0.4064
  710TIP3    H123545   3.704   1.984   3.200  0.8342 -0.1480 -1.4439
  710TIP3    H223546   3.787   2.085   3.276 -0.0249 -0.7267  0.2847
  711TIP3   OH223547   4.631   4.856   5.113 -0.2660  0.4521  0.4301
  711TIP3    H123548   4.721   4.874   5.083 -0.9109 -0.1945 -2.0509
  711TIP3    H223549   4.638   4.846   5.208  2.0777  1.6647  0.4213
  712TIP3   OH223550   5.831   2.804   1.879  0.0672  0.3059 -0.0012
  712TIP3    H123551   5.920   2.801   1.912 -0.4087 -0.1589  1.2870
  712TIP3    H223552   5.807   2.713   1.862 -0.7315  0.2437  1.3114
  713TIP3   OH223553   1.746   4.344   5.755  0.3323 -0.2913 -0.6548
  713TIP3    H123554   1.835   4.375   5.772  0.4353 -1.4089  0.8776
  713TIP3    H223555   1.691   4.420   5.773  0.8272 -0.1353  0.2446
  714TIP3   OH223556   2.870   4.075   0.733 -0.1763 -0.4306  0.1144
  714TIP3    H123557   2.792   4.129   0.737 -0.0046 -0.1965  0.3331
  714TIP3    H223558   2.935   4.122   0.785 -0.0702 -0.9223  0.4284
  715TIP3   OH223559   0.397   5.135  13.633  0.6135  0.5538  0.3558
  715TIP3    H123560   0.368   5.044  13.638  1.6715  0.2471  1.2326
  715TIP3    H223561   0.486   5.129  13.597  0.5253  1.2768  0.0068
  716TIP3   OH223562   1.021   4.428  16.814 -0.0217  1.1675  0.6957
  716TIP3    H123563   0.947   4.377  16.780  0.0279  0.3266  1.7986
  716TIP3    H223564   1.059   4.471  16.737  0.5567 -1.2892 -0.4495
  717TIP3   OH223565   3.155   4.398  14.258 -0.1365  0.1729 -0.4801
  717TIP3    H123566   3.082   4.346  14.223 -0.1837  0.4188 -0.7561
  717TIP3    H223567   3.113   4.472  14.301 -0.0753 -0.1082  0.0671
  718TIP3   OH223568   0.285   2.320   5.420 -0.2332  0.0665  0.3064
  718TIP3    H123569   0.313   2.231   5.398 -1.0625 -0.3840  1.0343
  718TIP3    H223570   0.274   2.364   5.336  0.9406 -0.2719 -0.0380
  719TIP3   OH223571   5.807   0.468   5.218  1.1542  0.5750 -0.7473
  719TIP3    H123572   5.756   0.537   5.260  0.3854  0.0549 -0.8292
  719TIP3    H223573   5.813   0.399   5.283 -0.8604 -0.6367 -1.8042
  720TIP3   OH223574   0.879   0.815   6.000 -0.2712  0.2527  0.3916
  720TIP3    H123575   0.897   0.902   5.965 -1.4033  0.6352  0.7678
  720TIP3    H223576   0.965   0.781   6.026  0.3403  0.7285 -0.9764
  721TIP3   OH223577   1.789   2.948   0.238  0.0792 -0.1970  0.2793
  721TIP3    H123578   1.826   2.947   0.326 -1.0507  1.0350  0.7747
  721TIP3    H223579   1.793   3.040   0.210 -2.3172 -0.0773  0.2384
  722TIP3   OH223580   0.116   2.868   6.430 -0.2533 -0.6510 -0.4337
  722TIP3    H123581   0.042   2.835   6.482 -0.0862 -0.5712 -0.1501
  722TIP3    H223582   0.184   2.886   6.494 -0.1269 -0.3432 -0.6600
  723TIP3   OH223583   4.379   0.734  14.008 -0.3216  0.3937 -0.5071
  723TIP3    H123584   4.417   0.794  14.073 -0.1702 -0.1986 -0.0478
  723TIP3    H223585   4.411   0.648  14.033  0.6780  0.3018 -2.0590
  724TIP3   OH223586   1.459   0.599  11.919 -0.3032 -0.1495 -0.3689
  724TIP3    H123587   1.416   0.684  11.919  0.8010  0.4278  0.5232
  724TIP3    H223588   1.389   0.536  11.939 -0.5965  0.8588  1.9591
  725TIP3   OH223589   2.370   2.921   2.234  0.0197 -0.3856 -0.3290
  725TIP3    H123590   2.455   2.916   2.190 -0.0714 -1.6324 -0.3789
  725TIP3    H223591   2.362   3.013   2.259  2.4725 -0.6695  1.7849
  726TIP3   OH223592   0.723   2.157  11.927 -0.3209 -0.1624 -0.8857
  726TIP3    H123593   0.725   2.144  11.833 -1.7689  0.8833 -1.0839
  726TIP3    H223594   0.797   2.215  11.945 -1.1687  1.1795 -1.6509
  727TIP3   OH223595   5.684   3.835   5.271  0.1065 -0.1326 -0.1231
  727TIP3    H123596   5.763   3.833   5.324  0.4855 -1.3276 -0.7110
  727TIP3    H223597   5.692   3.758   5.214 -1.3496 -0.1149 -0.3612
  728TIP3   OH223598   2.113   5.308  16.908  0.1259 -0.2282  0.1076
  728TIP3    H123599   2.074   5.395  16.909  0.7079  0.0316  2.0327
  728TIP3    H223600   2.109   5.281  16.816 -4.5815 -0.2419  0.1920
  729TIP3   OH223601   2.252   2.244  15.243  0.2738  0.3242  0.1274
  729TIP3    H123602   2.236   2.320  15.299 -1.3999  1.0548 -1.2641
  729TIP3    H223603   2.192   2.177  15.275 -2.4754  1.5266 -2.1654
  730TIP3   OH223604   1.250   3.181  12.673  0.0756  0.2060 -0.2932
  730TIP3    H123605   1.273   3.111  12.733 -0.8309  0.4745  0.3854
  730TIP3    H223606   1.172   3.149  12.627 -1.6907  1.6408  1.6149
  731TIP3   OH223607   5.941   0.300   4.607 -0.2666  0.4712 -0.0490
  731TIP3    H123608   5.994   0.255   4.540  0.4179  0.9648  0.1622
  731TIP3    H223609   5.993   0.376   4.631 -0.4498  0.2190  1.1531
  732TIP3   OH223610   5.047   2.722  16.793  0.0737  0.0733  0.0072
  732TIP3    H123611   5.125   2.764  16.755 -0.0642 -0.1597 -0.5322
  732TIP3    H223612   5.080   2.680  16.874  0.4584  0.1887 -0.0851
  733TIP3   OH223613   5.657   5.959   1.510  0.1059  0.4811 -0.3716
  733TIP3    H123614   5.689   5.883   1.558 -0.8476 -0.7113 -1.5820
  733TIP3    H223615   5.676   6.033   1.567  1.1608 -0.6410  0.7760
  734TIP3   OH223616   6.545   2.376   0.906  0.0686 -0.5272  0.1485
  734TIP3    H123617   6.457   2.339   0.905  0.3777 -1.2736  0.0406
  734TIP3    H223618   6.545   2.442   0.837 -0.4460 -0.4282  0.2451
  735TIP3   OH223619   2.194   2.021  11.988 -0.0132  0.1038  0.1305
  735TIP3    H123620   2.152   2.019  11.902  1.5615  2.0074 -0.7223
  735TIP3    H223621   2.155   2.097  12.032 -1.7757 -1.6320  1.6347
  736TIP3   OH223622   4.958   3.897   2.452 -0.7502 -0.0449 -0.6925
  736TIP3    H123623   4.904   3.910   2.530  0.9994  0.8274  0.3825
  736TIP3    H223624   4.982   3.985   2.424  0.8472 -0.4519 -0.6446
  737TIP3   OH223625   1.244   2.053  17.088  0.4136 -0.5136 -0.2329
  737TIP3    H123626   1.312   2.000  17.130 -0.5745  0.1374  2.2768
  737TIP3    H223627   1.188   2.083  17.160 -0.3604  2.0841 -1.8209
  738TIP3   OH223628   3.109   1.353   5.495  0.5575  0.3206  0.4111
  738TIP3    H123629   3.146   1.269   5.523  0.0736  0.5923  1.9299
  738TIP3    H223630   3.016   1.335   5.481  0.4842  0.5752  0.5802
  739TIP3   OH223631   4.223   5.428   0.154  0.5925 -0.1039 -0.6086
  739TIP3    H123632   4.178   5.511   0.169  0.3386 -0.2567 -0.5272
  739TIP3    H223633   4.264   5.407   0.238 -0.7147 -0.8882 -0.1585
  740TIP3   OH223634   0.403   6.278  12.187  0.5978 -0.4639  0.1120
  740TIP3    H123635   0.447   6.291  12.271 -1.3894 -1.0660  1.2835
  740TIP3    H223636   0.449   6.204  12.147 -0.3901 -2.2117  2.0917
  741TIP3   OH223637   0.180   6.526  10.662  0.1823  0.1279  0.9310
  741TIP3    H123638   0.220   6.603  10.703 -0.1520  0.7807  0.0470
  741TIP3    H223639   0.086   6.546  10.661  0.3170  0.8056 -1.5140
  742TIP3   OH223640   3.094   5.510  13.436  0.0293  0.2261  0.3375
  742TIP3    H123641   3.025   5.489  13.373 -1.0349  2.1669  0.8312
  742TIP3    H223642   3.075   5.455  13.512  0.8172 -1.4846 -0.6747
  743TIP3   OH223643   4.693   2.853  16.270 -0.3531  0.3278 -0.2801
  743TIP3    H123644   4.646   2.835  16.188  0.1121 -1.0995 -0.2593
  743TIP3    H223645   4.754   2.923  16.248 -0.3924  0.1125 -1.1067
  744TIP3   OH223646   4.516   1.821  12.891  0.3953  0.2019  0.0778
  744TIP3    H123647   4.493   1.730  12.870 -0.7489  0.6084 -0.4932
  744TIP3    H223648   4.541   1.860  12.807  2.1769  0.0707  0.5271
  745TIP3   OH223649   1.031   0.494  17.181 -0.3850  0.0750 -0.0856
  745TIP3    H123650   1.090   0.549  17.129  0.0300 -0.2861  0.0099
  745TIP3    H223651   1.080   0.414  17.199 -2.3086 -1.9753 -3.4501
  746TIP3   OH223652   4.025   2.258  16.899  0.2271  0.4708 -0.1368
  746TIP3    H123653   4.026   2.277  16.993 -0.5415  1.0230 -0.2347
  746TIP3    H223654   3.974   2.330  16.861 -1.1352 -0.8142 -0.7547
  747TIP3   OH223655   0.293   0.012   3.710  0.1938 -0.6997 -0.3167
  747TIP3    H123656   0.342   0.056   3.641  0.8819 -0.6115  0.2213
  747TIP3    H223657   0.205   0.047   3.703  1.2007  2.3579  1.4373
  748TIP3   OH223658   4.502   5.731   3.322 -0.4904  0.2384  0.1005
  748TIP3    H123659   4.420   5.762   3.360 -0.7294  0.8707 -0.9053
  748TIP3    H223660   4.535   5.806   3.272 -0.0829 -0.5064 -0.7682
  749TIP3   OH223661   2.740   6.049  14.483 -0.1101 -0.1521 -0.3449
  749TIP3    H123662   2.719   6.084  14.396 -0.1036  0.4303 -0.1189
  749TIP3    H223663   2.658   6.013  14.515 -0.8904  2.3584  0.6500
  750TIP3   OH223664   1.405   5.651  13.404  0.1537  0.0060  0.0083
  750TIP3    H123665   1.410   5.560  13.375 -0.5143  0.2451 -0.8796
  750TIP3    H223666   1.380   5.645  13.496 -1.4472 -0.6890 -0.4506
  751TIP3   OH223667   4.568   0.906   6.003  0.3838  0.5625 -0.4850
  751TIP3    H123668   4.588   0.822   5.963  0.9616  0.6886 -0.4618
  751TIP3    H223669   4.498   0.887   6.065  1.9537 -0.3042  1.0763
  752TIP3   OH223670   1.075   2.491   3.544 -0.5834  0.5375  0.0635
  752TIP3    H123671   1.005   2.547   3.508 -0.9013  0.4918  0.5955
  752TIP3    H223672   1.073   2.413   3.490 -1.4030  0.2528  0.4855
  753TIP3   OH223673   1.443   4.430   3.804 -0.5335  0.4016  0.1229
  753TIP3    H123674   1.486   4.496   3.750  1.2523 -0.8318 -0.0000
  753TIP3    H223675   1.406   4.368   3.742 -3.0861  1.7724  0.2091
  754TIP3   OH223676   2.616   1.593  16.906  0.3478  1.2047  0.3971
  754TIP3    H123677   2.597   1.506  16.942 -0.2965  0.5277 -1.5010
  754TIP3    H223678   2.619   1.651  16.982 -1.0638 -0.1717  1.5375
  755TIP3   OH223679   1.627   3.108  16.205  0.1798  0.2105 -0.3467
  755TIP3    H123680   1.576   3.180  16.243  2.6813  0.7673  2.0533
  755TIP3    H223681   1.561   3.042  16.182 -1.7349  1.4328  1.4999
  756TIP3   OH223682   2.290   1.591   4.626 -0.6843 -0.2395  0.2125
  756TIP3    H123683   2.196   1.609   4.622 -0.5275  0.5375 -0.0908
  756TIP3    H223684   2.306   1.569   4.718 -0.7603  2.0028  0.8029
  757TIP3   OH223685   3.211   5.714  11.369 -0.2448 -0.0175 -0.1625
  757TIP3    H123686   3.235   5.628  11.335 -0.0397  0.5458 -1.4576
  757TIP3    H223687   3.164   5.756  11.297 -0.4962  0.8878  0.5254
  758TIP3   OH223688   3.735   5.373   5.957  0.2907 -0.3682  0.4776
  758TIP3    H123689   3.746   5.468   5.961 -1.8206 -0.0443 -0.2544
  758TIP3    H223690   3.821   5.337   5.979  1.3295  1.7202 -0.0397
  759TIP3   OH223691   0.882   1.625   2.802  0.6172  0.3361 -0.1723
  759TIP3    H123692   0.883   1.582   2.887  2.9614  0.8073  0.0600
  759TIP3    H223693   0.797   1.669   2.798  0.0739 -0.5303  1.4857
  760TIP3   OH223694   0.673   5.750  12.231 -0.9392  0.0128 -0.2127
  760TIP3    H123695   0.751   5.805  12.226 -1.3152  0.5425 -0.3380
  760TIP3    H223696   0.652   5.745  12.324 -0.8668  0.0318 -0.1956
  761TIP3   OH223697   2.168   6.588   2.316  0.0258 -0.0291  0.4568
  761TIP3    H123698   2.160   6.519   2.250 -0.9030 -0.2226  0.7676
  761TIP3    H223699   2.106   6.655   2.289  3.3324  2.3022 -1.7708
  762TIP3   OH223700   2.083   0.637  13.652  0.2204  0.1417 -0.1419
  762TIP3    H123701   2.060   0.667  13.564  0.2742 -2.7948 -1.1969
  762TIP3    H223702   2.009   0.665  13.707 -1.4202 -0.9372 -1.7460
  763TIP3   OH223703   5.667   4.121  16.768 -0.5119  0.0390 -0.1838
  763TIP3    H123704   5.623   4.052  16.718 -0.7126  0.2669 -0.3212
  763TIP3    H223705   5.611   4.135  16.844 -0.3328 -0.1333 -0.0198
  764TIP3   OH223706   6.588   3.255  12.125  0.2374  0.1410 -1.1082
  764TIP3    H123707   6.657   3.296  12.072  0.8086  0.8121  0.1294
  764TIP3    H223708   6.619   3.263  12.215 -0.6968 -1.0386 -0.6651
  765TIP3   OH223709   6.147   4.935  12.133 -0.1965 -0.0413  0.2502
  765TIP3    H123710   6.190   5.013  12.166  1.4182 -1.6544  2.0739
  765TIP3    H223711   6.211   4.894  12.076 -0.3684 -0.9563  0.7011
  766TIP3   OH223712   3.390   2.107   4.782 -0.3902  0.0678 -0.1713
  766TIP3    H123713   3.322   2.089   4.847 -1.4745 -0.3304 -1.4156
  766TIP3    H223714   3.430   2.022   4.765  0.8990  0.4097  1.0732
  767TIP3   OH223715   2.624   5.135   0.681 -0.2030  0.5396 -0.1054
  767TIP3    H123716   2.607   5.108   0.772  1.5368 -1.8040 -0.4204
  767TIP3    H223717   2.643   5.054   0.635  2.9329  2.0832 -1.6713
  768TIP3   OH223718   3.280   0.749   1.521  1.0008 -0.1311  0.1956
  768TIP3    H123719   3.276   0.818   1.587 -1.8227  0.6368 -0.7051
  768TIP3    H223720   3.297   0.669   1.571  1.3888  0.7869  1.5679
  769TIP3   OH223721   1.791   4.435   2.974  0.0737 -0.2408  0.0950
  769TIP3    H123722   1.838   4.354   2.995 -0.2327 -0.1729  1.0801
  769TIP3    H223723   1.704   4.422   3.012 -0.2435  0.2098 -0.4812
  770TIP3   OH223724   6.008   1.373  12.969  0.2382  0.3324 -0.1578
  770TIP3    H123725   6.034   1.291  12.927 -1.1012  0.6906 -1.7393
  770TIP3    H223726   5.912   1.370  12.970  0.1654  2.1052 -0.6792
  771TIP3   OH223727   4.598   0.867  15.078 -0.2728  0.5693 -0.0772
  771TIP3    H123728   4.545   0.929  15.028  0.3655  0.7306 -0.5689
  771TIP3    H223729   4.679   0.914  15.097  0.8198 -0.5553 -1.6990
  772TIP3   OH223730   5.375   4.904   3.347 -0.1631  0.4995  0.3109
  772TIP3    H123731   5.329   4.883   3.266  1.3859 -1.2270 -0.1618
  772TIP3    H223732   5.457   4.943   3.318  0.7528 -0.8737  1.0072
  773TIP3   OH223733   1.497   1.470   0.480 -0.0463  0.5598  0.3793
  773TIP3    H123734   1.539   1.523   0.547 -0.0675  0.7654  0.2294
  773TIP3    H223735   1.557   1.397   0.466  0.9268  1.5894 -0.8377
  774TIP3   OH223736   6.608   4.199  15.253  0.3218 -0.5416 -0.3827
  774TIP3    H123737   6.576   4.160  15.172  4.2430 -0.6357 -1.9947
  774TIP3    H223738   6.659   4.129  15.295  0.4217  0.2752  0.8890
  775TIP3   OH223739   4.316   3.623   1.499 -0.0019  0.7474  0.1151
  775TIP3    H123740   4.273   3.703   1.467  0.6406  1.2472  0.4906
  775TIP3    H223741   4.332   3.640   1.592 -0.7468 -0.2176  0.4344
  776TIP3   OH223742   3.132   2.775  17.035  0.0745  0.5218 -0.0708
  776TIP3    H123743   3.156   2.846  16.977  0.9387  1.1284  1.0235
  776TIP3    H223744   3.200   2.774  17.102 -0.3046 -0.8857  0.3103
  777TIP3   OH223745   5.580   3.680  11.808 -0.7238  0.1167  0.3774
  777TIP3    H123746   5.547   3.770  11.810 -2.3434 -0.4700  1.2782
  777TIP3    H223747   5.654   3.680  11.868 -1.0712  0.7269  0.8207
  778TIP3   OH223748   5.152   0.771  12.804 -0.2505  0.0551  0.5466
  778TIP3    H123749   5.237   0.731  12.783 -0.8337 -0.1495 -1.5865
  778TIP3    H223750   5.093   0.696  12.814 -0.2954  0.2168  1.5187
  779TIP3   OH223751   0.674   5.028  11.229  0.0319  0.2234  0.3596
  779TIP3    H123752   0.613   5.070  11.168  0.3398  0.6788  0.3673
  779TIP3    H223753   0.641   5.051  11.315  0.2858  0.5676  0.3634
  780TIP3   OH223754   4.827   3.526   1.320  1.2337 -0.3017 -0.2221
  780TIP3    H123755   4.820   3.560   1.409 -1.1197 -0.7356 -0.2116
  780TIP3    H223756   4.870   3.441   1.330  0.2800 -0.6926  0.5974
  781TIP3   OH223757   4.077   4.607  15.463  0.2931  0.1730  0.6153
  781TIP3    H123758   4.070   4.585  15.370 -0.0496  0.7838  0.4927
  781TIP3    H223759   4.114   4.529  15.503  2.5817  0.7044 -0.3757
  782TIP3   OH223760   1.034   4.919  13.650  0.4182 -0.4840  0.7967
  782TIP3    H123761   1.079   4.854  13.596 -2.1268 -1.1545 -0.6538
  782TIP3    H223762   1.084   4.923  13.731  2.7719 -1.4847 -0.5731
  783TIP3   OH223763   4.337   2.879   3.574 -0.0863 -0.5583  0.3309
  783TIP3    H123764   4.418   2.930   3.568  0.3248 -1.1457  0.7795
  783TIP3    H223765   4.285   2.925   3.640  1.1711 -1.8753  2.3186
  784TIP3   OH223766   0.632   1.408  16.125 -0.2628 -0.4627 -0.3455
  784TIP3    H123767   0.670   1.326  16.092 -0.6767 -0.6295 -0.4139
  784TIP3    H223768   0.539   1.387  16.139  0.0418 -0.6191  1.6139
  785TIP3   OH223769   6.171   4.627  12.499  0.2371  0.3736  1.5077
  785TIP3    H123770   6.079   4.635  12.475  0.9132  0.6412 -1.1458
  785TIP3    H223771   6.171   4.631  12.595 -2.6047 -0.7932  1.6159
  786TIP3   OH223772   4.396   2.231   4.561  0.6512 -0.1941  0.3936
  786TIP3    H123773   4.487   2.257   4.547  0.4008  0.0607 -0.7623
  786TIP3    H223774   4.359   2.301   4.614  0.8900  0.1373  0.1242
  787TIP3   OH223775   5.315   2.365   2.546  0.1906  0.1769 -0.1728
  787TIP3    H123776   5.384   2.312   2.507 -1.5940 -1.5175 -1.1106
  787TIP3    H223777   5.297   2.432   2.481  0.6790  0.3897 -0.0913
  788TIP3   OH223778   0.644   5.385   0.565 -0.1663  0.0057 -0.5486
  788TIP3    H123779   0.717   5.396   0.625  0.6076  1.8311 -1.7729
  788TIP3    H223780   0.567   5.375   0.621  0.7321  0.3038  0.7390
  789TIP3   OH223781   5.273   3.766  14.739  0.4798 -0.1156 -0.0483
  789TIP3    H123782   5.197   3.799  14.693 -1.3547 -0.8749  2.3294
  789TIP3    H223783   5.250   3.676  14.763  3.1336 -1.2452 -1.4571
  790TIP3   OH223784   5.602   1.296  15.530 -0.0099 -0.1985 -0.3956
  790TIP3    H123785   5.610   1.269  15.621 -1.3522  1.4899  0.2352
  790TIP3    H223786   5.669   1.244  15.484  1.3278 -0.3659  1.6761
  791TIP3   OH223787   3.033   0.350  12.746 -0.5989 -0.7126 -0.3610
  791TIP3    H123788   2.964   0.415  12.760  0.3538  0.2746 -0.1370
  791TIP3    H223789   3.094   0.394  12.685  0.8804 -0.7698  1.0500
  792TIP3   OH223790   5.307   5.400   5.816  0.0860 -0.6805  0.2330
  792TIP3    H123791   5.366   5.381   5.890 -0.7879 -0.5277  0.9794
  792TIP3    H223792   5.277   5.314   5.787  0.7146 -0.7632 -0.1865
  793TIP3   OH223793   6.029   4.875   0.776  0.2058  0.1592  0.5350
  793TIP3    H123794   5.936   4.887   0.796 -0.0459 -0.6607 -0.1221
  793TIP3    H223795   6.073   4.944   0.825 -0.8552  1.2342  0.0029
  794TIP3   OH223796   6.182   2.994   0.220  0.1907 -0.3471  0.3756
  794TIP3    H123797   6.236   3.071   0.203  0.1762 -0.3128  0.4873
  794TIP3    H223798   6.124   3.021   0.291  1.2865 -0.9865  1.5394
  795TIP3   OH223799   1.901   1.960   5.342 -0.0778  0.1842 -0.1832
  795TIP3    H123800   1.887   1.871   5.312 -1.8653 -0.2451  1.7965
  795TIP3    H223801   1.827   2.009   5.307 -0.2094  0.4427  0.4491
  796TIP3   OH223802   0.345   5.176  11.333  0.1861 -0.4732  0.4118
  796TIP3    H123803   0.421   5.154  11.387 -0.1028 -1.3050  0.4761
  796TIP3    H223804   0.326   5.268  11.355  2.8571  0.6232 -1.6266
  797TIP3   OH223805   6.443   2.885   2.837  0.5019 -0.6480 -0.2210
  797TIP3    H123806   6.505   2.813   2.850  0.6322 -0.5822 -0.4787
  797TIP3    H223807   6.378   2.873   2.907 -0.1120 -1.6899 -0.9549
  798TIP3   OH223808   2.675   5.544   4.349  0.5348  0.5071 -0.5511
  798TIP3    H123809   2.696   5.578   4.436 -0.8290 -0.0456  0.0091
  798TIP3    H223810   2.721   5.460   4.345 -1.0520 -0.4399  0.4548
  799TIP3   OH223811   0.644   1.190  16.841  0.0132 -0.4514  0.4448
  799TIP3    H123812   0.731   1.175  16.804  1.0249 -1.6661  3.1795
  799TIP3    H223813   0.610   1.103  16.860 -0.5334  0.1126  2.1696
  800TIP3   OH223814   1.121   0.792   0.893 -0.7020 -0.2898  0.4356
  800TIP3    H123815   1.078   0.721   0.940 -2.0449 -0.1184 -0.5133
  800TIP3    H223816   1.121   0.764   0.802  0.0740  0.2861  0.2482
  801TIP3   OH223817   5.871   0.260  14.974  0.5496  0.5712  0.1384
  801TIP3    H123818   5.899   0.175  15.009 -0.6111  1.0932  2.3893
  801TIP3    H223819   5.790   0.241  14.927 -0.7550  0.6944  2.2575
  802TIP3   OH223820   0.104   4.184  14.339  0.3258  0.0471 -0.2820
  802TIP3    H123821   0.096   4.090  14.352 -0.6022  0.0952 -0.5183
  802TIP3    H223822   0.044   4.222  14.403  0.7387  0.4848 -0.1488
  803TIP3   OH223823   2.326   0.842   5.577  0.1162  0.3907  0.1499
  803TIP3    H123824   2.258   0.806   5.520  0.7471 -1.1326  0.3347
  803TIP3    H223825   2.317   0.793   5.659 -2.3386  4.1611  2.2941
  804TIP3   OH223826   2.368   4.372   3.573  0.4182  0.1752  0.0348
  804TIP3    H123827   2.341   4.362   3.665 -0.0594 -2.0760 -0.3095
  804TIP3    H223828   2.346   4.288   3.533  2.2636  0.4996 -1.7312
  805TIP3   OH223829   0.027   3.657   2.169 -0.5458  0.1802 -0.5349
  805TIP3    H123830   0.044   3.745   2.203 -0.7150  0.3144 -0.7944
  805TIP3    H223831   0.114   3.624   2.144 -0.0618 -0.9565  2.4825
  806TIP3   OH223832   3.250   5.547   0.327  0.3778  0.3841  0.0702
  806TIP3    H123833   3.313   5.475   0.338 -0.4369 -0.6399 -1.6639
  806TIP3    H223834   3.186   5.533   0.396 -0.0313 -0.8600 -0.5368
  807TIP3   OH223835   0.536   6.698  17.175 -0.0070  0.2336  0.4795
  807TIP3    H123836   0.480   6.628  17.143 -0.8966  1.0817  0.1440
  807TIP3    H223837   0.612   6.697  17.115  0.3394 -0.9138  0.9436
  808TIP3   OH223838   4.751   5.206  14.209  0.0263 -0.9397 -0.6108
  808TIP3    H123839   4.818   5.222  14.276  1.2080 -1.9959 -1.5086
  808TIP3    H223840   4.698   5.135  14.245 -0.9028  0.1882  0.2916
  809TIP3   OH223841   4.253   0.764  16.514  0.0213  0.0856 -0.4423
  809TIP3    H123842   4.213   0.838  16.559  0.9206 -1.6327  3.3432
  809TIP3    H223843   4.217   0.687  16.557  1.4007 -1.6245 -2.2687
  810TIP3   OH223844   2.343   3.588  10.847 -0.7747  0.1358  0.2791
  810TIP3    H123845   2.334   3.597  10.752  0.8654 -1.4422 -0.0374
  810TIP3    H223846   2.361   3.677  10.877 -3.1131  0.9805 -0.6346
  811TIP3   OH223847   3.548   3.203  14.370  0.4311  0.0601 -0.7458
  811TIP3    H123848   3.476   3.148  14.339  0.0869  1.5170 -2.5713
  811TIP3    H223849   3.508   3.289  14.384  1.6057  0.6267 -0.8497
  812TIP3   OH223850   3.875   2.390   0.751 -0.0250 -0.0978 -0.1067
  812TIP3    H123851   3.909   2.305   0.778 -1.4815 -0.4331  0.7128
  812TIP3    H223852   3.803   2.407   0.812 -0.1045  1.4576 -0.6294
  813TIP3   OH223853   4.656   4.371   0.602 -0.2908  0.2733  0.2009
  813TIP3    H123854   4.742   4.407   0.582 -1.1373  1.6038 -1.1322
  813TIP3    H223855   4.626   4.419   0.679 -0.3020  0.6095 -0.0099
  814TIP3   OH223856   3.023   6.280   1.390  0.1542 -0.3883  0.6665
  814TIP3    H123857   3.093   6.335   1.356 -0.0482 -0.7782 -0.4297
  814TIP3    H223858   3.055   6.190   1.376 -0.6768 -0.5715 -0.1154
  815TIP3   OH223859   1.905   0.631  10.927 -0.4009 -0.1500 -0.2580
  815TIP3    H123860   1.999   0.618  10.939 -0.7004 -1.6651  0.6179
  815TIP3    H223861   1.898   0.695  10.857  1.3033  0.9894  0.5737
  816TIP3   OH223862   1.467   4.659   1.989  0.2344  0.1485 -0.1398
  816TIP3    H123863   1.548   4.657   2.040  1.6294  3.3185 -2.0605
  816TIP3    H223864   1.458   4.571   1.954  1.8540 -0.7304  1.6166
  817TIP3   OH223865   4.505   3.789  11.554 -0.7273 -0.6475 -0.1012
  817TIP3    H123866   4.561   3.815  11.481 -0.1507 -1.4895  0.0417
  817TIP3    H223867   4.466   3.871  11.584  1.7920  0.2130  0.9302
  818TIP3   OH223868   5.191   3.256   3.779  0.1439  0.4307  0.0471
  818TIP3    H123869   5.214   3.222   3.692  2.6092  1.9876  0.0631
  818TIP3    H223870   5.243   3.203   3.840 -0.0589  0.6754  0.4325
  819TIP3   OH223871   2.418   2.573   3.555 -0.2391  0.2782 -0.4477
  819TIP3    H123872   2.426   2.637   3.626  0.5143  3.4198 -3.2488
  819TIP3    H223873   2.502   2.527   3.555 -1.0228 -1.3067  2.0012
  820TIP3   OH223874   0.394   3.758   4.468  0.0188 -0.1392 -0.0332
  820TIP3    H123875   0.408   3.696   4.540 -2.0990  1.0858  1.4815
  820TIP3    H223876   0.465   3.821   4.476  1.0324 -1.2285 -0.3553
  821TIP3   OH223877   4.799   2.146  15.701 -0.5808  0.1646  0.1475
  821TIP3    H123878   4.766   2.225  15.745  0.1180  0.8292 -0.5160
  821TIP3    H223879   4.742   2.136  15.625 -0.1669  0.4815 -0.2032
  822TIP3   OH223880   4.316   4.348  16.695 -0.4474  0.2956  0.0036
  822TIP3    H123881   4.341   4.436  16.724  2.3642  0.0567 -1.4727
  822TIP3    H223882   4.227   4.358  16.662 -1.2293  1.9449  2.5173
  823TIP3   OH223883   0.876   6.480   3.934  0.3665  0.4753  0.1068
  823TIP3    H123884   0.961   6.449   3.902 -0.4423 -1.4824 -0.2360
  823TIP3    H223885   0.844   6.540   3.867  0.2547 -0.9102 -1.0994
  824TIP3   OH223886   4.523   4.097   0.214 -0.2944 -0.0181 -0.1658
  824TIP3    H123887   4.575   4.130   0.287 -0.8447 -2.4821  1.4016
  824TIP3    H223888   4.586   4.080   0.144  0.5823 -0.0253  0.6248
  825TIP3   OH223889   4.411   4.532   1.145  0.1873 -0.5548  0.5858
  825TIP3    H123890   4.462   4.591   1.089  0.7725  0.0496  1.7282
  825TIP3    H223891   4.320   4.547   1.120  0.3478  0.7147  0.7382
  826TIP3   OH223892   5.417   4.690  13.031  0.0706  0.5177  0.5416
  826TIP3    H123893   5.359   4.737  13.092 -0.0998  0.9290  0.0696
  826TIP3    H223894   5.358   4.657  12.963  0.4298  1.2272 -0.1224
  827TIP3   OH223895   3.194   4.048   1.697 -0.1237  0.2886 -0.0756
  827TIP3    H123896   3.156   4.092   1.772  0.0865  0.0886  0.1516
  827TIP3    H223897   3.155   3.960   1.698  0.0821  0.1962 -0.0394
  828TIP3   OH223898   5.084   1.906  12.444  0.1341 -0.4353  0.0495
  828TIP3    H123899   5.167   1.933  12.484 -0.2319  1.3880 -0.3763
  828TIP3    H223900   5.094   1.812  12.428  2.1249 -0.2222 -0.0244
  829TIP3   OH223901   6.192   3.538  15.869 -0.7991  0.5466  0.1521
  829TIP3    H123902   6.160   3.535  15.779 -0.2234 -0.8099 -0.0269
  829TIP3    H223903   6.152   3.461  15.911  0.7283 -0.1235  0.4214
  830TIP3   OH223904   0.388   1.049   4.032 -0.1189  0.2363 -0.0693
  830TIP3    H123905   0.327   0.985   4.070  0.5031  0.7593  1.8896
  830TIP3    H223906   0.375   1.042   3.938  0.0956 -2.9774  0.0764
  831TIP3   OH223907   6.358   2.432   3.250 -0.3157 -0.1819 -0.0542
  831TIP3    H123908   6.450   2.424   3.275  0.0115 -0.1029 -1.1967
  831TIP3    H223909   6.360   2.453   3.157 -1.4226  1.9712  0.3543
  832TIP3   OH223910   0.140   0.905   4.753 -0.2046 -0.1496  0.5957
  832TIP3    H123911   0.054   0.869   4.732  0.1014 -0.3214 -0.4003
  832TIP3    H223912   0.122   0.977   4.813 -0.8950 -1.4145  1.9310
  833TIP3   OH223913   4.276   3.443  12.476 -0.5152 -0.4352  0.1574
  833TIP3    H123914   4.301   3.366  12.424  0.2296  0.0817 -0.2746
  833TIP3    H223915   4.240   3.504  12.412 -0.7784 -0.2875  0.4465
  834TIP3   OH223916   1.824   3.314  12.156  0.6441 -0.1442 -0.5839
  834TIP3    H123917   1.874   3.271  12.225  0.0166  0.2408  0.1317
  834TIP3    H223918   1.754   3.253  12.135  0.9790 -0.3662 -1.0563
  835TIP3   OH223919   6.035   3.944  17.145 -0.6084  0.4513  0.5175
  835TIP3    H123920   6.107   4.005  17.157 -0.1879  0.3278 -1.1675
  835TIP3    H223921   5.980   3.986  17.078  0.5504 -1.7193 -1.8754
  836TIP3   OH223922   2.695   0.954  11.720  0.4905  0.2156 -0.5041
  836TIP3    H123923   2.655   0.881  11.767 -1.9873  0.2756 -2.3972
  836TIP3    H223924   2.648   1.032  11.751  1.0064  0.6394 -0.7693
  837TIP3   OH223925   0.265   2.688  14.335  0.0025  0.5495  0.5405
  837TIP3    H123926   0.285   2.705  14.427 -2.1118  0.6497  1.0017
  837TIP3    H223927   0.189   2.744  14.316 -0.6783 -0.7787 -0.7603
  838TIP3   OH223928   2.850   5.237  12.311 -0.6316 -0.0719  0.3721
  838TIP3    H123929   2.804   5.153  12.323 -0.6053 -0.0477  0.6330
  838TIP3    H223930   2.849   5.277  12.397  1.1668 -0.7106  0.7071
  839TIP3   OH223931   1.487   5.898  11.888  0.6095  0.1861  0.5851
  839TIP3    H123932   1.431   5.831  11.927  0.1600 -0.0034 -0.3687
  839TIP3    H223933   1.558   5.910  11.951 -0.6761  0.6769  1.9672
  840TIP3   OH223934   1.024   4.765   0.965 -0.3963 -0.3343  0.1973
  840TIP3    H123935   1.062   4.790   1.050 -0.6376  0.1811  0.1541
  840TIP3    H223936   1.100   4.750   0.909 -0.2540  0.9928  0.0276
  841TIP3   OH223937   0.107   0.186   6.451 -0.3839  0.1008  0.3546
  841TIP3    H123938   0.140   0.245   6.519  0.3681 -1.3676  1.2941
  841TIP3    H223939   0.028   0.147   6.489  0.4359 -1.2664  0.7139
  842TIP3   OH223940   0.132   6.417  13.073 -0.3073 -0.0386 -0.6698
  842TIP3    H123941   0.135   6.512  13.061 -1.5325  0.5278  2.6649
  842TIP3    H223942   0.048   6.391  13.036 -0.4319  0.3616 -0.6726
  843TIP3   OH223943   1.122   1.864  11.639  0.2829  0.0538 -0.0293
  843TIP3    H123944   1.086   1.815  11.564 -0.9947  2.2536 -0.8841
  843TIP3    H223945   1.217   1.863  11.624  0.1722 -1.0296 -0.7413
  844TIP3   OH223946   6.047   6.730  13.381  0.0059  0.2401  0.6268
  844TIP3    H123947   6.093   6.678  13.314  1.2083  0.0424  1.5970
  844TIP3    H223948   6.116   6.782  13.422 -0.3157 -1.4541  3.3917
  845TIP3   OH223949   1.299   1.360  14.741  0.7244  0.8081 -0.1915
  845TIP3    H123950   1.301   1.266  14.723  1.9933  0.0612  3.4978
  845TIP3    H223951   1.234   1.370  14.810  1.4792  2.4948  0.2990
  846TIP3   OH223952   6.155   4.482  17.184 -0.1461  0.0545  0.3316
  846TIP3    H123953   6.061   4.491  17.200 -0.6007  0.0649 -2.1457
  846TIP3    H223954   6.196   4.504  17.268 -2.3301  0.4985  1.3130
  847TIP3   OH223955   0.880   4.829  15.501  0.0163 -1.0733  0.3556
  847TIP3    H123956   0.804   4.818  15.558  0.5550  2.2077  1.8587
  847TIP3    H223957   0.843   4.844  15.414 -1.1053  0.8616  1.1386
  848TIP3   OH223958   5.261   1.373   5.163 -0.6422 -0.0519  0.3336
  848TIP3    H123959   5.267   1.283   5.196  0.6476  0.3161  1.1231
  848TIP3    H223960   5.349   1.393   5.132 -1.1651  0.5978 -0.7607
  849TIP3   OH223961   4.158   0.858  13.434  0.5636  0.0880 -0.6681
  849TIP3    H123962   4.139   0.840  13.342 -2.8194 -0.4303  0.0712
  849TIP3    H223963   4.097   0.927  13.459  0.6963 -0.5222  1.4648
  850TIP3   OH223964   1.419   0.529   2.014 -0.2329  0.3848  0.0973
  850TIP3    H123965   1.432   0.442   2.053 -2.1479 -1.0838 -2.3424
  850TIP3    H223966   1.428   0.514   1.919 -0.3765  2.9063 -0.3541
  851TIP3   OH223967   0.375   1.261  14.902  0.5206  0.6377  0.1469
  851TIP3    H123968   0.444   1.234  14.963 -0.0601 -1.9225 -0.2454
  851TIP3    H223969   0.304   1.293  14.959  0.5812 -0.2824  0.7599
  852TIP3   OH223970   3.175   1.862   5.998 -0.3346 -0.1563  0.1462
  852TIP3    H123971   3.186   1.769   6.018 -0.4439 -0.5042 -1.3955
  852TIP3    H223972   3.244   1.906   6.048  1.3093 -1.2999 -1.1016
  853TIP3   OH223973   2.034   2.211   4.398 -0.1765  0.3232 -0.1954
  853TIP3    H123974   1.957   2.247   4.355 -1.0878  1.1603  2.0315
  853TIP3    H223975   2.066   2.144   4.338 -0.6819  2.2163 -2.6625
  854TIP3   OH223976   1.650   4.124   4.185 -0.2520  0.0680 -0.0936
  854TIP3    H123977   1.628   4.204   4.136 -1.2482  0.3570  0.8042
  854TIP3    H223978   1.702   4.072   4.124 -1.1152  0.6099 -1.3106
  855TIP3   OH223979   6.575   2.770   5.953 -0.3633  0.5009 -0.1197
  855TIP3    H123980   6.508   2.707   5.981 -0.5625  0.9375  0.3957
  855TIP3    H223981   6.569   2.841   6.017  0.5397  0.5813 -0.1231
  856TIP3   OH223982   4.154   1.520  12.385 -0.2216  0.1698 -0.1498
  856TIP3    H123983   4.222   1.560  12.439 -0.1585 -1.2162  0.8317
  856TIP3    H223984   4.196   1.503  12.301 -0.0880  1.6167 -0.3861
  857TIP3   OH223985   2.604   0.731  15.663  0.0407 -0.3585 -0.4300
  857TIP3    H123986   2.599   0.752  15.570  0.2129  0.0909 -0.3373
  857TIP3    H223987   2.658   0.652  15.667  3.8807  2.1385 -0.3617
  858TIP3   OH223988   5.606   0.645  13.529  0.0217  0.7099 -0.4019
  858TIP3    H123989   5.576   0.566  13.483 -1.9699  0.4146  1.3569
  858TIP3    H223990   5.644   0.613  13.610 -0.0454  1.5216 -0.0457
  859TIP3   OH223991   0.961   2.711  15.139 -0.3477  0.8388  0.4110
  859TIP3    H123992   1.018   2.737  15.211  3.7658 -0.8335 -2.0066
  859TIP3    H223993   0.924   2.627  15.167  2.2435 -0.4528  0.1858
  860TIP3   OH223994   5.509   4.985  16.711 -0.1262  0.1349  0.4073
  860TIP3    H123995   5.431   4.937  16.682  0.6034 -0.0519 -1.3129
  860TIP3    H223996   5.560   4.920  16.759  0.6687 -0.7786 -1.5821
  861TIP3   OH223997   1.956   1.833   5.618  0.3064  0.0573 -0.4988
  861TIP3    H123998   1.880   1.891   5.612 -0.9014 -1.2325  1.7493
  861TIP3    H223999   1.954   1.784   5.536 -0.4899  0.9979 -1.0593
  862TIP3   OH224000   2.596   3.923  12.655 -0.4037 -0.0633  0.4463
  862TIP3    H124001   2.549   4.006  12.664 -0.5732 -0.0122 -0.7600
  862TIP3    H224002   2.604   3.890  12.744 -1.8637  0.4080  0.7762
  863TIP3   OH224003   5.336   2.354  17.165 -0.5923 -0.1037 -0.1240
  863TIP3    H124004   5.294   2.395  17.241  2.0457 -0.7319  1.7544
  863TIP3    H224005   5.342   2.262  17.188  1.0163 -0.1650 -0.7088
  864TIP3   OH224006   5.209   5.480  11.025  0.4096  1.0301 -0.3734
  864TIP3    H124007   5.160   5.549  10.982 -2.5028 -1.1751 -0.7279
  864TIP3    H224008   5.249   5.431  10.953 -1.5674 -0.5470 -0.4317
  865TIP3   OH224009   6.176   1.735  14.666  0.3467 -0.0534  0.1210
  865TIP3    H124010   6.121   1.807  14.696  0.5617  0.3778 -0.5166
  865TIP3    H224011   6.122   1.657  14.680 -1.5064  0.5846 -2.9903
  866TIP3   OH224012   6.202   6.546  14.888 -0.6207 -0.5410  0.0591
  866TIP3    H124013   6.214   6.451  14.889  0.2239 -0.4327  1.4391
  866TIP3    H224014   6.139   6.563  14.957  1.0089  0.1105  1.4219
  867TIP3   OH224015   2.747   5.087   1.118 -0.3119 -0.2740 -0.6205
  867TIP3    H124016   2.772   5.012   1.171 -2.0390 -0.0289  0.6016
  867TIP3    H224017   2.696   5.050   1.046 -0.5569 -0.3352 -0.4147
  868TIP3   OH224018   3.697   2.380   3.440  0.1874  0.4015  0.3571
  868TIP3    H124019   3.619   2.343   3.398 -0.2706  1.7624 -0.0130
  868TIP3    H224020   3.664   2.419   3.521  0.5643  0.6247  0.4010
  869TIP3   OH224021   0.721   1.658  11.662  0.4674  0.1877  0.1962
  869TIP3    H124022   0.663   1.582  11.654  0.3670  0.2010  0.7335
  869TIP3    H224023   0.736   1.687  11.572  0.2305 -0.2625  0.0105
  870TIP3   OH224024   4.001   0.689   0.204  0.2561 -0.2427 -1.1695
  870TIP3    H124025   3.963   0.630   0.139 -1.4420 -0.3426 -0.1019
  870TIP3    H224026   3.965   0.775   0.182 -0.7986 -0.3845  0.0209
  871TIP3   OH224027   4.158   6.684  12.836  0.7531  0.3241  1.1287
  871TIP3    H124028   4.183   6.770  12.871 -0.6954  1.0351  0.4211
  871TIP3    H224029   4.064   6.690  12.819  0.8899 -0.9435 -0.2330
  872TIP3   OH224030   1.104   0.159  16.316  0.5248  0.7929 -0.2100
  872TIP3    H124031   1.146   0.106  16.247  1.5413  0.3065  0.7573
  872TIP3    H224032   1.169   0.160  16.387 -0.4383  1.4428  0.6623
  873TIP3   OH224033   5.864   5.792  12.375  0.4891  0.2675  0.2881
  873TIP3    H124034   5.769   5.782  12.361  0.5284  0.7498 -0.3984
  873TIP3    H224035   5.902   5.775  12.289  0.8653  2.0252  0.0958
  874TIP3   OH224036   0.693   2.526  10.785  0.1006  0.0879 -0.8164
  874TIP3    H124037   0.728   2.610  10.757  0.7022  0.0185 -0.2791
  874TIP3    H224038   0.750   2.461  10.743  1.9952 -0.0064  1.7823
  875TIP3   OH224039   0.783   3.694  13.499  0.1692  0.2759 -0.9421
  875TIP3    H124040   0.855   3.649  13.544 -0.8242  0.2213  0.6610
  875TIP3    H224041   0.792   3.669  13.408  1.1144 -1.1900 -0.4645
  876TIP3   OH224042   2.377   2.378  14.108  0.1166  0.6549 -0.1523
  876TIP3    H124043   2.362   2.395  14.015 -1.5282  1.4733  0.2319
  876TIP3    H224044   2.457   2.326  14.111  1.2565  2.2239 -1.8916
  877TIP3   OH224045   1.810   2.056   6.229  0.3185  0.3561  0.2519
  877TIP3    H124046   1.851   2.087   6.309  0.6484 -3.5574  1.7350
  877TIP3    H224047   1.876   1.998   6.189 -1.2245 -0.7040 -0.8333
  878TIP3   OH224048   3.456   2.542  16.717 -0.6890  0.2301  0.2223
  878TIP3    H124049   3.378   2.494  16.744 -0.1877  0.3828  1.9479
  878TIP3    H224050   3.529   2.485  16.739 -0.2889  0.1358 -1.2923
  879TIP3   OH224051   2.482   0.686   2.000  0.3390  0.1756  0.3628
  879TIP3    H124052   2.467   0.720   2.088 -0.7498  0.1320  0.2075
  879TIP3    H224053   2.396   0.693   1.957  0.4168 -1.4445 -0.1151
  880TIP3   OH224054   6.591   5.341   6.216  0.0720  0.0161 -0.6777
  880TIP3    H124055   6.658   5.279   6.245 -1.6554 -0.7322  1.9051
  880TIP3    H224056   6.626   5.427   6.238  0.5224 -0.3268 -0.0499
  881TIP3   OH224057   1.357   2.949  14.267  0.0267 -0.3879 -0.0092
  881TIP3    H124058   1.379   3.034  14.227 -0.9412 -0.4907 -0.7788
  881TIP3    H224059   1.359   2.888  14.193  0.7847 -1.0523  0.5559
  882TIP3   OH224060   6.211   0.343  13.719 -0.2462 -0.0383 -0.4714
  882TIP3    H124061   6.172   0.360  13.805  0.7030  0.9813 -0.2363
  882TIP3    H224062   6.303   0.366  13.730  0.0587 -0.7295 -1.5280
  883TIP3   OH224063   4.316   0.716   4.594 -0.4842 -0.2059  0.7222
  883TIP3    H124064   4.411   0.722   4.600 -0.1678 -0.3552 -3.1458
  883TIP3    H224065   4.284   0.762   4.672  2.6818  1.7547  0.9226
  884TIP3   OH224066   4.341   1.235  15.483 -0.1778  0.4189 -0.0631
  884TIP3    H124067   4.260   1.210  15.440  1.1177  1.3473 -3.1668
  884TIP3    H224068   4.392   1.154  15.488 -0.3431  0.3024 -0.2770
  885TIP3   OH224069   6.755   4.906   1.994  0.4284  0.0770  0.2729
  885TIP3    H124070   6.666   4.872   1.987  0.7323 -0.1746 -2.7018
  885TIP3    H224071   6.777   4.895   2.087 -1.5767 -2.5374  0.4921
  886TIP3   OH224072   4.597   6.327  14.781 -0.3843 -0.0892 -0.2500
  886TIP3    H124073   4.682   6.321  14.825  0.0145 -2.7089 -1.2599
  886TIP3    H224074   4.607   6.399  14.719  1.0038 -0.1529 -0.1271
  887TIP3   OH224075   0.347   5.251  16.251  0.2871 -0.0445 -0.7784
  887TIP3    H124076   0.258   5.232  16.222 -0.6406  0.7244  1.4341
  887TIP3    H224077   0.350   5.221  16.342  2.1727  0.2966 -0.6984
  888TIP3   OH224078   4.628   4.236   3.131 -0.4739 -0.3690  0.0680
  888TIP3    H124079   4.677   4.317   3.121 -0.2114 -0.3241  1.5089
  888TIP3    H224080   4.681   4.169   3.089 -0.5082  0.1389 -0.7881
  889TIP3   OH224081   1.918   1.137  12.365  0.1017  0.2290 -0.1864
  889TIP3    H124082   1.956   1.180  12.288 -0.0900 -1.5255 -1.2929
  889TIP3    H224083   1.831   1.108  12.335  0.1152 -0.6455  0.6195
  890TIP3   OH224084   4.581   4.385   0.121 -0.1966 -0.5461  0.4431
  890TIP3    H124085   4.628   4.394   0.038 -0.9698  0.7423  0.1309
  890TIP3    H224086   4.638   4.429   0.185 -0.8796  0.8840  0.0916
  891TIP3   OH224087   3.325   3.735   4.574  0.0841 -0.6107 -0.2026
  891TIP3    H124088   3.243   3.687   4.579  0.6044 -1.4892 -0.0053
  891TIP3    H224089   3.373   3.709   4.653  0.4709  0.0511 -0.2132
  892TIP3   OH224090   4.028   3.506  12.350 -0.1340  0.0569  0.3586
  892TIP3    H124091   3.933   3.499  12.359 -0.1367 -0.7517 -0.2280
  892TIP3    H224092   4.043   3.587  12.302 -0.5891 -0.4010 -0.5717
  893TIP3   OH224093   1.200   5.503  11.048 -0.6143  0.1552  0.1028
  893TIP3    H124094   1.221   5.484  10.956  0.3525 -1.7169  0.6749
  893TIP3    H224095   1.247   5.584  11.066 -0.2784  0.1948 -0.8747
  894TIP3   OH224096   4.103   0.422   5.558 -0.4330 -0.3017  0.1111
  894TIP3    H124097   4.090   0.335   5.595 -0.3480 -0.2571  0.2447
  894TIP3    H224098   4.073   0.482   5.626  1.7835 -0.1409  1.0127
  895TIP3   OH224099   0.514   0.781   1.699  0.2141 -0.0910  0.5130
  895TIP3    H124100   0.448   0.849   1.685 -0.4719 -0.3174  2.3942
  895TIP3    H224101   0.560   0.774   1.616 -1.6846  0.5688 -0.6252
  896TIP3   OH224102   6.174   6.586  17.028  0.0868 -0.1912  0.3740
  896TIP3    H124103   6.227   6.576  16.949  0.2201  0.0332  0.4336
  896TIP3    H224104   6.084   6.581  16.997  0.1080  1.5971 -0.0413
  897TIP3   OH224105   2.455   0.029  12.777 -0.1714  0.5127 -0.1723
  897TIP3    H124106   2.490  -0.045  12.826 -0.7971  1.4023  1.6868
  897TIP3    H224107   2.467   0.006  12.685 -0.2939 -1.8531  0.3841
  898TIP3   OH224108   1.848   4.794  15.992  0.5570  0.0472 -0.6188
  898TIP3    H124109   1.894   4.808  15.909 -0.6505 -0.5836 -1.4315
  898TIP3    H224110   1.829   4.882  16.024 -0.9863  0.3374 -2.2087
  899TIP3   OH224111   2.783   0.719  16.396  0.8052  0.1395 -0.3649
  899TIP3    H124112   2.839   0.674  16.332 -1.0336 -0.6091 -1.4713
  899TIP3    H224113   2.829   0.801  16.413  2.3176 -0.5207 -1.1564
  900TIP3   OH224114   4.382   1.025   4.657  0.1061  0.1958  0.3501
  900TIP3    H124115   4.394   1.117   4.681  0.6311  0.3205 -0.3994
  900TIP3    H224116   4.296   1.003   4.693 -0.9296  1.5549 -1.1813
  901TIP3   OH224117   4.575   3.659   2.579 -0.0431  0.6638 -0.3817
  901TIP3    H124118   4.482   3.680   2.584  0.1055  1.4537 -0.8700
  901TIP3    H224119   4.617   3.724   2.636  0.3062  0.9623 -0.9789
  902TIP3   OH224120   3.685   5.493  13.890  0.0857 -0.1334 -0.3998
  902TIP3    H124121   3.593   5.470  13.904  0.0953 -0.7388 -1.2882
  902TIP3    H224122   3.729   5.409  13.878  0.6363  0.1904 -0.6582
  903TIP3   OH224123   1.622   2.773   4.200  0.2707 -0.7203 -0.1738
  903TIP3    H124124   1.680   2.830   4.250  0.2321  0.6720 -1.6917
  903TIP3    H224125   1.564   2.734   4.266  1.1591 -0.0289  1.0245
  904TIP3   OH224126   5.401   6.286   5.783 -0.1590 -0.1228  0.4375
  904TIP3    H124127   5.312   6.307   5.810 -0.7584 -1.4312 -0.4844
  904TIP3    H224128   5.448   6.370   5.786 -1.5809  0.6855  0.3021
  905TIP3   OH224129   0.570   2.117  12.587  0.3563  0.0194 -0.1373
  905TIP3    H124130   0.483   2.154  12.601  0.0365 -1.3740  1.8269
  905TIP3    H224131   0.554   2.023  12.577  1.6371 -0.2621  0.4219
  906TIP3   OH224132   2.141   3.782  13.146 -0.2588 -0.3662 -0.0157
  906TIP3    H124133   2.203   3.709  13.139 -0.3469 -0.4383 -0.0398
  906TIP3    H224134   2.077   3.753  13.211 -0.5473 -0.4932 -0.3563
  907TIP3   OH224135   3.313   5.998  15.550  0.0633 -0.0995  0.1389
  907TIP3    H124136   3.313   6.086  15.513  3.0292  0.2613  0.9031
  907TIP3    H224137   3.312   6.012  15.645 -3.0364 -0.9598  0.2830
  908TIP3   OH224138   3.707   6.402   3.768  0.0450  0.9208  0.3270
  908TIP3    H124139   3.672   6.317   3.742 -1.4963  0.8852  2.4662
  908TIP3    H224140   3.642   6.465   3.737  0.1526  1.1659  0.6008
  909TIP3   OH224141   6.560   2.458   3.790  0.3832 -0.7919  0.4579
  909TIP3    H124142   6.620   2.479   3.861  1.0820 -0.6423 -0.1711
  909TIP3    H224143   6.604   2.488   3.711 -0.2346 -1.2668 -0.0770
  910TIP3   OH224144   1.394   0.674  13.245 -0.1224  0.5781 -0.4010
  910TIP3    H124145   1.444   0.753  13.266 -0.4313  1.3589 -2.4329
  910TIP3    H224146   1.401   0.667  13.150  0.1480 -2.0178 -0.2196
  911TIP3   OH224147   0.834   4.532   2.485 -0.0213 -0.1457  0.1915
  911TIP3    H124148   0.753   4.548   2.533  0.0426  0.6231  0.0499
  911TIP3    H224149   0.812   4.547   2.393  0.6207  1.5008  0.2838
  912TIP3   OH224150   2.147   6.715   5.401  0.2976  0.4654 -1.1164
  912TIP3    H124151   2.139   6.650   5.471  0.0131  0.7840 -0.8503
  912TIP3    H224152   2.137   6.665   5.320 -0.7053  0.2848 -0.8894
  913TIP3   OH224153   6.344   3.216   4.148  0.0189 -0.0805  0.4316
  913TIP3    H124154   6.252   3.206   4.123  0.1528 -1.0344  0.2897
  913TIP3    H224155   6.358   3.147   4.213  0.3166  0.8303  1.3368
  914TIP3   OH224156   6.358   5.713  15.146  0.3438 -0.1767 -0.6504
  914TIP3    H124157   6.423   5.656  15.187  0.1046 -0.4167 -0.6091
  914TIP3    H224158   6.365   5.694  15.052  1.4828  0.9751 -0.8134
  915TIP3   OH224159   5.630   3.159  14.312  0.1975 -0.9279 -0.1850
  915TIP3    H124160   5.632   3.075  14.266  0.8317 -1.4726  0.8325
  915TIP3    H224161   5.590   3.219  14.249  0.7913 -1.7231 -1.3420
  916TIP3   OH224162   3.471   2.115   1.407  0.4259 -0.4184 -0.4335
  916TIP3    H124163   3.441   2.193   1.453  2.2887 -0.1935  0.4343
  916TIP3    H224164   3.400   2.051   1.419  0.0121  0.2923  1.0251
  917TIP3   OH224165   0.609   0.237   2.690  0.2014 -0.0958 -0.3026
  917TIP3    H124166   0.681   0.198   2.640  0.5899  0.4147 -0.1493
  917TIP3    H224167   0.602   0.326   2.655  0.3377  0.1963  0.4093
  918TIP3   OH224168   1.706   5.463   3.617  0.2716 -0.3146 -0.1218
  918TIP3    H124169   1.613   5.464   3.594 -0.0412  1.0753  1.1206
  918TIP3    H224170   1.741   5.388   3.570 -1.1711  0.0178 -1.7785
  919TIP3   OH224171   3.110   4.535  13.628 -0.5688 -0.0163  0.0417
  919TIP3    H124172   3.191   4.567  13.590 -1.2967  0.8700 -0.8062
  919TIP3    H224173   3.091   4.597  13.699 -1.2138  0.5820 -0.6473
  920TIP3   OH224174   2.010   3.633  13.363 -0.7450 -0.1294  0.3586
  920TIP3    H124175   1.994   3.540  13.349  0.2568 -0.3642  0.6952
  920TIP3    H224176   1.954   3.657  13.437 -2.0587 -0.1299 -0.6307
  921TIP3   OH224177   5.808   4.619  11.307  0.1805 -0.1089  0.0875
  921TIP3    H124178   5.821   4.666  11.224  0.4283  0.7489  0.6087
  921TIP3    H224179   5.827   4.684  11.374  1.4994 -1.2515  0.8148
  922TIP3   OH224180   1.959   2.957  10.629  0.5517  0.6291 -0.2779
  922TIP3    H124181   1.881   2.944  10.575  1.9809 -1.0901 -1.9835
  922TIP3    H224182   1.983   3.049  10.615 -0.3708  0.7992 -0.8129
  923TIP3   OH224183   1.314   2.161  14.174 -0.0883 -0.3415 -0.1800
  923TIP3    H124184   1.267   2.200  14.247  1.4523  1.3146 -0.0486
  923TIP3    H224185   1.250   2.101  14.134 -1.0671 -0.9798  2.2355
  924TIP3   OH224186   5.951   5.093   2.410 -0.3145  0.3398  0.0664
  924TIP3    H124187   5.926   5.003   2.428  0.0531  0.0259 -0.9477
  924TIP3    H224188   5.899   5.117   2.333 -0.2611  0.9254  0.2100
  925TIP3   OH224189   3.638   2.181   0.022 -0.2400 -0.6108 -0.2500
  925TIP3    H124190   3.576   2.202   0.091  0.2232 -0.8416  0.2367
  925TIP3    H224191   3.582   2.157  -0.053 -0.7427  0.8169 -0.3398
  926TIP3   OH224192   2.225   0.379  15.802 -0.5412  0.1810 -0.2089
  926TIP3    H124193   2.229   0.398  15.708  0.4800 -0.1611 -0.2413
  926TIP3    H224194   2.284   0.444  15.841 -0.7177  0.1174  0.1625
  927TIP3   OH224195   5.333   4.151  14.318  0.0069  0.2133 -0.1447
  927TIP3    H124196   5.388   4.141  14.240 -0.0041 -0.1683 -0.1045
  927TIP3    H224197   5.385   4.204  14.378 -0.0500  0.6464 -0.4756
  928TIP3   OH224198   3.608   1.738   1.864 -0.7751 -0.4552 -0.1552
  928TIP3    H124199   3.589   1.719   1.772 -1.6466 -2.0981  0.3430
  928TIP3    H224200   3.676   1.806   1.861  0.8069 -2.0623 -2.0179
  929TIP3   OH224201   6.152   1.857   3.782  0.3205  0.5290  0.0954
  929TIP3    H124202   6.233   1.854   3.833  0.6338 -0.6024 -0.4689
  929TIP3    H224203   6.109   1.938   3.810  1.5871  1.0693  0.4870
  930TIP3   OH224204   2.902   2.722   1.310 -0.0339 -0.2349 -0.0977
  930TIP3    H124205   2.973   2.749   1.251 -0.0851 -1.8723 -0.9194
  930TIP3    H224206   2.891   2.629   1.294 -3.0497  0.1833 -0.6812
  931TIP3   OH224207   2.420   1.851  11.989  0.0985 -0.0644 -0.4512
  931TIP3    H124208   2.461   1.937  11.994 -1.3663  0.5644  1.7021
  931TIP3    H224209   2.326   1.869  11.988 -0.2526 -1.6343  0.8027
  932TIP3   OH224210   5.181   1.377   3.165 -0.0125  0.7518 -0.1009
  932TIP3    H124211   5.106   1.334   3.125  0.9383 -2.2102  1.1376
  932TIP3    H224212   5.250   1.373   3.099  0.1730  0.0009  0.1262
  933TIP3   OH224213   2.489   3.921  14.247 -0.1032  0.2199  0.1857
  933TIP3    H124214   2.444   3.977  14.310 -1.7080 -2.9344  1.9721
  933TIP3    H224215   2.419   3.884  14.194  0.9640  0.2371 -1.2434
  934TIP3   OH224216   6.497   5.425  17.012  0.1620  0.3443 -0.1795
  934TIP3    H124217   6.502   5.511  17.052  0.7201 -0.3535  1.2830
  934TIP3    H224218   6.501   5.442  16.918 -4.4222  2.2583 -0.1731
  935TIP3   OH224219   3.946   6.281   4.668 -0.6236  0.1157 -0.3049
  935TIP3    H124220   3.983   6.193   4.675 -1.9224 -0.5144 -1.1803
  935TIP3    H224221   3.910   6.286   4.579  1.9542  2.5444 -1.2743
  936TIP3   OH224222   4.435   4.837  14.902  0.0305 -0.4851  0.2936
  936TIP3    H124223   4.419   4.858  14.993  0.4216 -0.6701  0.4063
  936TIP3    H224224   4.502   4.899  14.874 -1.5190  0.8892 -0.4330
  937TIP3   OH224225   4.218   1.228   2.171  0.5747 -0.6294  0.0059
  937TIP3    H124226   4.163   1.150   2.180  1.4962 -1.2775  0.1461
  937TIP3    H224227   4.180   1.291   2.233  2.0636 -2.2871  2.7087
  938TIP3   OH224228   3.102   4.501  10.863 -0.3822  0.2059 -0.2229
  938TIP3    H124229   3.159   4.576  10.877  3.4664 -2.5753 -0.2542
  938TIP3    H224230   3.103   4.487  10.768  1.0302 -1.3912  0.0023
  939TIP3   OH224231   3.869   2.251  11.417 -0.5277  0.7615  0.8402
  939TIP3    H124232   3.918   2.202  11.352  0.2218  0.8286  1.3492
  939TIP3    H224233   3.790   2.279  11.371  0.3362  1.4432 -0.2683
  940TIP3   OH224234   6.309   6.516  13.868 -0.4156  0.0532  0.0939
  940TIP3    H124235   6.300   6.449  13.937  2.7977 -1.4303 -0.8220
  940TIP3    H224236   6.343   6.592  13.914  0.7804 -0.6163  0.3442
  941TIP3   OH224237   4.496   4.139  16.361  0.0425 -0.1821  0.3589
  941TIP3    H124238   4.408   4.124  16.327  0.1627 -0.3929  0.1335
  941TIP3    H224239   4.499   4.088  16.442 -0.1723  0.1453  0.5742
  942TIP3   OH224240   0.892   1.041  13.893  0.1868 -0.1962  0.1529
  942TIP3    H124241   0.986   1.024  13.880  0.2578 -1.0619  1.6465
  942TIP3    H224242   0.876   1.015  13.984 -0.9775  2.2907  0.7059
  943TIP3   OH224243   0.028   4.077   3.204  0.0361  0.3758  0.3907
  943TIP3    H124244   0.082   4.063   3.127  2.2018  1.2201  1.7036
  943TIP3    H224245   0.078   4.139   3.258 -0.9205 -0.9516  2.9193
  944TIP3   OH224246   6.698   6.678  14.432 -0.3629  0.1420  0.1296
  944TIP3    H124247   6.712   6.728  14.351  1.8109 -0.1767  0.2718
  944TIP3    H224248   6.748   6.726  14.498 -0.6957 -0.5769  0.9051
  945TIP3   OH224249   0.723   1.077   5.463  0.3250 -0.2876  0.1128
  945TIP3    H124250   0.740   1.099   5.371  0.9555 -0.0830  0.2733
  945TIP3    H224251   0.628   1.076   5.470  0.2587  1.4493 -0.1449
  946TIP3   OH224252   1.202   0.913   5.645  0.3242  0.4962 -0.0476
  946TIP3    H124253   1.171   0.937   5.557  1.8495  0.0684 -0.7142
  946TIP3    H224254   1.235   0.823   5.635 -1.3930 -0.3416  1.4461
  947TIP3   OH224255   5.925   4.213  12.983 -0.1039 -0.2782  0.1728
  947TIP3    H124256   5.875   4.270  12.923 -0.3013 -1.4967 -0.8491
  947TIP3    H224257   5.873   4.212  13.063  0.0870  1.2700  0.3361
  948TIP3   OH224258   2.887   1.025  16.395  0.1083 -0.4648 -0.0627
  948TIP3    H124259   2.965   1.043  16.342 -0.6321 -1.8050 -1.6637
  948TIP3    H224260   2.871   1.106  16.443  0.5188  0.9741 -2.2857
  949TIP3   OH224261   1.043   3.919   1.279  0.0538  0.2172 -0.2259
  949TIP3    H124262   1.082   3.842   1.238  0.4346  1.5187 -2.3912
  949TIP3    H224263   1.112   3.953   1.336  0.3643 -0.2985 -0.2925
  950TIP3   OH224264   1.474   4.812   3.737 -0.4810  0.1269  0.1338
  950TIP3    H124265   1.482   4.905   3.718  1.1982  0.6727  3.1594
  950TIP3    H224266   1.530   4.798   3.813 -1.0047 -3.2924 -0.0211
  951TIP3   OH224267   2.684   5.430  11.891  0.0109 -0.3116 -0.8920
  951TIP3    H124268   2.742   5.420  11.967  1.1582  0.6850 -1.6205
  951TIP3    H224269   2.667   5.524  11.887 -0.9234 -0.4977 -1.2335
  952TIP3   OH224270   5.983   5.177  13.859  0.9465 -0.0671  0.0852
  952TIP3    H124271   6.059   5.181  13.918 -0.7091  0.1882  2.2784
  952TIP3    H224272   5.927   5.109  13.898 -0.1315  0.0287 -1.2863
  953TIP3   OH224273   1.579   5.613   5.443  0.1078 -0.4045 -0.4053
  953TIP3    H124274   1.638   5.622   5.518 -1.9496 -1.4631  1.3930
  953TIP3    H224275   1.574   5.518   5.428 -0.2359 -0.2496 -1.2928
  954TIP3   OH224276   2.928   6.477  16.839  0.0838  0.3175  0.4804
  954TIP3    H124277   2.866   6.450  16.771  1.9515  0.0809 -1.1545
  954TIP3    H224278   2.983   6.543  16.797  1.2942  0.1377  1.7391
  955TIP3   OH224279   2.388   0.996   3.231 -0.4559 -0.3435 -0.3903
  955TIP3    H124280   2.448   0.998   3.156 -1.7698  1.8831 -1.4296
  955TIP3    H224281   2.309   0.953   3.198 -1.1175  0.8293 -0.3736
  956TIP3   OH224282   4.960   2.356  13.590 -0.5873 -0.0542  0.7073
  956TIP3    H124283   5.033   2.307  13.628 -0.2965  0.1579  0.4314
  956TIP3    H224284   4.942   2.312  13.507  1.5487  1.9759 -0.9137
  957TIP3   OH224285   6.470   2.700   5.591  0.9048  0.2662  0.1779
  957TIP3    H124286   6.508   2.657   5.514 -0.7624  0.8257 -0.9720
  957TIP3    H224287   6.546   2.724   5.644  2.0950  0.1527 -1.4356
  958TIP3   OH224288   2.202   2.883  16.732 -0.5786  0.2140  0.1634
  958TIP3    H124289   2.145   2.850  16.801  1.7977  0.6540  2.4195
  958TIP3    H224290   2.231   2.805  16.685 -3.8107  0.0559 -1.7371
  959TIP3   OH224291   1.744   1.572   6.849 -0.1752  0.1736  0.2124
  959TIP3    H124292   1.734   1.666   6.831 -0.1105  0.1184 -0.1090
  959TIP3    H224293   1.654   1.538   6.846 -0.1031  0.0532 -0.6185
  960TIP3   OH224294   2.768   3.838   0.053 -0.0493  0.0369  0.2234
  960TIP3    H124295   2.716   3.918   0.055  0.5819  0.4256  1.6912
  960TIP3    H224296   2.859   3.869   0.046  0.0061 -0.6294 -2.7916
  961TIP3   OH224297   5.610   5.621   0.015  0.5704 -0.4621 -0.3371
  961TIP3    H124298   5.597   5.526   0.013 -0.1191 -0.4030  0.8266
  961TIP3    H224299   5.694   5.634  -0.029  1.2224 -1.7097  0.5018
  962TIP3   OH224300   0.125   5.338   5.773 -0.0746  0.0759 -0.2039
  962TIP3    H124301   0.207   5.330   5.724  0.2399  1.8216  0.0104
  962TIP3    H224302   0.123   5.261   5.830  0.0898 -1.4099 -2.1580
  963TIP3   OH224303   0.700   3.327  13.070 -0.3502 -0.1528 -0.4859
  963TIP3    H124304   0.775   3.306  13.014 -0.0519  1.1016 -0.5824
  963TIP3    H224305   0.709   3.421  13.086 -0.5935 -0.4525  1.4572
  964TIP3   OH224306   0.130   0.195  15.523  0.1115 -0.0157  0.1906
  964TIP3    H124307   0.148   0.247  15.444  1.7417 -1.4111 -0.3811
  964TIP3    H224308   0.075   0.252  15.577  0.3822  1.6121 -1.2015
  965TIP3   OH224309   5.563   6.728   6.519  0.3183  0.2492  0.0061
  965TIP3    H124310   5.551   6.794   6.587  2.3500  0.0793  0.5728
  965TIP3    H224311   5.584   6.778   6.440  0.5179  0.3419  0.1174
  966TIP3   OH224312   0.052   3.267  12.326 -0.3056 -0.2414  0.6002
  966TIP3    H124313   0.108   3.229  12.258 -0.2199 -0.7232  0.9425
  966TIP3    H224314   0.090   3.353  12.343 -1.1356  0.4669 -0.9516
  967TIP3   OH224315   2.783   3.237   3.182  0.2097  0.4123 -0.4612
  967TIP3    H124316   2.692   3.244   3.152 -1.2106  0.3691  3.6287
  967TIP3    H224317   2.811   3.327   3.195 -0.3848  0.3382  1.4442
  968TIP3   OH224318   1.470   2.729  10.740 -0.3400 -0.0889  0.0768
  968TIP3    H124319   1.467   2.668  10.666  0.3115 -1.0987  0.8595
  968TIP3    H224320   1.562   2.728  10.767 -0.5857  0.2222  0.9341
  969TIP3   OH224321   1.787   2.794  14.609  0.4073  0.2051 -0.2884
  969TIP3    H124322   1.852   2.836  14.552  0.9823  0.8993  0.8626
  969TIP3    H224323   1.808   2.701  14.604  0.0344  0.1820 -1.7223
  970TIP3   OH224324   5.597   0.873  14.082  0.1576 -0.2282 -0.0812
  970TIP3    H124325   5.669   0.937  14.082 -0.1114  0.1209  1.9022
  970TIP3    H224326   5.518   0.927  14.092 -0.2064 -0.7525 -0.1386
  971TIP3   OH224327   2.720   3.801   3.852 -0.3024 -0.3425  0.4798
  971TIP3    H124328   2.738   3.834   3.764 -0.9217  0.4235  0.6268
  971TIP3    H224329   2.806   3.786   3.890 -0.0101  0.2837  0.0912
  972TIP3   OH224330   6.387   3.853   0.942 -0.0987 -0.5364 -0.4999
  972TIP3    H124331   6.335   3.847   0.862  0.6668  0.6880 -1.1128
  972TIP3    H224332   6.452   3.921   0.923 -0.1268  0.0240  1.2887
  973TIP3   OH224333   1.350   5.869  16.042  0.2604 -0.1596  0.4721
  973TIP3    H124334   1.441   5.856  16.069  0.8657  0.6162 -1.1284
  973TIP3    H224335   1.307   5.908  16.119  1.2969 -0.4161  1.1950
  974TIP3   OH224336   3.890   4.560   4.118  0.2548 -0.6126  0.2667
  974TIP3    H124337   3.910   4.480   4.166 -0.8207 -0.9383  0.1792
  974TIP3    H224338   3.796   4.558   4.105  0.4751 -0.3396 -1.5409
  975TIP3   OH224339   4.015   1.709  11.428 -0.5978  0.5399  0.0402
  975TIP3    H124340   4.077   1.657  11.375 -3.1854 -0.5585 -2.0334
  975TIP3    H224341   3.964   1.643  11.475 -1.0401  1.3978  0.7658
  976TIP3   OH224342   2.923   3.638   3.865 -0.1113  0.3656 -0.0407
  976TIP3    H124343   2.959   3.574   3.925 -2.3404  0.2809  1.2630
  976TIP3    H224344   2.933   3.599   3.778 -0.4982 -1.2871  0.6484
  977TIP3   OH224345   1.235   2.598   5.834 -0.6127  0.1810 -0.4377
  977TIP3    H124346   1.194   2.677   5.869  1.0970  0.3280  1.3013
  977TIP3    H224347   1.329   2.617   5.836 -0.1167 -2.2062  0.8768
  978TIP3   OH224348   2.958   3.743  15.720  0.1425 -0.4373  0.1393
  978TIP3    H124349   3.035   3.741  15.778  0.8765  2.1295 -0.7174
  978TIP3    H224350   2.907   3.818  15.751 -1.4658 -1.4411 -0.0369
  979TIP3   OH224351   2.209   2.925   0.993 -0.0108  0.4815  0.3714
  979TIP3    H124352   2.170   2.885   0.915  1.5279  1.4159 -0.9107
  979TIP3    H224353   2.144   2.912   1.062 -0.3377 -2.6062 -0.4449
  980TIP3   OH224354   5.793   2.991  14.648  0.0689  0.1596 -0.5289
  980TIP3    H124355   5.828   2.949  14.569  0.6145 -0.2351 -0.0852
  980TIP3    H224356   5.855   2.967  14.717 -0.8162 -0.1313  0.1759
  981TIP3   OH224357   1.898   5.875  11.654  0.0043  0.2207 -0.0711
  981TIP3    H124358   1.911   5.867  11.559 -3.2514 -2.4078 -0.3745
  981TIP3    H224359   1.822   5.933  11.662  0.0404  0.1279  0.9351
  982TIP3   OH224360   1.683   6.209  16.250 -0.6810  0.6852 -0.2732
  982TIP3    H124361   1.654   6.256  16.171 -2.5711  1.8243  1.0703
  982TIP3    H224362   1.603   6.171  16.286  0.4351 -1.2971  0.1702
  983TIP3   OH224363   3.720   4.874  15.104 -0.4871 -0.2399  0.2678
  983TIP3    H124364   3.735   4.840  15.015 -0.6912 -0.0009  0.1422
  983TIP3    H224365   3.780   4.823  15.159  1.0101  0.8996 -0.2712
  984TIP3   OH224366   0.305   6.650  11.097 -0.2075  0.3130  0.4398
  984TIP3    H124367   0.362   6.636  11.021  0.0084  1.1139  0.4446
  984TIP3    H224368   0.353   6.610  11.170  0.2678  0.8226  0.4091
  985TIP3   OH224369   5.692   1.047  16.427  0.1073  0.0350  0.7364
  985TIP3    H124370   5.685   1.083  16.516  2.1971  2.2626  0.0700
  985TIP3    H224371   5.767   0.988  16.431  1.0747  1.1929  0.1699
  986TIP3   OH224372   3.982   2.700  15.122 -0.2833 -0.0507 -0.1066
  986TIP3    H124373   4.003   2.639  15.051 -2.2814 -0.3520 -0.4839
  986TIP3    H224374   3.891   2.723  15.107 -0.4517  0.6449  1.8179
  987TIP3   OH224375   0.657   3.201   0.215 -0.2720 -0.3169  0.4316
  987TIP3    H124376   0.663   3.297   0.220 -1.7228 -0.0297 -2.1862
  987TIP3    H224377   0.747   3.171   0.209  0.0723  1.1383 -2.0030
  988TIP3   OH224378   4.884   2.955  17.089 -0.3186  0.3367  0.4108
  988TIP3    H124379   4.852   2.967  17.178  0.3532 -0.4099  0.7562
  988TIP3    H224380   4.971   2.996  17.089  0.0268 -0.3926  0.3212
  989TIP3   OH224381   4.136   2.498   5.061 -0.0246  0.0739  0.0749
  989TIP3    H124382   4.062   2.442   5.040 -0.4827 -0.4642  2.8754
  989TIP3    H224383   4.097   2.579   5.095  0.6332  0.0461  0.9328
  990TIP3   OH224384   2.832   0.330  13.728 -0.1080  0.8225 -0.0287
  990TIP3    H124385   2.789   0.276  13.794  0.7491  0.3716  0.1664
  990TIP3    H224386   2.772   0.405  13.716 -1.4300 -0.2926 -0.5047
  991TIP3   OH224387   4.896   5.604  10.150 -0.0441 -0.1388 -0.6690
  991TIP3    H124388   4.925   5.523  10.192  0.2887 -1.0702 -2.6196
  991TIP3    H224389   4.851   5.652  10.219  1.9301 -0.8495  1.1638
  992TIP3   OH224390   3.621   5.269   0.548  0.4346  0.2200  0.2586
  992TIP3    H124391   3.666   5.352   0.563 -1.5428  1.3030  0.2166
  992TIP3    H224392   3.672   5.227   0.478  2.3235  0.6979  1.3218
  993TIP3   OH224393   1.724   3.387  11.894 -0.6311 -0.3732  0.5250
  993TIP3    H124394   1.700   3.423  11.979  1.0934 -0.1802  0.9492
  993TIP3    H224395   1.665   3.313  11.882 -0.4377 -0.8176  2.1846
  994TIP3   OH224396   1.124   0.565  12.180  0.1718  0.0875 -0.6449
  994TIP3    H124397   1.139   0.611  12.098  1.3920 -0.9649 -1.0206
  994TIP3    H224398   1.204   0.578  12.231 -0.8920  1.4215  0.7173
  995TIP3   OH224399   0.367   5.556   5.041 -0.6548  0.1256 -0.0321
  995TIP3    H124400   0.300   5.595   4.984 -0.3557  0.3319 -0.2460
  995TIP3    H224401   0.319   5.494   5.096 -1.1128  0.6765  0.2009
  996TIP3   OH224402   1.044   3.877   1.714  0.0173 -0.3272 -0.0146
  996TIP3    H124403   0.971   3.818   1.696 -0.5531  0.4312 -0.2237
  996TIP3    H224404   1.005   3.950   1.762  0.8890 -0.5919  1.1092
  997TIP3   OH224405   2.640   4.625  14.832 -0.1271  0.0316  0.7561
  997TIP3    H124406   2.640   4.561  14.760  0.7261  0.0399  0.7369
  997TIP3    H224407   2.612   4.575  14.908 -0.0217 -0.2346  0.6224
  998TIP3   OH224408   0.650   6.027   3.591  0.3530  0.5272 -0.9289
  998TIP3    H124409   0.707   6.037   3.667  0.3269 -0.4257 -0.7801
  998TIP3    H224410   0.567   5.995   3.627  0.7177 -1.0715 -1.4862
  999TIP3   OH224411   5.368   4.295  12.502  0.0438  1.2059 -0.0033
  999TIP3    H124412   5.441   4.317  12.443  0.9767 -0.1410  0.6114
  999TIP3    H224413   5.298   4.266  12.444  0.5072  1.1075 -0.5172
 1000TIP3   OH224414   1.468   5.871   3.031  0.5125  0.3108  0.2749
 1000TIP3    H124415   1.527   5.798   3.015  1.0851  0.9535 -0.5860
 1000TIP3    H224416   1.406   5.838   3.096  1.3438 -0.6168  0.6066
 1001TIP3   OH224417   4.970   6.374  11.937  0.0386  0.4182 -0.3000
 1001TIP3    H124418   4.901   6.418  11.887 -0.3218 -0.3179 -0.4504
 1001TIP3    H224419   4.960   6.282  11.916  0.1117  0.1347  0.8574
 1002TIP3   OH224420   0.268   4.843   5.815  0.6396 -0.1601  0.3070
 1002TIP3    H124421   0.212   4.882   5.749 -0.2815  0.7157  1.5739
 1002TIP3    H224422   0.357   4.861   5.786  0.2426 -0.0779 -0.8534
 1003TIP3   OH224423   5.870   1.608   5.006 -0.4765 -0.2360 -0.0599
 1003TIP3    H124424   5.828   1.693   4.993 -0.8906 -0.3157  0.6857
 1003TIP3    H224425   5.899   1.581   4.919 -0.7860  0.4410 -0.3740
 1004TIP3   OH224426   4.301   4.288   1.929 -0.1688 -0.1171  0.1386
 1004TIP3    H124427   4.208   4.299   1.911  0.0134  3.0268  0.9196
 1004TIP3    H224428   4.344   4.313   1.847  0.0448 -0.2238  0.2171
 1005TIP3   OH224429   1.714   4.634   0.648  0.1376  0.4367 -0.1789
 1005TIP3    H124430   1.770   4.665   0.578 -1.7421  2.3104 -0.8735
 1005TIP3    H224431   1.625   4.651   0.618 -0.7676 -0.8300  1.6777
 1006TIP3   OH224432   5.080   4.495   2.543 -0.2097  0.2643  0.7188
 1006TIP3    H124433   5.093   4.562   2.476 -0.4755  0.0142  0.4170
 1006TIP3    H224434   5.146   4.515   2.610  0.0528  0.5160  0.3870
 1007TIP3   OH224435   1.550   2.757  14.806 -0.2328 -0.4258  0.1267
 1007TIP3    H124436   1.604   2.777  14.731 -1.0723 -1.2280 -0.7030
 1007TIP3    H224437   1.460   2.759  14.773 -0.7458  1.0709  1.5175
 1008TIP3   OH224438   2.887   0.036  14.111 -0.0764  0.0176  0.0096
 1008TIP3    H124439   2.904   0.026  14.205  0.8471 -1.1351 -0.2733
 1008TIP3    H224440   2.939  -0.033  14.070  0.8628  1.5815 -1.4876
 1009TIP3   OH224441   5.342   0.287  12.499  0.1401  0.0348  0.4160
 1009TIP3    H124442   5.386   0.252  12.421  0.0950  0.7045  0.0834
 1009TIP3    H224443   5.260   0.323  12.466  0.5209  1.1142  0.6352
 1010TIP3   OH224444   6.566   1.514  14.530 -0.0640  0.2874  0.6417
 1010TIP3    H124445   6.507   1.441  14.509 -3.0153  2.3204  1.5188
 1010TIP3    H224446   6.540   1.583  14.470  2.6762  0.6689 -0.1462
 1011TIP3   OH224447   4.993   6.782   0.995  0.4288  0.0576  0.3357
 1011TIP3    H124448   4.977   6.833   0.915  0.2964 -0.0446  0.2967
 1011TIP3    H224449   4.915   6.797   1.049 -0.7362 -2.0249 -0.6846
 1012TIP3   OH224450   4.422   4.580  12.657  0.3845  0.0325 -0.2129
 1012TIP3    H124451   4.492   4.642  12.676 -0.7365  1.1052  0.4642
 1012TIP3    H224452   4.466   4.508  12.611  1.3863  2.2605 -2.8969
 1013TIP3   OH224453   3.596   0.188  17.206 -0.4776  0.6954 -0.1070
 1013TIP3    H124454   3.567   0.270  17.166  1.7893  2.2012  1.1871
 1013TIP3    H224455   3.550   0.184  17.290  0.6487  1.5198  0.5686
 1014TIP3   OH224456   5.776   6.706   5.803 -0.3822 -0.1903  0.2586
 1014TIP3    H124457   5.854   6.757   5.781 -0.4008  0.1267  0.8972
 1014TIP3    H224458   5.759   6.727   5.895 -2.5443  1.5336 -0.4660
 1015TIP3   OH224459   1.222   5.790   2.273 -0.2387  0.0908  0.1026
 1015TIP3    H124460   1.248   5.700   2.250  1.9920  1.0993 -1.4988
 1015TIP3    H224461   1.181   5.825   2.194  0.7627  1.1473  0.0367
 1016TIP3   OH224462   5.591   0.560   2.102 -0.0739 -0.1343  0.2877
 1016TIP3    H124463   5.656   0.553   2.172 -0.3960  2.7641  0.9730
 1016TIP3    H224464   5.626   0.629   2.045 -1.5360  0.0058 -0.4618
 1017TIP3   OH224465   2.128   0.484   1.393  0.0353  0.1260  0.3991
 1017TIP3    H124466   2.126   0.454   1.484 -0.1173 -0.4860  0.1916
 1017TIP3    H224467   2.156   0.576   1.399 -1.0575  0.4119  1.1446
 1018TIP3   OH224468   3.570   0.172  12.179  0.5126  0.8234 -0.0696
 1018TIP3    H124469   3.529   0.151  12.263  3.9494 -1.5995  1.1032
 1018TIP3    H224470   3.573   0.088  12.133 -0.5108  1.9640 -2.2984
 1019TIP3   OH224471   5.543   6.258  12.310 -0.2867  0.1308 -0.2628
 1019TIP3    H124472   5.535   6.174  12.265 -0.9005 -0.4661  0.9585
 1019TIP3    H224473   5.509   6.322  12.248 -0.1120 -0.5556 -1.0721
 1020TIP3   OH224474   2.050   2.575  16.406 -0.1853 -0.3118  0.6985
 1020TIP3    H124475   1.968   2.624  16.414  0.9224  1.7227 -0.3273
 1020TIP3    H224476   2.103   2.604  16.481  0.7574  0.6194 -0.3208
 1021TIP3   OH224477   4.883   5.394  11.255  0.0376 -0.1083  0.6857
 1021TIP3    H124478   4.906   5.429  11.341 -0.9904 -0.3319  1.0509
 1021TIP3    H224479   4.881   5.471  11.198  3.4574 -0.2839  0.2450
 1022TIP3   OH224480   4.131   0.355  16.763 -0.2046  0.3990  0.5264
 1022TIP3    H124481   4.039   0.371  16.786 -1.3642 -1.7032 -2.3933
 1022TIP3    H224482   4.146   0.265  16.789  0.2735 -0.0475 -1.2424
 1023TIP3   OH224483   2.238   2.750  16.058 -0.4174 -0.0514 -0.0365
 1023TIP3    H124484   2.156   2.782  16.019 -0.3820  0.2993  0.1723
 1023TIP3    H224485   2.240   2.657  16.035 -1.3840 -0.2931  0.8194
 1024TIP3   OH224486   6.390   1.823  11.649 -0.4569 -0.2648  0.6537
 1024TIP3    H124487   6.297   1.801  11.646 -0.4253 -0.2593 -0.8114
 1024TIP3    H224488   6.405   1.870  11.567  0.9679 -0.7957  0.6120
 1025TIP3   OH224489   5.360   0.199   4.268 -0.2789  0.4406  0.2576
 1025TIP3    H124490   5.292   0.246   4.316 -1.7361 -0.4981 -0.8785
 1025TIP3    H224491   5.377   0.254   4.191  2.8682  2.5351  2.3279
 1026TIP3   OH224492   2.093   1.899   3.930 -0.2846  0.1768 -0.1619
 1026TIP3    H124493   2.081   1.816   3.882  2.6867 -0.6456  0.4357
 1026TIP3    H224494   2.118   1.962   3.862 -0.0649 -0.0273 -0.2735
 1027TIP3   OH224495   2.913   5.305  15.170 -0.1863 -0.2758 -0.3244
 1027TIP3    H124496   2.928   5.375  15.107 -1.5859 -0.2673 -0.6754
 1027TIP3    H224497   2.818   5.294  15.171 -0.0784 -1.2208  0.7601
 1028TIP3   OH224498   1.339   5.416   3.881 -0.2460  0.4845  0.3707
 1028TIP3    H124499   1.369   5.459   3.800 -1.2446  1.2695  0.4147
 1028TIP3    H224500   1.272   5.355   3.852  2.0499 -2.0552  0.1395
 1029TIP3   OH224501   1.717   5.575  15.294  0.1744 -0.0888 -0.3812
 1029TIP3    H124502   1.624   5.563  15.275  0.3162 -0.8132 -0.6738
 1029TIP3    H224503   1.761   5.518  15.230  0.8555  0.9646 -0.8578
 1030TIP3   OH224504   3.353   4.008  14.679 -0.3748  0.2968 -0.2831
 1030TIP3    H124505   3.271   3.958  14.684 -0.6499  0.5700 -1.9839
 1030TIP3    H224506   3.341   4.066  14.604  0.7116  1.5674  0.5157
 1031TIP3   OH224507   5.845   4.837   2.349 -0.2281 -0.4023  0.2981
 1031TIP3    H124508   5.838   4.798   2.262 -2.4949  0.4955  0.0528
 1031TIP3    H224509   5.917   4.789   2.391 -0.1633 -1.9179 -1.4909
 1032TIP3   OH224510   2.803   1.794   6.017  0.4863  1.0990  0.0487
 1032TIP3    H124511   2.783   1.803   6.111 -1.6492  0.1112 -0.2972
 1032TIP3    H224512   2.868   1.723   6.014 -0.7111 -0.0512  0.6519
 1033TIP3   OH224513   2.874   0.204   0.218  0.6672 -0.2359 -0.3192
 1033TIP3    H124514   2.959   0.168   0.246  0.1354  0.7118  2.6989
 1033TIP3    H224515   2.818   0.195   0.296 -1.2616  1.4709 -1.4765
 1034TIP3   OH224516   0.707   0.174  16.338  0.4107 -0.3632  0.0134
 1034TIP3    H124517   0.721   0.092  16.386 -0.2933  1.0346  2.6762
 1034TIP3    H224518   0.692   0.240  16.406  0.3770  1.8887 -2.0999
 1035TIP3   OH224519   3.974   5.817  15.426  0.1087  0.2031  0.0313
 1035TIP3    H124520   3.927   5.899  15.407  0.1086  0.0286 -0.7411
 1035TIP3    H224521   3.929   5.780  15.501  0.1249  0.9298  0.4032
 1036TIP3   OH224522   4.256   5.912   2.296  0.0312  0.3496 -0.5890
 1036TIP3    H124523   4.241   5.859   2.217  0.8303  0.2754 -0.6931
 1036TIP3    H224524   4.329   5.970   2.273 -1.7775  2.5425 -0.9770
 1037TIP3   OH224525   2.538   6.491  13.261 -0.5099  0.2310 -0.1086
 1037TIP3    H124526   2.510   6.445  13.340 -0.2800  1.4497  0.7101
 1037TIP3    H224527   2.476   6.564  13.253  0.3133  0.9342 -0.2386
 1038TIP3   OH224528   5.050   5.794  14.035 -0.2952  0.4183 -0.2887
 1038TIP3    H124529   4.973   5.848  14.016 -0.5472  0.9241  2.0466
 1038TIP3    H224530   5.125   5.852  14.016 -0.4826  0.2886 -1.4867
 1039TIP3   OH224531   0.707   1.915   5.324  0.0504  0.3553 -0.3399
 1039TIP3    H124532   0.710   1.907   5.419 -1.6387  1.3369 -0.1789
 1039TIP3    H224533   0.780   1.863   5.293 -0.4516 -1.4522  1.4131
 1040TIP3   OH224534   6.417   5.959  16.276  0.2826 -0.8848 -0.6247
 1040TIP3    H124535   6.373   5.874  16.274 -1.2370 -0.1139 -0.8221
 1040TIP3    H224536   6.353   6.019  16.315  1.2255  0.2366 -0.7360
 1041TIP3   OH224537   2.425   2.855   1.770  0.3530 -0.3564 -0.3781
 1041TIP3    H124538   2.399   2.769   1.805  0.7467 -0.9095 -1.4231
 1041TIP3    H224539   2.370   2.917   1.817 -0.5676 -1.2563 -0.2401
 1042TIP3   OH224540   0.353   0.284   4.790 -0.4073  0.7408  0.1970
 1042TIP3    H124541   0.431   0.340   4.789  1.0812 -1.2881  0.3197
 1042TIP3    H224542   0.313   0.297   4.704  0.9049  0.6614 -0.4274
 1043TIP3   OH224543   3.090   5.583   0.081 -0.7686  0.4030  0.5697
 1043TIP3    H124544   3.157   5.603   0.016  0.5380  1.2913  2.1433
 1043TIP3    H224545   3.139   5.556   0.159 -2.3173 -1.1492  1.0432
 1044TIP3   OH224546   0.702   5.843   2.020 -0.6519  0.3919  0.1241
 1044TIP3    H124547   0.760   5.855   1.944 -1.3804 -1.1523 -0.6810
 1044TIP3    H224548   0.751   5.785   2.078 -0.8653  0.1030  0.0136
 1045TIP3   OH224549   4.602   3.578   1.165  0.3608  0.2337 -0.1241
 1045TIP3    H124550   4.611   3.673   1.161  0.2388  0.2953  1.0232
 1045TIP3    H224551   4.676   3.548   1.218 -1.1999 -0.0361  1.9686
 1046TIP3   OH224552   2.265   6.576  11.592 -0.6360 -0.1778 -0.0891
 1046TIP3    H124553   2.226   6.632  11.659 -0.2629 -1.4734  1.2345
 1046TIP3    H224554   2.313   6.509  11.641  0.3465 -0.6632 -1.6569
 1047TIP3   OH224555   4.019   4.760  11.983  0.5599 -0.0086 -0.1878
 1047TIP3    H124556   4.094   4.808  11.948  0.7582 -0.3091 -0.1827
 1047TIP3    H224557   3.994   4.700  11.913  0.4907 -0.0933 -0.0910
 1048TIP3   OH224558   4.750   5.785  10.905 -0.1712  0.3721  0.3508
 1048TIP3    H124559   4.670   5.823  10.941  0.4764  1.0388  1.1008
 1048TIP3    H224560   4.722   5.746  10.822 -1.1891  0.9800  0.3910
 1049TIP3   OH224561   2.604   6.465  16.500  0.2052 -0.8338  0.3863
 1049TIP3    H124562   2.602   6.510  16.415 -0.3789  1.0356  1.3551
 1049TIP3    H224563   2.522   6.415  16.502 -0.8579  0.8671  0.7395
 1050TIP3   OH224564   1.716   3.850   3.739 -0.2475 -0.2929 -0.1816
 1050TIP3    H124565   1.633   3.878   3.700  0.3332 -0.2298 -1.4124
 1050TIP3    H224566   1.690   3.797   3.815 -1.4438 -1.4016 -1.3281
 1051TIP3   OH224567   3.594   6.687  11.214 -0.1895 -0.7295  0.0927
 1051TIP3    H124568   3.627   6.752  11.153 -0.4037 -1.4847 -0.8391
 1051TIP3    H224569   3.642   6.607  11.192 -2.0598 -1.6365 -0.7577
 1052TIP3   OH224570   3.180   2.231  13.766  0.4344 -0.0338 -0.2245
 1052TIP3    H124571   3.114   2.167  13.792  1.6004 -0.9334  0.5559
 1052TIP3    H224572   3.133   2.290  13.707 -1.3424 -0.0264  1.1456
 1053TIP3   OH224573   0.083   3.713  14.142 -0.1490 -0.6734  0.0375
 1053TIP3    H124574   0.131   3.737  14.063  0.5109  3.2901  1.5175
 1053TIP3    H224575   0.128   3.634  14.174  2.2023  0.0731 -1.2816
 1054TIP3   OH224576   5.467   5.291  13.434 -0.3994 -0.0417  0.8622
 1054TIP3    H124577   5.416   5.372  13.433  1.2930  1.0771 -1.9099
 1054TIP3    H224578   5.413   5.229  13.385 -0.0673  0.5404 -0.2711
 1055TIP3   OH224579   4.001   2.572   4.488  0.2941  0.2680  0.2088
 1055TIP3    H124580   4.056   2.553   4.412  0.4903  1.1408  0.1300
 1055TIP3    H224581   4.016   2.497   4.547 -0.9436 -1.1224 -1.1945
 1056TIP3   OH224582   5.351   5.987   0.182 -0.2928  0.1698 -0.4107
 1056TIP3    H124583   5.304   5.993   0.099 -1.5467 -1.3079  0.1662
 1056TIP3    H224584   5.442   5.971   0.158 -0.7865 -1.0358 -1.4977
 1057TIP3   OH224585   0.306   5.717   1.780 -0.2103 -0.5523  0.1652
 1057TIP3    H124586   0.230   5.663   1.758 -1.9518  2.2241 -0.9221
 1057TIP3    H224587   0.275   5.776   1.848  0.7036  1.2283 -0.9392
 1058TIP3   OH224588   2.147   6.388  12.942  0.5921  0.0502  0.5480
 1058TIP3    H124589   2.152   6.361  12.850 -1.5687 -0.2622  0.4948
 1058TIP3    H224590   2.057   6.367  12.969  1.6304 -1.3045  3.1884
 1059TIP3   OH224591   1.970   5.649  14.744  0.1231 -0.3653  0.3805
 1059TIP3    H124592   1.907   5.721  14.747  0.4756  0.1183 -2.5934
 1059TIP3    H224593   1.922   5.576  14.705  0.9793 -0.3989 -0.6375
 1060TIP3   OH224594   4.345   6.625  11.367 -0.2077 -0.3710 -0.1853
 1060TIP3    H124595   4.334   6.547  11.312  2.0644 -0.2907 -0.8247
 1060TIP3    H224596   4.322   6.698  11.310  1.3815 -0.3419 -0.8193
 1061TIP3   OH224597   2.973   5.628   0.875  0.4708 -0.0273  0.4480
 1061TIP3    H124598   2.928   5.611   0.792  1.6273 -0.7563 -0.0405
 1061TIP3    H224599   2.917   5.588   0.942 -0.8842  1.2738  0.1132
 1062TIP3   OH224600   4.233   6.032  14.240  0.3791  0.4004  0.2921
 1062TIP3    H124601   4.212   6.088  14.166 -1.1830  0.1280  0.5078
 1062TIP3    H224602   4.176   6.063  14.310  0.9929 -0.1130  1.0281
 1063TIP3   OH224603   1.350   1.825  14.039  0.0875  0.7431  0.4378
 1063TIP3    H124604   1.343   1.890  13.968 -1.0352 -0.4012 -0.5315
 1063TIP3    H224605   1.308   1.867  14.114 -0.7037  1.1015 -0.1998
 1064TIP3   OH224606   0.526   4.583  12.737  0.0298 -0.1914  0.3754
 1064TIP3    H124607   0.606   4.541  12.706 -1.0286 -1.5418 -0.6056
 1064TIP3    H224608   0.481   4.515  12.788 -1.0564  0.1625 -0.0947
 1065TIP3   OH224609   3.756   3.572  12.738 -0.3821 -0.4174  0.1724
 1065TIP3    H124610   3.707   3.500  12.697  2.6938 -2.5642  0.0846
 1065TIP3    H224611   3.738   3.563  12.831  1.5757 -2.6804  0.3978
 1066TIP3   OH224612   3.714   1.052  11.176 -0.0502  0.1026 -0.8580
 1066TIP3    H124613   3.776   0.980  11.163  2.7369  2.5452 -1.4824
 1066TIP3    H224614   3.688   1.077  11.087 -0.6939  0.1620 -0.6550
 1067TIP3   OH224615   5.257   6.242   2.258  0.0643  0.3602 -0.3470
 1067TIP3    H124616   5.274   6.305   2.188  0.4544  0.9577  0.2833
 1067TIP3    H224617   5.289   6.285   2.338 -1.0221 -0.0147  0.3113
 1068TIP3   OH224618   4.366   0.068  12.347  0.0885  0.2642  0.6527
 1068TIP3    H124619   4.378   0.067  12.442  2.0412 -1.9027  0.4536
 1068TIP3    H224620   4.272   0.076  12.334 -0.4880 -2.2460  2.8483
 1069TIP3   OH224621   2.327   1.221  15.197 -0.3868 -0.5615 -0.2583
 1069TIP3    H124622   2.372   1.213  15.281  0.4259 -0.8206 -0.7153
 1069TIP3    H224623   2.391   1.262  15.139  0.3153 -3.6437 -1.7262
 1070TIP3   OH224624   4.543   3.826   2.088 -0.3122 -0.0369 -0.7175
 1070TIP3    H124625   4.568   3.826   1.995  1.2263 -1.1851 -0.3064
 1070TIP3    H224626   4.557   3.737   2.117 -0.9887  0.2711  0.5938
 1071TIP3   OH224627   3.011   0.168   2.276  0.0321  0.0479  0.2286
 1071TIP3    H124628   3.068   0.207   2.342 -0.4394  1.6005 -0.2756
 1071TIP3    H224629   3.009   0.232   2.205  0.8717 -1.7920 -1.5030
 1072TIP3   OH224630   0.513   1.466  16.415 -0.2937 -0.3625 -0.2797
 1072TIP3    H124631   0.465   1.509  16.344 -0.8973  0.2417  0.4869
 1072TIP3    H224632   0.544   1.538  16.470  0.4625 -0.8133 -0.1091
 1073TIP3   OH224633   3.080   4.727  11.108 -0.4988  0.1316  0.4049
 1073TIP3    H124634   3.095   4.816  11.142 -0.7906  0.2378  0.2579
 1073TIP3    H224635   3.140   4.720  11.033 -0.2248  0.0789  0.6276
 1074TIP3   OH224636   6.311   0.712  14.926  0.3450  0.0270 -0.0295
 1074TIP3    H124637   6.257   0.717  15.005 -0.8973 -0.9622 -0.7954
 1074TIP3    H224638   6.265   0.769  14.863  1.7261  1.3996  0.1672
 1075TIP3   OH224639   1.897   3.279   3.959  1.1332 -0.2294 -0.6575
 1075TIP3    H124640   1.988   3.266   3.934  0.7909  1.5842 -3.1753
 1075TIP3    H224641   1.880   3.372   3.939 -1.7024 -0.9483 -1.8771
 1076TIP3   OH224642   3.726   6.753   2.580 -0.1014 -0.3212  0.0370
 1076TIP3    H124643   3.645   6.723   2.538 -0.9057  1.0629  0.5517
 1076TIP3    H224644   3.763   6.816   2.518  0.3959 -0.6780 -0.0325
 1077TIP3   OH224645   3.152   1.683  15.995  0.0069 -0.3493 -0.1803
 1077TIP3    H124646   3.084   1.616  15.992  0.2563 -0.6111 -0.0942
 1077TIP3    H224647   3.190   1.683  15.908 -1.1727  0.9292 -0.7136
 1078TIP3   OH224648   6.472   4.710  13.602  0.3525  0.2562  1.2567
 1078TIP3    H124649   6.451   4.618  13.618  2.5245 -0.9290 -2.1774
 1078TIP3    H224650   6.441   4.727  13.513 -1.3902  3.3329  2.3856
 1079TIP3   OH224651   0.262   5.905   2.959 -0.2504 -0.0302  0.4906
 1079TIP3    H124652   0.298   5.818   2.975 -0.5041 -0.3250 -0.4820
 1079TIP3    H224653   0.172   5.889   2.931  0.3056  0.4041 -1.6537
 1080TIP3   OH224654   5.903   5.227  14.152  0.5093 -0.0647  0.5171
 1080TIP3    H124655   5.888   5.282  14.075 -2.4143 -0.7360  0.5300
 1080TIP3    H224656   5.838   5.156  14.143  2.1241 -1.7843  2.0807
 1081TIP3   OH224657   6.182   6.118  17.063  0.2789  0.6737  0.3483
 1081TIP3    H124658   6.128   6.055  17.111 -0.7960 -0.8103 -2.6543
 1081TIP3    H224659   6.156   6.203  17.099 -0.3613 -0.3736  2.4720
 1082TIP3   OH224660   1.266   0.105   4.292 -0.2366 -0.7911  0.1347
 1082TIP3    H124661   1.331   0.056   4.342  1.6840  0.7507 -0.7878
 1082TIP3    H224662   1.249   0.183   4.344 -0.0766 -0.3716 -0.4387
 1083TIP3   OH224663   1.307   0.395   2.462  0.2576 -0.4097  0.3320
 1083TIP3    H124664   1.355   0.362   2.538  1.0971 -0.2387 -0.1147
 1083TIP3    H224665   1.363   0.465   2.428 -0.4597 -0.0112 -0.0192
 1084TIP3   OH224666   2.070   0.421  15.517  0.0584  0.6719 -0.0667
 1084TIP3    H124667   1.979   0.447  15.529  0.7235  2.6839  0.7890
 1084TIP3    H224668   2.121   0.493  15.554  1.9978 -1.0391  0.7224
 1085TIP3   OH224669   2.459   0.815   5.242 -0.1985  0.0516  0.1928
 1085TIP3    H124670   2.406   0.893   5.229  1.0989  0.6410 -1.8393
 1085TIP3    H224671   2.516   0.836   5.316  0.4180  1.1805 -0.5961
 1086TIP3   OH224672   5.648   5.575  15.706  0.0701  0.3708  0.2602
 1086TIP3    H124673   5.709   5.527  15.650 -0.1189  0.3759  0.0471
 1086TIP3    H224674   5.669   5.667  15.690  0.5175  0.3569  0.7688
 1087TIP3   OH224675   0.483   4.034   5.900 -0.3970  0.2201  0.2053
 1087TIP3    H124676   0.448   4.076   5.978  0.3308  0.5483  0.3558
 1087TIP3    H224677   0.459   4.093   5.828 -1.7121 -0.4470  0.0774
 1088TIP3   OH224678   4.166   5.109   5.808 -0.0807 -0.2616  0.5243
 1088TIP3    H124679   4.081   5.119   5.766  0.7287  0.9834 -0.8302
 1088TIP3    H224680   4.210   5.041   5.757  1.0183  1.4650 -0.8350
 1089TIP3   OH224681   0.557   0.568  13.641  0.7944  0.1978 -0.2078
 1089TIP3    H124682   0.637   0.519  13.663  0.8926 -0.9628 -2.9240
 1089TIP3    H224683   0.498   0.502  13.605 -0.2418  1.5938 -1.0844
 1090TIP3   OH224684   0.021   2.814   5.152  0.0398  0.6619  0.2578
 1090TIP3    H124685  -0.070   2.784   5.158  0.6114 -0.8315  1.8860
 1090TIP3    H224686   0.029   2.848   5.063 -2.4238  1.8750  0.4554
 1091TIP3   OH224687   2.515   5.753   0.138 -0.1581  0.3751  0.4152
 1091TIP3    H124688   2.609   5.738   0.131 -0.4105 -0.9415 -0.4134
 1091TIP3    H224689   2.479   5.668   0.162 -1.3523  0.3159 -1.4645
 1092TIP3   OH224690   1.772   5.431   1.494  0.0485 -0.2603  0.4680
 1092TIP3    H124691   1.828   5.394   1.425 -1.8593 -0.3279 -1.1024
 1092TIP3    H224692   1.751   5.519   1.462 -1.0794 -0.3979  0.8200
 1093TIP3   OH224693   5.285   1.536   5.734 -0.1117 -0.2410  0.4646
 1093TIP3    H124694   5.325   1.468   5.681 -0.6109  0.4716 -0.8444
 1093TIP3    H224695   5.359   1.590   5.763  0.1800 -0.7421  0.6579
 1094TIP3   OH224696   6.368   2.407  13.450 -0.2765  0.2932 -0.5969
 1094TIP3    H124697   6.382   2.362  13.533  1.0324  0.2722 -0.8079
 1094TIP3    H224698   6.431   2.367  13.390 -0.4493  1.0498 -1.2971
 1095TIP3   OH224699   5.267   3.875   2.333  0.1282 -0.3779  0.1118
 1095TIP3    H124700   5.232   3.946   2.281  0.0642 -0.9573 -0.6430
 1095TIP3    H224701   5.194   3.845   2.387  0.2837  0.4416  0.7827
 1096TIP3   OH224702   3.575   0.082   3.134  0.1960  1.0067  0.3931
 1096TIP3    H124703   3.488   0.057   3.104  0.9403  0.5923 -1.4806
 1096TIP3    H224704   3.606   0.145   3.069  1.2076  1.3260  1.1702
 1097TIP3   OH224705   6.179   2.504  14.232 -0.0559  0.2283 -0.7797
 1097TIP3    H124706   6.097   2.534  14.272 -0.8741 -2.7000 -0.1688
 1097TIP3    H224707   6.154   2.480  14.143  0.4317  0.6143 -1.0218
 1098TIP3   OH224708   3.508   3.912   3.876 -0.0495  0.0855  0.0704
 1098TIP3    H124709   3.461   3.896   3.958 -0.9056  0.2182 -0.3953
 1098TIP3    H224710   3.595   3.873   3.891  0.6995  2.4011  1.9761
 1099TIP3   OH224711   4.174   6.226   2.289  0.2875  0.4624 -0.1999
 1099TIP3    H124712   4.193   6.253   2.379 -4.6670 -1.9227  1.7782
 1099TIP3    H224713   4.250   6.175   2.262  1.7670  1.0237  2.7451
 1100TIP3   OH224714   0.764   1.448   6.341  0.5246 -0.0360  0.0622
 1100TIP3    H124715   0.732   1.506   6.272 -1.9746  0.9150  1.9216
 1100TIP3    H224716   0.795   1.370   6.294  0.3077  1.1942 -2.2117
 1101TIP3   OH224717   0.193   5.203  12.667 -0.4763 -0.1569 -0.2414
 1101TIP3    H124718   0.160   5.211  12.756  0.9049  0.2284  0.2576
 1101TIP3    H224719   0.116   5.212  12.611 -1.5842 -1.8632  0.9562
 1102TIP3   OH224720   3.014   2.299  14.573 -0.0216  0.4280  0.1749
 1102TIP3    H124721   3.092   2.262  14.614 -0.4214  0.9732  1.4692
 1102TIP3    H224722   2.947   2.232  14.586  0.3164 -0.1944 -1.2592
 1103TIP3   OH224723   4.512   0.651   3.719  0.0727  0.9703  0.6491
 1103TIP3    H124724   4.501   0.557   3.729  0.0168  0.8207 -0.7354
 1103TIP3    H224725   4.422   0.686   3.720  0.0299  0.8840  0.0300
 1104TIP3   OH224726   0.781   2.912   4.189 -0.2823 -0.3719 -0.3911
 1104TIP3    H124727   0.768   2.985   4.129 -0.5445 -1.0590 -1.1938
 1104TIP3    H224728   0.698   2.863   4.185 -0.3212 -0.3863  0.5781
 1105TIP3   OH224729   1.381   4.102  15.422  0.0445 -0.3759  0.0292
 1105TIP3    H124730   1.433   4.139  15.350  0.4228  2.0412  1.5172
 1105TIP3    H224731   1.404   4.009  15.421  3.1939  0.3363 -0.3933
 1106TIP3   OH224732   4.054   3.091  17.097  0.1364  0.4913 -0.4862
 1106TIP3    H124733   4.035   3.032  17.024 -2.6514 -0.5749  1.0195
 1106TIP3    H224734   4.061   3.178  17.057 -1.5120 -0.0529 -1.9854
 1107TIP3   OH224735   3.705   3.345  14.890 -0.2909  0.3092  0.2358
 1107TIP3    H124736   3.649   3.312  14.820 -0.8330  1.6251  0.0238
 1107TIP3    H224737   3.657   3.420  14.926  0.8465  0.8139  0.7512
 1108TIP3   OH224738   1.601   2.109   4.970 -0.3657 -0.4397 -0.6850
 1108TIP3    H124739   1.511   2.110   5.005 -0.6043 -1.4012 -1.2601
 1108TIP3    H224740   1.622   2.016   4.961 -0.2377 -0.2272 -2.8804
 1109TIP3   OH224741   6.488   2.302   3.557  0.2741  0.4432  0.0832
 1109TIP3    H124742   6.405   2.254   3.550 -0.2287  1.4202 -0.7774
 1109TIP3    H224743   6.475   2.362   3.631 -0.3969  1.7286 -1.0389
 1110TIP3   OH224744   5.184   1.826  11.577  0.4672 -0.4183  0.0163
 1110TIP3    H124745   5.241   1.897  11.606  0.2949  0.0089 -0.6722
 1110TIP3    H224746   5.232   1.783  11.506 -0.4940  0.6059 -1.2848
 1111TIP3   OH224747   2.991   4.254   4.513 -0.7753 -0.7793  0.4300
 1111TIP3    H124748   3.085   4.266   4.528 -0.9648 -1.2185  2.0390
 1111TIP3    H224749   2.967   4.327   4.456  0.5541 -0.7088 -0.0622
 1112TIP3   OH224750   1.241   5.414   4.198  0.2045 -0.3178  0.6260
 1112TIP3    H124751   1.180   5.369   4.140  1.0966 -1.1004  0.2803
 1112TIP3    H224752   1.323   5.418   4.149  0.5207  0.4460  1.2059
 1113TIP3   OH224753   0.069   0.037  14.590  0.4939 -0.2788  0.5261
 1113TIP3    H124754   0.110   0.122  14.606 -0.2543  0.0859  0.4975
 1113TIP3    H224755   0.080  -0.011  14.672 -0.5809  0.4650  1.1162
 1114TIP3   OH224756   3.751   2.061   1.540  0.6348  0.8208  0.4371
 1114TIP3    H124757   3.732   2.154   1.525 -0.3136  0.6836  0.7407
 1114TIP3    H224758   3.681   2.032   1.599  0.0039 -0.4555 -0.9097
 1115TIP3   OH224759   5.045   6.525   4.038  0.5651  0.1286 -0.2107
 1115TIP3    H124760   4.964   6.484   4.068  0.0910 -0.2751 -2.0218
 1115TIP3    H224761   5.111   6.493   4.099 -0.5430  0.0776  0.9895
 1116TIP3   OH224762   0.405   4.987   4.923 -0.2251  0.5792 -0.6400
 1116TIP3    H124763   0.339   4.946   4.866 -0.9552  0.0749  0.5536
 1116TIP3    H224764   0.444   5.055   4.868 -0.7821 -0.0203 -1.8119
 1117TIP3   OH224765   2.786   5.413  13.376 -0.0693  0.0363  0.4604
 1117TIP3    H124766   2.766   5.433  13.467  0.4953  0.8261  0.4150
 1117TIP3    H224767   2.821   5.324  13.378  0.0093  0.0779  1.0212
 1118TIP3   OH224768   4.828   6.263  12.771 -0.7068  0.1296  0.1448
 1118TIP3    H124769   4.767   6.330  12.740 -1.8357 -1.2842 -0.7332
 1118TIP3    H224770   4.910   6.282  12.725 -1.3237  0.2843 -0.9096
 1119TIP3   OH224771   1.948   6.655  16.450  0.1144 -0.5958 -0.0650
 1119TIP3    H124772   2.010   6.717  16.488 -0.6147  0.7747 -1.0468
 1119TIP3    H224773   1.976   6.570  16.482  3.0544 -0.1137 -1.1640
 1120TIP3   OH224774   4.322   0.190   1.336 -0.3124  0.1014  0.3652
 1120TIP3    H124775   4.405   0.144   1.327 -0.1714  0.5203 -0.5743
 1120TIP3    H224776   4.259   0.122   1.359  0.4122 -0.1050  1.7419
 1121TIP3   OH224777   5.894   2.041   4.948 -0.3402  0.2037  0.0878
 1121TIP3    H124778   5.982   2.053   4.911  0.0313  1.6587  1.3570
 1121TIP3    H224779   5.900   1.960   4.998 -1.1365 -2.3269 -3.7461
 1122TIP3   OH224780   5.391   5.262  11.958  0.2522 -0.4668  0.5743
 1122TIP3    H124781   5.412   5.170  11.943 -0.5153 -0.9283  2.3080
 1122TIP3    H224782   5.309   5.276  11.911  1.3515 -0.1516 -1.3091
 1123TIP3   OH224783   6.155   5.028  16.827 -0.0825 -0.4702  0.5751
 1123TIP3    H124784   6.226   4.965  16.835 -1.4191 -1.9458  1.0350
 1123TIP3    H224785   6.179   5.082  16.752  1.9096 -0.4137  1.2277
 1124TIP3   OH224786   5.961   6.362   0.474  0.1611 -0.3054 -0.1475
 1124TIP3    H124787   6.036   6.353   0.416 -1.2473 -0.8712 -1.9321
 1124TIP3    H224788   5.944   6.456   0.476  1.1134 -0.1410  0.5375
 1125TIP3   OH224789   4.978   1.572  13.854 -0.0536  0.7455 -0.2993
 1125TIP3    H124790   4.971   1.573  13.950  0.4186  1.2853 -0.2681
 1125TIP3    H224791   5.066   1.603  13.836  0.2924 -0.5371 -0.8761
 1126TIP3   OH224792   1.421   2.637   0.729  0.1083  0.3659 -0.1041
 1126TIP3    H124793   1.464   2.700   0.787  0.3129 -0.2174  0.3836
 1126TIP3    H224794   1.402   2.686   0.650  0.9480  0.8431 -0.0094
 1127TIP3   OH224795   4.715   0.560   4.271 -0.1830 -0.0018 -0.4135
 1127TIP3    H124796   4.741   0.540   4.362 -2.4908 -0.8247  0.0849
 1127TIP3    H224797   4.671   0.481   4.241 -2.7764  1.5917 -0.9642
 1128TIP3   OH224798   2.307   4.003  13.642 -0.3030 -0.0308  0.4893
 1128TIP3    H124799   2.264   3.939  13.585  1.3814 -0.5411 -0.2557
 1128TIP3    H224800   2.369   3.951  13.693 -0.9062  0.6153  1.8952
 1129TIP3   OH224801   1.886   5.200  11.750 -0.5142 -0.8432  0.3242
 1129TIP3    H124802   1.913   5.118  11.791  1.3704 -0.0053  0.8152
 1129TIP3    H224803   1.837   5.246  11.818  1.7007  0.0818  1.3367
 1130TIP3   OH224804   1.958   4.497   5.260  0.2286 -0.1794 -0.2896
 1130TIP3    H124805   2.016   4.434   5.219 -0.4605 -0.9242 -0.1320
 1130TIP3    H224806   1.959   4.573   5.201 -1.5981 -1.6403 -2.2720
 1131TIP3   OH224807   2.980   3.356  15.717 -0.0664 -0.1704  0.9372
 1131TIP3    H124808   2.894   3.398  15.717 -0.9739 -1.9768 -1.6650
 1131TIP3    H224809   2.976   3.291  15.648  3.1713 -0.8065  1.2585
 1132TIP3   OH224810   2.175   3.778  11.461  0.2180  0.0765 -0.9283
 1132TIP3    H124811   2.189   3.837  11.536 -2.0430  0.8394 -1.0832
 1132TIP3    H224812   2.173   3.690  11.500  0.4134  0.3521 -0.2923
 1133TIP3   OH224813   4.218   3.096   2.691  0.5182 -0.4170 -0.0213
 1133TIP3    H124814   4.241   3.167   2.750  0.7301 -0.5772  0.0896
 1133TIP3    H224815   4.196   3.023   2.748  0.5492 -0.5187 -0.1384
 1134TIP3   OH224816   5.124   3.328   5.005 -0.1463 -0.6998  0.2124
 1134TIP3    H124817   5.045   3.279   4.984 -1.3914  0.4272  2.1221
 1134TIP3    H224818   5.116   3.349   5.098  0.8504  2.1916 -0.2899
 1135TIP3   OH224819   2.454   1.444   2.555 -0.8158  0.3955 -0.3644
 1135TIP3    H124820   2.452   1.375   2.489  0.8649  0.5822 -0.6334
 1135TIP3    H224821   2.431   1.399   2.637 -1.1726 -0.1795 -0.7700
 1136TIP3   OH224822   1.651   5.225   4.365  0.1091  0.1688 -0.1939
 1136TIP3    H124823   1.563   5.191   4.381  0.0902  1.6838  3.5463
 1136TIP3    H224824   1.637   5.305   4.314 -0.3809 -1.4012 -2.5774
 1137TIP3   OH224825   3.723   1.313  13.236 -0.4483 -0.5002  0.4344
 1137TIP3    H124826   3.792   1.371  13.269 -1.3598 -1.3374  4.0051
 1137TIP3    H224827   3.749   1.294  13.146  1.3234  3.2033  0.0683
 1138TIP3   OH224828   6.105   0.712  12.851  0.1599  0.5564  0.2090
 1138TIP3    H124829   6.068   0.693  12.764 -0.7644  2.4952  0.1587
 1138TIP3    H224830   6.057   0.655  12.911  0.6768 -0.6640 -0.4907
 1139TIP3   OH224831   3.675   2.960  13.453 -0.3625 -0.2279 -0.1874
 1139TIP3    H124832   3.711   2.974  13.366 -0.9442 -1.2283 -0.5914
 1139TIP3    H224833   3.581   2.949  13.439 -0.6751  1.0839  0.7298
 1140TIP3   OH224834   4.767   0.017   2.871 -0.1627 -0.1958  0.3335
 1140TIP3    H124835   4.723  -0.055   2.825  0.8908 -0.3475 -0.4773
 1140TIP3    H224836   4.828  -0.026   2.931 -1.0533  0.0106  1.3813
 1141TIP3   OH224837   1.987   0.484   1.126 -0.1554 -0.3675  0.1660
 1141TIP3    H124838   2.021   0.437   1.203 -0.2690  2.4326  1.9993
 1141TIP3    H224839   2.004   0.576   1.145 -0.4092  0.4182 -3.1056
 1142TIP3   OH224840   3.066   5.992  13.581 -0.2691  0.2151  0.1974
 1142TIP3    H124841   3.002   6.056  13.551  2.0050  1.5451 -1.9520
 1142TIP3    H224842   3.057   5.918  13.520 -1.0487 -0.4286  1.0673
 1143TIP3   OH224843   0.052   2.962   4.870  0.1114  0.4216 -0.1662
 1143TIP3    H124844   0.059   3.056   4.886  0.5223  1.1224 -3.9470
 1143TIP3    H224845  -0.025   2.953   4.814  0.0729 -1.4928  0.1669
 1144TIP3   OH224846   2.521   0.389  11.435  0.2888  0.0661  0.1217
 1144TIP3    H124847   2.481   0.315  11.389 -0.8938  0.6124  0.2423
 1144TIP3    H224848   2.447   0.446  11.457  1.0017  0.5047  1.4471
 1145TIP3   OH224849   1.188   4.478  17.073 -0.3540 -0.0461  0.3621
 1145TIP3    H124850   1.237   4.396  17.069 -0.5616 -0.2938  2.3267
 1145TIP3    H224851   1.106   4.459  17.028 -0.4685 -0.9632  0.9608
 1146TIP3   OH224852   5.704   2.587   3.789  0.1897 -0.1744 -0.3548
 1146TIP3    H124853   5.720   2.592   3.883  0.7419  2.2842 -0.5417
 1146TIP3    H224854   5.698   2.494   3.770 -1.1104 -0.6707  2.3053
 1147TIP3   OH224855   5.294   1.081  13.194  0.2023 -0.1387  0.0627
 1147TIP3    H124856   5.237   1.012  13.160  1.0234 -0.7102 -0.1623
 1147TIP3    H224857   5.234   1.150  13.221 -0.8441 -2.1572  3.1266
 1148TIP3   OH224858   4.763   1.503  16.809  0.0853 -0.3616 -0.2160
 1148TIP3    H124859   4.847   1.509  16.855  0.5032  0.0364 -1.0278
 1148TIP3    H224860   4.752   1.589  16.769 -0.0306 -0.8765 -1.2973
 1149TIP3   OH224861   2.182   6.569  14.638  0.3141 -0.5867  0.3275
 1149TIP3    H124862   2.203   6.601  14.551 -1.0025 -0.5986 -0.0058
 1149TIP3    H224863   2.194   6.645  14.696 -0.5518 -0.1077 -0.1209
 1150TIP3   OH224864   2.056   0.346  14.621  0.4840 -0.8452  0.1111
 1150TIP3    H124865   2.138   0.382  14.585 -0.2359  0.7283 -0.0004
 1150TIP3    H224866   2.012   0.421  14.660 -1.2433 -1.5494 -0.4367
 1151TIP3   OH224867   3.371   5.311   0.376 -0.1389 -0.1747 -0.4373
 1151TIP3    H124868   3.438   5.289   0.312 -0.1581 -0.2644 -0.4261
 1151TIP3    H224869   3.419   5.321   0.459 -0.2662 -1.1614 -0.2398
 1152TIP3   OH224870   0.624   4.759   1.364  0.4201 -0.8319  0.1399
 1152TIP3    H124871   0.650   4.676   1.325  0.6054 -0.4238 -0.6102
 1152TIP3    H224872   0.671   4.825   1.314  1.0876 -0.3290  1.3956
 1153TIP3   OH224873   0.131   1.791  16.912  0.5235  0.2056 -0.2936
 1153TIP3    H124874   0.053   1.754  16.870  1.8856 -0.9554 -1.8586
 1153TIP3    H224875   0.150   1.870  16.861  0.3338  0.5333  0.1394
 1154TIP3   OH224876   3.214   1.743   1.498 -0.3582 -0.8396 -0.0948
 1154TIP3    H124877   3.126   1.780   1.496  0.8980  2.2759  0.2871
 1154TIP3    H224878   3.240   1.737   1.407 -0.0277  0.5527 -0.0906
 1155TIP3   OH224879   1.098   3.717   4.692 -0.3383  0.7000  0.2246
 1155TIP3    H124880   1.106   3.800   4.645  0.7366  0.3038 -0.3146
 1155TIP3    H224881   1.073   3.654   4.625  0.8888  0.1928  0.2219
 1156TIP3   OH224882   1.812   2.276  11.662  0.1706  0.1796 -0.1381
 1156TIP3    H124883   1.904   2.253  11.654 -0.0780  0.0745 -3.5810
 1156TIP3    H224884   1.810   2.371  11.650 -0.2267  0.1022 -0.6893
 1157TIP3   OH224885   5.200   4.165  16.121  0.6352 -0.0232  0.0851
 1157TIP3    H124886   5.260   4.190  16.051 -0.1880 -0.2164 -0.6923
 1157TIP3    H224887   5.156   4.246  16.146  0.2161 -0.1388 -0.2911
 1158TIP3   OH224888   0.802   5.435   3.968 -0.7569  0.0790 -0.8058
 1158TIP3    H124889   0.716   5.408   3.999  0.0808 -0.2490  1.3429
 1158TIP3    H224890   0.809   5.527   3.992  0.1227 -0.3232  0.5507
 1159TIP3   OH224891   0.745   1.176  16.043  0.1604 -0.0333 -0.3877
 1159TIP3    H124892   0.789   1.108  15.991  0.2540 -0.9349  0.8493
 1159TIP3    H224893   0.804   1.191  16.117 -0.3679  0.6452 -0.1059
 1160TIP3   OH224894   6.768   1.782   3.056  0.1295 -0.2187 -0.4789
 1160TIP3    H124895   6.809   1.802   2.972  0.1259  1.1264 -0.1683
 1160TIP3    H224896   6.732   1.865   3.086 -1.6745 -1.0955 -0.1098
 1161TIP3   OH224897   3.948   3.606  11.302 -0.1101 -0.1680 -0.5639
 1161TIP3    H124898   3.993   3.633  11.221  1.8264  0.1120  0.5684
 1161TIP3    H224899   3.957   3.681  11.360 -0.8442 -0.6486  0.1709
 1162TIP3   OH224900   5.825   0.333   4.976  1.0108  0.4803 -0.7009
 1162TIP3    H124901   5.794   0.398   5.039 -2.5178 -1.4631 -0.2976
 1162TIP3    H224902   5.878   0.273   5.028  0.9144  0.7587 -0.2755
 1163TIP3   OH224903   6.633   6.380   4.053  0.4582  0.4677 -0.1614
 1163TIP3    H124904   6.665   6.294   4.026 -0.0100  0.3484 -0.3341
 1163TIP3    H224905   6.669   6.440   3.988  0.1039  0.2995 -0.5125
 1164TIP3   OH224906   3.844   0.713  12.684 -0.2027 -0.0212  0.5243
 1164TIP3    H124907   3.807   0.712  12.595 -1.3314  2.4397  0.9101
 1164TIP3    H224908   3.884   0.627  12.694 -0.7093 -0.6254 -2.1023
 1165TIP3   OH224909   3.441   3.616   3.748 -0.4240  0.5302 -0.0341
 1165TIP3    H124910   3.367   3.584   3.697  0.1877 -0.2685 -0.4314
 1165TIP3    H224911   3.506   3.641   3.683 -0.0377  0.4754  0.3284
 1166TIP3   OH224912   6.776   5.452   2.760 -0.3141 -0.0594 -0.0374
 1166TIP3    H124913   6.697   5.485   2.716 -1.6550 -2.3668  0.5456
 1166TIP3    H224914   6.770   5.486   2.849 -1.5177 -1.5192  0.4655
 1167TIP3   OH224915   2.010   2.860  11.489 -0.2959  0.1425 -0.1766
 1167TIP3    H124916   2.002   2.834  11.398 -0.5333 -0.3279 -0.0251
 1167TIP3    H224917   2.104   2.851  11.508 -0.2587  0.1637 -0.3494
 1168TIP3   OH224918   0.422   2.796   1.801 -0.0831 -0.0799  0.1477
 1168TIP3    H124919   0.331   2.803   1.774 -0.4277  0.1987  1.3370
 1168TIP3    H224920   0.471   2.845   1.735 -0.6510 -1.2135 -1.1445
 1169TIP3   OH224921   6.187   4.155   0.867  0.0262  0.1107 -0.4412
 1169TIP3    H124922   6.193   4.126   0.958 -2.9313 -2.6945 -1.0609
 1169TIP3    H224923   6.113   4.216   0.866  0.2216  0.3404 -0.9270
 1170TIP3   OH224924   2.764   0.214  12.015  0.2633 -0.4698 -0.3220
 1170TIP3    H124925   2.832   0.250  11.958  0.5298  0.7996  0.7763
 1170TIP3    H224926   2.711   0.159  11.957  0.8364  0.3819 -1.6768
 1171TIP3   OH224927   3.412   1.519  13.557 -0.2213 -0.4891 -0.1043
 1171TIP3    H124928   3.454   1.508  13.472 -0.0389 -0.3724 -0.0306
 1171TIP3    H224929   3.370   1.435  13.575  0.9362 -0.9964  0.3442
 1172TIP3   OH224930   5.955   2.533   6.448 -0.2051 -0.7021 -0.1336
 1172TIP3    H124931   6.029   2.586   6.478 -1.4998  0.9050  0.2833
 1172TIP3    H224932   5.970   2.522   6.354  0.7584 -0.6890  0.0185
 1173TIP3   OH224933   2.515   5.752   2.967 -0.0443 -0.6411  0.0907
 1173TIP3    H124934   2.424   5.723   2.963  0.2269 -1.2852 -1.9229
 1173TIP3    H224935   2.547   5.719   3.051 -1.2076 -1.8081  0.0966
 1174TIP3   OH224936   1.388   5.564   0.758 -0.1545  0.5194  0.1790
 1174TIP3    H124937   1.296   5.570   0.731 -0.0281 -0.8339 -0.5715
 1174TIP3    H224938   1.384   5.533   0.849 -0.4466  0.6765  0.2200
 1175TIP3   OH224939   5.867   1.691  11.421 -0.2194  0.1069 -0.3517
 1175TIP3    H124940   5.880   1.602  11.454  1.3807  0.3312 -0.3174
 1175TIP3    H224941   5.901   1.688  11.331  1.4127  1.0959  0.2235
 1176TIP3   OH224942   6.113   0.661  13.186  0.0204 -0.0334  0.1326
 1176TIP3    H124943   6.192   0.715  13.176 -0.8908  1.5499  1.3364
 1176TIP3    H224944   6.130   0.585  13.130  0.9880  1.8675 -2.2933
 1177TIP3   OH224945   6.467   0.952  15.776  0.5512 -0.2785 -0.0967
 1177TIP3    H124946   6.428   0.901  15.848  1.4716 -0.1000  0.5308
 1177TIP3    H224947   6.537   0.897  15.742  0.2134 -0.2982 -0.7728
 1178TIP3   OH224948   3.640   0.378   4.741  0.3574 -0.2503 -0.1733
 1178TIP3    H124949   3.650   0.308   4.676 -0.9844 -0.0330 -0.6205
 1178TIP3    H224950   3.633   0.332   4.825  0.2970 -0.6150 -0.3788
 1179TIP3   OH224951   4.890   1.294  14.007  0.2417  0.0040 -0.0294
 1179TIP3    H124952   4.813   1.324  13.958 -1.5551 -0.1451  2.6022
 1179TIP3    H224953   4.918   1.371  14.057  0.7740 -0.4244  0.3378
 1180TIP3   OH224954   2.300   6.494   5.234  0.1564  0.1624 -0.0399
 1180TIP3    H124955   2.376   6.514   5.288  0.2192  0.0960 -0.1035
 1180TIP3    H224956   2.290   6.570   5.177 -0.9688  1.0100  1.2642
 1181TIP3   OH224957   4.157   0.117   0.379 -0.1905  0.2802 -0.1967
 1181TIP3    H124958   4.114   0.032   0.376 -0.0205  0.2140 -0.8018
 1181TIP3    H224959   4.249   0.097   0.396  0.0267  0.2806 -1.3223
 1182TIP3   OH224960   6.453   1.458   6.352 -0.2541  0.1913 -0.1571
 1182TIP3    H124961   6.408   1.374   6.348 -2.3069  1.1787  0.8655
 1182TIP3    H224962   6.400   1.516   6.298  2.7878  0.1706 -3.2773
 1183TIP3   OH224963   5.446   3.654  14.555  0.9429 -0.0168 -0.1827
 1183TIP3    H124964   5.401   3.696  14.628  2.9590  0.6088  0.7576
 1183TIP3    H224965   5.378   3.607  14.508 -0.4005 -0.3786  2.0618
 1184TIP3   OH224966   5.303   6.440  11.433 -0.0664  0.2700 -0.0789
 1184TIP3    H124967   5.240   6.490  11.484 -0.1884  1.4190 -1.3029
 1184TIP3    H224968   5.383   6.492  11.436  0.9482 -1.3243  1.7082
 1185TIP3   OH224969   6.437   1.843  14.652 -0.0126 -0.0770 -0.6433
 1185TIP3    H124970   6.352   1.805  14.674  0.3205 -0.6682 -0.3520
 1185TIP3    H224971   6.500   1.792  14.703  0.5158  0.3645 -0.8461
 1186TIP3   OH224972   5.739   3.628   3.646 -0.2233  0.0039  0.8711
 1186TIP3    H124973   5.675   3.678   3.597 -0.3990  0.1224  1.2268
 1186TIP3    H224974   5.823   3.647   3.602 -0.5172 -0.6789 -0.0112
 1187TIP3   OH224975   5.711   0.495  13.105  0.4939  0.2185 -0.2787
 1187TIP3    H124976   5.688   0.458  13.019  0.5834  0.7376 -0.5247
 1187TIP3    H224977   5.649   0.566  13.118  0.4180  0.0761  0.1329
 1188TIP3   OH224978   0.333   1.223   2.943 -1.0651 -0.0226  0.0413
 1188TIP3    H124979   0.389   1.188   2.874 -2.4094  0.8032 -1.5068
 1188TIP3    H224980   0.390   1.227   3.020  1.1315  1.1360 -1.5755
 1189TIP3   OH224981   0.137   6.604  14.733  0.1934 -0.3479  0.3657
 1189TIP3    H124982   0.189   6.572  14.659  0.5019 -2.9699  1.6809
 1189TIP3    H224983   0.054   6.557  14.726 -0.8244  1.4142  0.1709
 1190TIP3   OH224984   2.756   1.952   5.100 -0.2193 -0.1505  0.3067
 1190TIP3    H124985   2.809   1.874   5.082  2.3085  1.7821 -0.8653
 1190TIP3    H224986   2.807   2.025   5.065 -2.6752  2.0306  1.1034
 1191TIP3   OH224987   3.596   2.325  16.986  0.1993  0.0498 -0.0735
 1191TIP3    H124988   3.515   2.338  17.034  0.6295  1.1905  0.3803
 1191TIP3    H224989   3.649   2.402  17.008  0.0925  1.0031 -2.9905
 1192TIP3   OH224990   4.767   0.383  12.708 -0.1154  0.8582  0.0892
 1192TIP3    H124991   4.736   0.356  12.621 -0.8560  1.4776  0.1545
 1192TIP3    H224992   4.755   0.306  12.763 -0.0006  0.5841 -0.2675
 1193TIP3   OH224993   5.880   5.570   0.364 -0.3303  0.7569 -0.0012
 1193TIP3    H124994   5.933   5.505   0.410  0.9734  1.9430  0.2141
 1193TIP3    H224995   5.799   5.524   0.342  0.7720 -1.1024 -0.3219
 1194TIP3   OH224996   4.600   3.675   4.189  0.1201  0.4152  0.2685
 1194TIP3    H124997   4.591   3.633   4.274 -0.4513  0.5093  0.2508
 1194TIP3    H224998   4.679   3.635   4.151  0.6846  0.7563  1.0601
 1195TIP3   OH224999   6.597   6.112   2.671  0.3472 -0.3200 -0.4449
 1195TIP3    H125000   6.683   6.081   2.699  0.8275  0.3026 -1.2117
 1195TIP3    H225001   6.608   6.132   2.578 -1.0059 -1.5949 -0.9113
 1196TIP3   OH225002   3.361   1.282  16.012 -0.1885 -0.7742 -0.6252
 1196TIP3    H125003   3.356   1.187  16.016  1.5976 -0.8221  0.9667
 1196TIP3    H225004   3.401   1.301  15.927  2.2789 -1.6003  0.3089
 1197TIP3   OH225005   5.592   0.360   6.264  0.2653 -0.0516 -0.2476
 1197TIP3    H125006   5.609   0.454   6.260  0.0739 -0.0542 -1.2838
 1197TIP3    H225007   5.645   0.329   6.337  0.7646  0.7710 -0.2540
 1198TIP3   OH225008   3.931   1.361   5.346 -0.3285  0.1964 -0.0338
 1198TIP3    H125009   3.955   1.359   5.439  0.7809  1.0855 -0.2986
 1198TIP3    H225010   3.894   1.449   5.333 -0.7490 -0.0296 -0.3794
 1199TIP3   OH225011   4.151   2.780  12.247  0.1093  0.2492  0.0184
 1199TIP3    H125012   4.175   2.836  12.173 -1.1202 -0.1970 -0.7179
 1199TIP3    H225013   4.095   2.836  12.302  0.7491  0.4699  0.4658
 1200TIP3   OH225014   1.148   5.051   3.265 -0.1756  0.7727 -1.1454
 1200TIP3    H125015   1.067   5.093   3.294 -0.1871  1.7047 -2.4562
 1200TIP3    H225016   1.217   5.098   3.311 -0.4431 -1.6768  1.9539
 1201TIP3   OH225017   0.852   6.772  12.006 -0.2290 -0.4499  0.3400
 1201TIP3    H125018   0.908   6.804  12.077  0.2642  1.6457 -0.9504
 1201TIP3    H225019   0.768   6.816  12.021 -0.6157 -1.2718  0.5638
 1202TIP3   OH225020   3.782   4.008   5.662 -0.1499  0.5556 -0.8361
 1202TIP3    H125021   3.839   3.944   5.704  0.0332  0.5233 -1.1332
 1202TIP3    H225022   3.725   4.039   5.732 -0.4168 -0.1291 -0.7424
 1203TIP3   OH225023   3.552   0.864   5.241  0.0062  0.3086 -0.5324
 1203TIP3    H125024   3.530   0.932   5.304  0.3830  2.4167 -2.5749
 1203TIP3    H225025   3.526   0.901   5.156  1.0154 -1.7450 -1.7828
 1204TIP3   OH225026   1.990   4.015   2.720 -0.4924  0.2841  0.2240
 1204TIP3    H125027   2.013   3.975   2.803 -0.1498  0.5893  0.2764
 1204TIP3    H225028   1.997   4.109   2.736  1.6769  0.3080 -0.7615
 1205TIP3   OH225029   5.382   5.845  11.297 -0.3041  0.5444  0.3973
 1205TIP3    H125030   5.411   5.869  11.208  1.1346  1.3036  1.0423
 1205TIP3    H225031   5.291   5.872  11.300  0.1163  2.1367 -0.3050
 1206TIP3   OH225032   0.601   2.780  16.906  0.2717  0.2738  0.1619
 1206TIP3    H125033   0.558   2.843  16.964 -1.9404 -1.1184  0.1143
 1206TIP3    H225034   0.581   2.811  16.818  0.6797  0.4659  0.1352
 1207TIP3   OH225035   4.559   0.775   0.959 -0.5455 -0.2926 -0.3801
 1207TIP3    H125036   4.473   0.733   0.960 -1.4972  1.6224  0.6962
 1207TIP3    H225037   4.567   0.812   0.870 -1.5450  0.9346  0.0348
 1208TIP3   OH225038   6.052   5.387   6.636  0.6895 -0.4656  0.1198
 1208TIP3    H125039   5.961   5.390   6.607  0.7114 -2.4704 -0.2053
 1208TIP3    H225040   6.062   5.464   6.693 -0.7677  0.6346 -1.0650
 1209TIP3   OH225041   5.939   6.314   1.766  0.0975  0.0556 -0.2548
 1209TIP3    H125042   5.931   6.408   1.752  0.7300  0.4566  1.8804
 1209TIP3    H225043   6.026   6.302   1.805 -1.2483 -0.9913  2.5915
 1210TIP3   OH225044   3.503   0.766  11.589 -0.1896  0.2104  0.1127
 1210TIP3    H125045   3.517   0.824  11.663 -1.3782  1.4250 -0.5787
 1210TIP3    H225046   3.553   0.805  11.517  0.3747 -0.5588  0.0800
 1211TIP3   OH225047   3.095   2.503  15.728 -0.2302 -0.1978  0.0922
 1211TIP3    H125048   3.014   2.541  15.691 -0.0377  0.5076  0.3808
 1211TIP3    H225049   3.073   2.485  15.819 -0.2603 -0.6104  0.0029
 1212TIP3   OH225050   6.690   3.851   2.820 -0.6241  0.0723 -0.5173
 1212TIP3    H125051   6.700   3.764   2.782  2.5206 -0.0830  0.5109
 1212TIP3    H225052   6.647   3.835   2.904 -0.9413 -0.3622 -0.7576
 1213TIP3   OH225053   3.895   0.226   2.100  0.4152 -0.5906  0.3546
 1213TIP3    H125054   3.940   0.146   2.073  2.1203  0.5950 -0.3781
 1213TIP3    H225055   3.938   0.250   2.183  0.7862  0.2701 -0.0863
 1214TIP3   OH225056   5.247   1.346   2.271 -0.7273  0.0103 -0.4938
 1214TIP3    H125057   5.231   1.320   2.180  0.9301  1.5167 -1.2315
 1214TIP3    H225058   5.326   1.399   2.268 -0.0264 -0.8080  1.9926
 1215TIP3   OH225059   4.547   1.190   0.758 -0.4399 -0.0193  0.4284
 1215TIP3    H125060   4.638   1.167   0.780  0.3645  1.8517 -0.7959
 1215TIP3    H225061   4.547   1.197   0.663 -1.5473  1.3591  0.5255
 1216TIP3   OH225062   5.580   5.231   2.865 -0.2439  0.6076 -0.1449
 1216TIP3    H125063   5.496   5.268   2.890 -0.3154  1.7716 -2.0411
 1216TIP3    H225064   5.633   5.306   2.839  0.3859 -0.3604 -1.7745
 1217TIP3   OH225065   4.170   2.798   5.461  0.2753  0.9037  0.0600
 1217TIP3    H125066   4.191   2.711   5.427  0.3008  1.2276 -0.7898
 1217TIP3    H225067   4.119   2.781   5.540 -2.6208  0.0541 -1.8915
 1218TIP3   OH225068   3.952   0.813  11.427  0.1033  0.0764  0.2902
 1218TIP3    H125069   4.020   0.760  11.384 -0.2475 -0.7180  0.7073
 1218TIP3    H225070   3.981   0.820  11.517 -0.5933 -0.6398  0.5733
 1219TIP3   OH225071   6.774   4.089   2.685 -0.6894 -0.6284 -0.7575
 1219TIP3    H125072   6.707   4.154   2.707  0.2409  0.3533 -0.8407
 1219TIP3    H225073   6.738   4.006   2.717 -1.3884  0.0888  0.3178
 1220TIP3   OH225074   1.680   5.037   1.454  0.1001 -0.5321  0.0743
 1220TIP3    H125075   1.657   4.961   1.401 -1.3419 -0.4758  0.5886
 1220TIP3    H225076   1.596   5.081   1.470  0.8517  0.9197  0.1596
 1221TIP3   OH225077   3.796   3.483  13.332  0.9355  0.1125 -0.5144
 1221TIP3    H125078   3.879   3.452  13.369  0.4600  0.2889  0.7026
 1221TIP3    H225079   3.744   3.404  13.318 -0.0557  0.2616  2.0567
 1222TIP3   OH225080   3.177   1.747  13.764  0.4087 -0.3323  0.5044
 1222TIP3    H125081   3.265   1.751  13.729  0.7246 -1.8590  1.0902
 1222TIP3    H225082   3.183   1.787  13.851  0.5586 -0.5345  0.5875
 1223TIP3   OH225083   2.110   3.976   1.138 -0.2786 -0.1612 -0.0932
 1223TIP3    H125084   2.203   3.989   1.156 -0.2024  0.4420 -0.8761
 1223TIP3    H225085   2.070   4.062   1.156 -0.4688 -0.0483 -1.0344
 1224TIP3   OH225086   5.907   0.579   6.211  0.1802 -0.1373 -0.1148
 1224TIP3    H125087   5.816   0.603   6.193  0.4558 -0.6103 -2.3047
 1224TIP3    H225088   5.916   0.490   6.177  1.2766 -0.3698  0.7475
 1225TIP3   OH225089   5.582   0.409  12.868  0.8175 -0.0458 -0.8102
 1225TIP3    H125090   5.489   0.415  12.848  0.5337 -1.2217  0.1192
 1225TIP3    H225091   5.624   0.464  12.801 -0.6606  1.8945 -0.1871
 1226TIP3   OH225092   3.310   1.599  12.176 -0.2814  0.0649  0.4398
 1226TIP3    H125093   3.355   1.639  12.102  0.4907 -0.8384  0.4121
 1226TIP3    H225094   3.272   1.673  12.224 -0.7541  0.6525 -0.8222
 1227TIP3   OH225095   5.903   4.425  14.087  0.0015  0.0507 -0.0288
 1227TIP3    H125096   5.882   4.454  14.176  0.3052  0.3136 -0.0435
 1227TIP3    H225097   5.992   4.455  14.072 -0.1122  0.1687 -0.4929
 1228TIP3   OH225098   3.794   3.261  14.059  0.1673  0.2120 -0.3509
 1228TIP3    H125099   3.806   3.208  13.980 -0.9199  0.3357 -0.6067
 1228TIP3    H225100   3.879   3.258  14.103  0.1997 -1.5735 -0.4681
 1229TIP3   OH225101   0.990   1.989   4.355 -0.3105 -0.8349 -0.0679
 1229TIP3    H125102   1.024   2.035   4.278 -2.3406  1.2800  0.2134
 1229TIP3    H225103   1.005   2.050   4.427 -1.7470 -1.2060  0.5625
 1230TIP3   OH225104   5.953   5.823   1.899 -0.2243  0.3999 -0.6024
 1230TIP3    H125105   6.013   5.755   1.930  1.6972  2.6781  0.8399
 1230TIP3    H225106   5.877   5.817   1.958  0.0397 -0.3026 -0.3300
 1231TIP3   OH225107   4.285   3.411   3.113  0.5205 -0.2523  0.5635
 1231TIP3    H125108   4.254   3.363   3.190  0.4230 -1.9447 -0.5070
 1231TIP3    H225109   4.379   3.422   3.127  0.1844  1.1616  1.8272
 1232TIP3   OH225110   0.366   3.665   3.249 -0.0098 -0.3444 -0.0322
 1232TIP3    H125111   0.382   3.755   3.275 -1.0315 -0.0965 -0.2178
 1232TIP3    H225112   0.276   3.648   3.278  0.1115 -1.2425 -0.1653
 1233TIP3   OH225113   2.538   2.159   2.918 -0.2976  0.0737  0.0134
 1233TIP3    H125114   2.488   2.229   2.876  0.1453  0.4820  0.1640
 1233TIP3    H225115   2.629   2.180   2.899 -0.1893 -0.7550 -0.3892
 1234TIP3   OH225116   4.772   0.256   1.700 -0.8875 -0.2435 -0.6020
 1234TIP3    H125117   4.766   0.279   1.793 -1.2607  0.8608 -0.8877
 1234TIP3    H225118   4.790   0.162   1.699  0.9028  0.0562  0.6264
 1235TIP3   OH225119   3.617   3.974  14.721  0.1052  0.3006 -0.3027
 1235TIP3    H125120   3.683   4.038  14.696  0.6434 -0.3234 -0.5160
 1235TIP3    H225121   3.533   4.016  14.702  0.4727  0.5390 -1.4281
 1236TIP3   OH225122   5.593   5.361  17.230 -0.0309  0.4738 -0.2898
 1236TIP3    H125123   5.617   5.356  17.323  1.6423  0.1025 -0.7300
 1236TIP3    H225124   5.652   5.300  17.187 -1.8219 -0.4768 -1.4141
 1237TIP3   OH225125   6.632   3.998   5.181 -0.2834  0.0486  0.4070
 1237TIP3    H125126   6.687   3.922   5.165  0.1728  0.5703 -0.5664
 1237TIP3    H225127   6.670   4.067   5.127 -1.1512  0.7581  0.6806
 1238TIP3   OH225128   5.572   4.629   4.124  0.6602 -0.6254  0.2388
 1238TIP3    H125129   5.594   4.626   4.031 -0.2092 -0.1200  0.0133
 1238TIP3    H225130   5.477   4.634   4.126  0.5483 -2.5836  1.1979
 1239TIP3   OH225131   1.808   5.017   0.574  0.0887  0.1221  0.3818
 1239TIP3    H125132   1.774   4.981   0.655  1.2604  2.2956  1.8695
 1239TIP3    H225133   1.795   5.112   0.581 -0.6384  0.2947 -2.3603
 1240TIP3   OH225134   0.629   3.365  16.147 -0.0472 -0.4226  0.0028
 1240TIP3    H125135   0.628   3.306  16.222 -0.4925 -0.6342 -0.1662
 1240TIP3    H225136   0.581   3.443  16.176 -0.2611 -0.5240 -0.0754
 1241TIP3   OH225137   2.972   4.415   1.347 -0.2108 -0.2418 -0.1302
 1241TIP3    H125138   2.992   4.340   1.402 -0.5418 -0.5475 -0.4262
 1241TIP3    H225139   2.876   4.415   1.340 -0.1939  0.0224 -0.3848
 1242TIP3   OH225140   0.983   4.558  15.623  0.0207  0.3212  0.3687
 1242TIP3    H125141   0.941   4.498  15.562  0.5899 -0.8488  1.0999
 1242TIP3    H225142   0.986   4.641  15.577  1.0227 -0.6799 -1.4455
 1243TIP3   OH225143   1.829   1.598  16.691 -0.2634 -0.2472  0.1608
 1243TIP3    H125144   1.738   1.568  16.694 -0.8019  1.4410  1.4977
 1243TIP3    H225145   1.855   1.585  16.600 -1.7420 -1.0664 -0.1618
 1244TIP3   OH225146   0.280   5.397   1.324 -0.4905  0.0753  0.0028
 1244TIP3    H125147   0.336   5.327   1.289 -1.6354 -0.4306 -0.8601
 1244TIP3    H225148   0.285   5.466   1.258  0.4588  0.7164  0.7462
 1245TIP3   OH225149   3.551   1.758  15.630  0.1083 -0.0437  0.0930
 1245TIP3    H125150   3.618   1.808  15.678  1.2978 -0.8083 -0.7447
 1245TIP3    H225151   3.514   1.821  15.568  0.9483  0.0527 -0.3150
 1246TIP3   OH225152   2.337   4.989  11.341  0.4710 -0.1202 -0.0620
 1246TIP3    H125153   2.343   5.004  11.436 -1.2342 -1.4686  0.2658
 1246TIP3    H225154   2.304   5.072  11.306  1.1360  0.3949  0.4928
 1247TIP3   OH225155   3.040   6.384  12.013 -0.2427 -0.5010  0.1240
 1247TIP3    H125156   3.016   6.474  11.988  0.9382 -0.6468 -1.6685
 1247TIP3    H225157   3.053   6.339  11.930  1.1758 -1.7869  1.0187
 1248TIP3   OH225158   0.368   6.287  15.590 -0.5511  0.2057 -0.3277
 1248TIP3    H125159   0.441   6.345  15.569  0.4433  0.3225  3.0945
 1248TIP3    H225160   0.300   6.347  15.624 -1.0017 -0.2487 -0.4252
 1249TIP3   OH225161   5.159   3.949  11.755 -0.1758  0.8862 -0.1218
 1249TIP3    H125162   5.135   4.033  11.793 -0.1640  1.0738 -0.5315
 1249TIP3    H225163   5.075   3.908  11.732 -0.1418  1.1474 -0.7055
 1250TIP3   OH225164   3.301   1.046   1.063  0.3104 -0.5682  0.7497
 1250TIP3    H125165   3.284   1.135   1.092  1.3927  0.4369 -1.5749
 1250TIP3    H225166   3.361   1.010   1.129 -0.1398  0.3932  1.6994
 1251TIP3   OH225167   0.386   0.610  12.503 -0.1546 -0.9141  0.6724
 1251TIP3    H125168   0.372   0.698  12.468 -1.4667 -0.7397  1.6139
 1251TIP3    H225169   0.481   0.602  12.509 -0.0259  0.5055  0.7238
 1252TIP3   OH225170   4.331   5.599   3.996  0.9393  0.8268  0.1050
 1252TIP3    H125171   4.352   5.621   3.905  1.0612 -0.0399 -0.0785
 1252TIP3    H225172   4.416   5.598   4.040  1.0100  0.0337 -0.0418
 1253TIP3   OH225173   1.382   5.751  12.113 -0.2781 -0.8873  0.3896
 1253TIP3    H125174   1.400   5.708  12.197  0.1297 -0.5471  0.4811
 1253TIP3    H225175   1.310   5.701  12.075  0.0488 -1.5206  0.5940
 1254TIP3   OH225176   3.985   3.563   3.475 -0.0577  0.0878 -0.1214
 1254TIP3    H125177   4.012   3.640   3.425 -1.0572  0.0614 -0.7217
 1254TIP3    H225178   3.906   3.591   3.520 -1.7161 -1.2414 -2.1065
 1255TIP3   OH225179   3.309   2.387  14.660 -0.3229  0.0215 -0.1173
 1255TIP3    H125180   3.263   2.343  14.732 -1.5025  0.1289 -0.7818
 1255TIP3    H225181   3.381   2.328  14.638 -0.9831 -0.8621  0.0262
 1256TIP3   OH225182   2.053   3.321  13.638  0.2372  0.1499  0.5003
 1256TIP3    H125183   2.092   3.367  13.713  0.0208 -0.2909  0.8815
 1256TIP3    H225184   2.029   3.235  13.672  1.0585 -0.4206 -0.3373
 1257TIP3   OH225185   0.320   2.551  10.663  0.3337 -0.4666  0.0828
 1257TIP3    H125186   0.409   2.581  10.677 -0.2797  0.7936  1.4267
 1257TIP3    H225187   0.291   2.521  10.750 -1.1946  0.9308  0.0713
 1258TIP3   OH225188   2.229   3.112  11.382 -0.3845  0.1273  0.1113
 1258TIP3    H125189   2.153   3.131  11.437  0.0837 -0.3869  0.9510
 1258TIP3    H225190   2.292   3.071  11.442  0.9052  1.3655 -0.3677
 1259TIP3   OH225191   0.340   6.727  11.936  0.1814 -0.2670 -0.1452
 1259TIP3    H125192   0.373   6.664  12.000 -0.4727 -0.4303  0.0347
 1259TIP3    H225193   0.322   6.675  11.858 -0.6547 -0.3664  0.1047
 1260TIP3   OH225194   5.112   6.528  14.845 -0.2270 -0.4827 -1.2209
 1260TIP3    H125195   5.083   6.481  14.767 -1.9564  0.3558 -1.1047
 1260TIP3    H225196   5.120   6.461  14.913 -1.7907 -0.7501 -1.2961
 1261TIP3   OH225197   0.452   0.813   2.127 -0.8321 -0.6362  0.0241
 1261TIP3    H125198   0.402   0.895   2.129  1.6819  0.9432 -0.3830
 1261TIP3    H225199   0.429   0.774   2.042 -0.6506  0.5651 -0.5938
 1262TIP3   OH225200   4.303   2.827  14.404  0.5475  0.1953  0.3650
 1262TIP3    H125201   4.393   2.795  14.414  0.2891 -0.5667  0.2639
 1262TIP3    H225202   4.259   2.802  14.485 -0.2571 -1.7421 -0.6243
 1263TIP3   OH225203   0.887   1.162  14.223 -0.6316  0.2024  0.0094
 1263TIP3    H125204   0.857   1.089  14.168 -1.1653 -0.1904  0.8191
 1263TIP3    H225205   0.914   1.229  14.160  2.2823 -1.6255 -0.8187
 1264TIP3   OH225206   5.528   3.965   2.413  0.2506  0.7646 -0.2893
 1264TIP3    H125207   5.437   3.950   2.389  0.2765 -0.2405  0.2340
 1264TIP3    H225208   5.536   4.061   2.417 -0.6990  0.8641 -0.6015
 1265TIP3   OH225209   3.982   6.650   1.697 -0.2003 -0.3056 -0.4141
 1265TIP3    H125210   4.055   6.665   1.638 -0.3478 -0.3087 -0.5957
 1265TIP3    H225211   3.927   6.585   1.652 -0.9716  0.6404 -0.8468
 1266TIP3   OH225212   4.966   0.860  17.158  0.1888 -0.6221  0.2284
 1266TIP3    H125213   4.977   0.893  17.069  0.1146 -2.5395 -0.5206
 1266TIP3    H225214   4.875   0.879  17.180 -0.1565 -1.2673 -0.6028
 1267TIP3   OH225215   5.328   5.299  12.512  0.0342  0.7854  0.3180
 1267TIP3    H125216   5.311   5.376  12.458 -0.3101 -0.0430 -0.7784
 1267TIP3    H225217   5.312   5.328  12.602 -0.9575  1.7490 -0.1648
 1268TIP3   OH225218   4.445   0.693   4.192  0.2624  0.0416  0.0894
 1268TIP3    H125219   4.502   0.653   4.257  1.5016  1.8999  0.1765
 1268TIP3    H225220   4.356   0.679   4.226  0.7481 -1.2823  0.8437
 1269TIP3   OH225221   3.095   5.044  16.872  0.3851 -0.0079 -0.0990
 1269TIP3    H125222   3.102   5.077  16.961  0.3217  1.4468 -0.6190
 1269TIP3    H225223   3.030   4.973  16.877 -2.4074  2.4831  0.3603
 1270TIP3   OH225224   5.398   0.992  11.629  0.0612  0.7248 -0.5404
 1270TIP3    H125225   5.395   0.938  11.550  0.9016 -0.3281  0.1371
 1270TIP3    H225226   5.321   0.965  11.679  0.1828  0.5399 -0.4529
 1271TIP3   OH225227   1.131   2.031   2.031  0.8974  0.0506 -0.0823
 1271TIP3    H125228   1.136   2.126   2.023  0.3801 -0.0422 -1.6837
 1271TIP3    H225229   1.068   2.016   2.102  0.4315  0.8858 -0.3157
 1272TIP3   OH225230   1.062   5.309   0.155  0.2150 -0.2625 -0.0704
 1272TIP3    H125231   1.130   5.366   0.119 -0.2762  0.4009  0.0382
 1272TIP3    H225232   0.981   5.360   0.147 -0.5030 -1.5783 -1.4559
 1273TIP3   OH225233   1.791   6.561  16.945  0.4829  0.6217 -0.1204
 1273TIP3    H125234   1.782   6.482  16.998 -0.0234  0.2161 -0.8020
 1273TIP3    H225235   1.757   6.536  16.859  0.5852  1.4971 -0.4176
 1274TIP3   OH225236   1.407   5.485   3.611  0.2571  0.0306  0.2471
 1274TIP3    H125237   1.314   5.464   3.603 -0.1735  1.4560  1.4302
 1274TIP3    H225238   1.430   5.527   3.529  0.1934 -1.5237 -0.5860
 1275TIP3   OH225239   0.787   3.260  16.679 -0.1052 -0.8493 -0.1540
 1275TIP3    H125240   0.779   3.220  16.592  0.0959  1.2868 -1.1819
 1275TIP3    H225241   0.880   3.253  16.700  0.3356  1.1097 -1.3511
 1276TIP3   OH225242   4.520   6.378   2.197 -0.3514 -0.6545 -0.1484
 1276TIP3    H125243   4.581   6.433   2.148  1.6351 -1.2147  1.5951
 1276TIP3    H225244   4.444   6.433   2.212  1.2190  1.3538  0.7402
 1277TIP3   OH225245   2.331   3.648   4.211  0.6129 -0.6683  0.1069
 1277TIP3    H125246   2.276   3.642   4.289  1.3508 -1.4143  0.5770
 1277TIP3    H225247   2.270   3.651   4.138 -0.0616 -0.8188  0.6657
 1278TIP3   OH225248   0.614   0.956  16.408  0.2536  0.4031  0.2022
 1278TIP3    H125249   0.652   0.992  16.488 -0.6437  0.3974  0.6425
 1278TIP3    H225250   0.588   0.867  16.431 -0.3947  0.5418  0.0385
 1279TIP3   OH225251   4.604   4.284   5.823 -1.1843  0.0346 -0.5496
 1279TIP3    H125252   4.680   4.298   5.879 -1.1196  0.4429 -0.7437
 1279TIP3    H225253   4.593   4.189   5.822 -1.4770  0.0471  0.5503
 1280TIP3   OH225254   4.438   2.119  14.740 -0.3965  0.4375 -0.3194
 1280TIP3    H125255   4.386   2.194  14.769 -0.8636 -0.7754  2.1400
 1280TIP3    H225256   4.528   2.150  14.745 -0.5349  0.5953  1.4875
 1281TIP3   OH225257   3.355   5.294  15.416  0.0107 -0.3718  0.0895
 1281TIP3    H125258   3.408   5.363  15.376  0.6930  1.0055  3.1894
 1281TIP3    H225259   3.267   5.331  15.420  0.0689 -0.2607  0.3824
 1282TIP3   OH225260   2.773   4.897   5.060  0.3257 -0.4972 -0.1986
 1282TIP3    H125261   2.770   4.837   5.134  1.9687  0.8405  1.0030
 1282TIP3    H225262   2.706   4.963   5.080  0.4635 -0.3826 -0.1079
 1283TIP3   OH225263   2.850   6.776  13.099  0.4428  0.5250  0.2912
 1283TIP3    H125264   2.814   6.861  13.127  0.4455  1.3736 -2.1407
 1283TIP3    H225265   2.839   6.719  13.176 -1.5714  2.1216  1.2458
 1284TIP3   OH225266   5.768   5.460   5.349  0.2865  0.0181  0.3076
 1284TIP3    H125267   5.766   5.387   5.412  0.5343  0.0964  0.4043
 1284TIP3    H225268   5.840   5.439   5.290  0.1909  0.0540  0.1790
 1285TIP3   OH225269   4.334   5.035   0.306 -0.1010  0.0981 -0.7465
 1285TIP3    H125270   4.330   4.949   0.263  0.6886 -0.0343 -0.5644
 1285TIP3    H225271   4.246   5.072   0.295 -0.6007 -0.9557 -0.3737
 1286TIP3   OH225272   0.649   5.138   1.859 -0.1260 -0.2861 -0.0923
 1286TIP3    H125273   0.647   5.210   1.922 -1.0444  0.8114 -1.3485
 1286TIP3    H225274   0.727   5.154   1.805  0.7504 -1.3134  0.8316
 1287TIP3   OH225275   5.041   4.175  11.181  0.1680  0.1782 -0.4960
 1287TIP3    H125276   5.056   4.082  11.201 -1.6580  0.2278  1.3615
 1287TIP3    H225277   5.086   4.190  11.098  0.6151 -2.3373 -0.7461
 1288TIP3   OH225278   0.672   0.225  12.075  0.7033  0.1767 -0.1536
 1288TIP3    H125279   0.745   0.281  12.049  0.7023 -0.3615 -1.3495
 1288TIP3    H225280   0.680   0.219  12.170  0.2269  2.8636  0.1103
 1289TIP3   OH225281   6.178   3.391   3.210 -0.0438 -0.4859  0.4335
 1289TIP3    H125282   6.101   3.376   3.265  0.1482 -1.6283  0.3978
 1289TIP3    H225283   6.152   3.461   3.150 -1.1699 -1.0852  0.2122
 1290TIP3   OH225284   2.309   6.052   0.557 -0.5906 -0.5997 -0.0637
 1290TIP3    H125285   2.343   5.973   0.515  0.5385 -0.8225  1.2119
 1290TIP3    H225286   2.306   6.030   0.650  2.3700  1.7376  0.6838
 1291TIP3   OH225287   0.214   4.148  14.068  0.5253  0.0738  0.0560
 1291TIP3    H125288   0.124   4.136  14.035 -0.0799  2.2039  0.8509
 1291TIP3    H225289   0.204   4.152  14.163  1.2891  1.6020  0.0875
 1292TIP3   OH225290   2.292   2.876  11.990 -0.0047 -0.5562  0.1069
 1292TIP3    H125291   2.348   2.927  11.932 -2.0435 -1.7612 -3.1039
 1292TIP3    H225292   2.339   2.793  12.001  0.4271 -0.2981  0.2013
 1293TIP3   OH225293   4.321   3.172   5.441 -0.4578 -0.0278 -0.2156
 1293TIP3    H125294   4.322   3.268   5.448 -1.8506  0.1370 -1.9499
 1293TIP3    H225295   4.398   3.152   5.388 -0.6890  0.2027 -0.6388
 1294TIP3   OH225296   2.159   2.503   3.949 -0.3480  0.0204 -0.1251
 1294TIP3    H125297   2.088   2.567   3.938  0.0215  0.3997 -0.3256
 1294TIP3    H225298   2.114   2.420   3.965 -0.8332  0.5829  1.5938
 1295TIP3   OH225299   6.130   2.110  13.098  0.1500  0.0460 -0.4332
 1295TIP3    H125300   6.129   2.199  13.134  0.6217  0.7709 -2.1402
 1295TIP3    H225301   6.173   2.057  13.165 -0.3267  1.0679  0.6884
 1296TIP3   OH225302   0.426   2.594  12.601  0.4536 -0.0131  0.2784
 1296TIP3    H125303   0.481   2.664  12.637 -0.1297  0.5466  0.0889
 1296TIP3    H225304   0.478   2.514  12.613  0.8733  0.3690  1.0370
 1297TIP3   OH225305   2.850   2.990  16.549  0.7434  0.3919 -0.1719
 1297TIP3    H125306   2.846   3.003  16.454  0.8407 -1.1489 -0.4106
 1297TIP3    H225307   2.767   3.025  16.582  0.7935  1.1052 -0.8063
 1298TIP3   OH225308   0.704   4.514   1.251 -0.1700 -0.2288 -0.3007
 1298TIP3    H125309   0.726   4.423   1.271 -1.1927 -0.6436 -1.0157
 1298TIP3    H225310   0.756   4.535   1.173  1.4647  0.4008  0.9339
 1299TIP3   OH225311   2.135   2.745   2.966 -0.0060 -0.1866 -0.4142
 1299TIP3    H125312   2.116   2.759   3.059  1.1314 -0.5484 -0.1258
 1299TIP3    H225313   2.068   2.682   2.938 -3.5084  3.6052 -1.0859
 1300TIP3   OH225314   1.201   0.717  11.416  0.5850 -0.0173 -0.3595
 1300TIP3    H125315   1.189   0.642  11.357 -0.6948  0.5397 -0.8075
 1300TIP3    H225316   1.275   0.765  11.379 -0.6848  0.7446 -1.9695
 1301TIP3   OH225317   4.577   6.329   2.613  0.0089  0.5361 -0.6918
 1301TIP3    H125318   4.657   6.368   2.579  1.3743 -2.2832 -0.8194
 1301TIP3    H225319   4.593   6.319   2.707  0.1174 -0.7107 -0.8356
 1302TIP3   OH225320   6.656   3.495  12.488  0.4075  0.2034 -0.2663
 1302TIP3    H125321   6.606   3.422  12.524  3.4542 -2.3455 -0.9320
 1302TIP3    H225322   6.743   3.487  12.527  0.9446  3.2380 -0.7087
 1303TIP3   OH225323   6.679   2.040  12.655 -0.1648  0.3301  0.4461
 1303TIP3    H125324   6.711   2.047  12.745  0.3137 -0.0065  0.2981
 1303TIP3    H225325   6.610   1.974  12.660 -0.4656  0.6569  0.6559
 1304TIP3   OH225326   4.920   1.967  12.909 -0.8085  0.4977  0.2783
 1304TIP3    H125327   4.891   2.052  12.941  0.2476  1.3779 -1.0783
 1304TIP3    H225328   4.869   1.953  12.829 -0.9047 -0.1134  0.4431
 1305TIP3   OH225329   1.169   1.206   3.779  0.0044  0.1048  0.5985
 1305TIP3    H125330   1.179   1.123   3.732 -1.0765  0.5505 -0.4549
 1305TIP3    H225331   1.192   1.185   3.870 -0.5221 -1.4050  0.4036
 1306TIP3   OH225332   4.316   2.229  13.951 -0.4455 -0.0013 -0.0192
 1306TIP3    H125333   4.407   2.260  13.954 -0.6630  0.5847  0.4375
 1306TIP3    H225334   4.272   2.275  14.022 -1.2346  0.1153 -0.5793
 1307TIP3   OH225335   0.790   3.495   3.649 -0.2061 -0.3523 -0.5140
 1307TIP3    H125336   0.700   3.509   3.679  0.5202  0.1517  1.5215
 1307TIP3    H225337   0.816   3.580   3.613 -0.1354 -0.1463  0.0193
 1308TIP3   OH225338   4.177   0.788   4.325 -0.4852 -0.8781 -0.6213
 1308TIP3    H125339   4.216   0.875   4.327  0.0722 -1.1315 -0.3612
 1308TIP3    H225340   4.122   0.784   4.404  2.8691 -2.3079  1.7203
 1309TIP3   OH225341   1.968   0.532  12.984  0.0820  0.0362  0.0745
 1309TIP3    H125342   1.877   0.545  12.959  0.2498 -0.3394 -0.7423
 1309TIP3    H225343   2.018   0.585  12.923  0.5086 -1.1594 -0.6395
 1310TIP3   OH225344   2.674   0.653   6.224  0.0215 -0.7914 -0.5290
 1310TIP3    H125345   2.651   0.722   6.286  0.1707 -0.0490 -1.2935
 1310TIP3    H225346   2.621   0.578   6.250 -0.4413 -0.2587  0.0566
 1311TIP3   OH225347   3.404   2.811   5.252  0.0982 -0.1656 -0.2281
 1311TIP3    H125348   3.354   2.806   5.170  0.3233  3.5567 -0.7147
 1311TIP3    H225349   3.343   2.780   5.319 -0.8638 -1.1139 -1.5147
 1312TIP3   OH225350   2.261   1.327   0.101  0.1547 -0.1980  0.5143
 1312TIP3    H125351   2.199   1.257   0.081 -0.1936  0.2399  0.0638
 1312TIP3    H225352   2.234   1.401   0.046  0.7799  0.1545  0.6705
 1313TIP3   OH225353   2.885   3.503   3.171 -0.4273  0.0894  0.1462
 1313TIP3    H125354   2.981   3.502   3.172 -0.3807  2.3371  0.4689
 1313TIP3    H225355   2.860   3.490   3.262 -0.4358 -0.6673  0.0372
 1314TIP3   OH225356   1.916   0.469   0.037  0.3943 -0.1557 -0.0381
 1314TIP3    H125357   1.983   0.413  -0.001  0.8335  1.2306 -1.3407
 1314TIP3    H225358   1.912   0.545  -0.021 -2.8718 -0.5841 -0.4658
 1315TIP3   OH225359   1.494   3.714  10.846 -0.0442 -0.6027 -0.1217
 1315TIP3    H125360   1.478   3.635  10.794 -0.1500  0.5649 -1.9111
 1315TIP3    H225361   1.429   3.709  10.917  0.2494 -2.3303  0.0456
 1316TIP3   OH225362   5.014   0.952  14.289  0.1294  0.2260 -0.2516
 1316TIP3    H125363   4.998   0.947  14.383 -1.2324  1.8649 -0.3867
 1316TIP3    H225364   5.064   1.033  14.277  2.0499 -0.9986 -0.7187
 1317TIP3   OH225365   5.894   6.727   2.934  0.1423 -0.0637  0.3815
 1317TIP3    H125366   5.828   6.718   3.002  0.4341 -0.0124  0.6755
 1317TIP3    H225367   5.949   6.649   2.943 -1.2054 -1.2517 -1.3275
 1318TIP3   OH225368   3.299   5.655  11.900 -0.4572 -0.5022  0.4086
 1318TIP3    H125369   3.329   5.568  11.874  0.4823 -0.5651  1.6545
 1318TIP3    H225370   3.253   5.640  11.983  2.7365  0.6096  2.4991
 1319TIP3   OH225371   1.368   0.225   0.986 -0.3974  0.4087  0.0573
 1319TIP3    H125372   1.309   0.243   0.913 -0.4856  1.3966  0.3540
 1319TIP3    H225373   1.431   0.163   0.952 -0.4189  0.8878 -0.8680
 1320TIP3   OH225374   0.716   5.651   3.356  0.2972  0.1696  0.1589
 1320TIP3    H125375   0.681   5.654   3.267  2.0185  0.2263 -0.5350
 1320TIP3    H225376   0.641   5.669   3.412 -0.6687  0.7932 -1.3155
 1321TIP3   OH225377   5.809   0.811  13.816  0.1874 -0.1962 -0.2932
 1321TIP3    H125378   5.797   0.766  13.900  1.0769  1.4561  0.7665
 1321TIP3    H225379   5.721   0.818  13.780 -0.3509  0.0074  1.0215
 1322TIP3   OH225380   2.810   0.199  15.095 -0.7199 -0.1451  0.4733
 1322TIP3    H125381   2.742   0.136  15.118 -1.5237  1.0609  1.4859
 1322TIP3    H225382   2.878   0.187  15.160 -0.6261 -0.3516  0.3364
 1323TIP3   OH225383   5.767   2.377  15.637 -0.3557  0.1328 -0.4530
 1323TIP3    H125384   5.827   2.409  15.569 -0.8161  0.1828 -0.8329
 1323TIP3    H225385   5.687   2.428  15.625  0.0493  1.1512  1.0238
 1324TIP3   OH225386   2.872   2.167   0.552 -0.2527  0.5996 -0.2249
 1324TIP3    H125387   2.864   2.255   0.515 -0.7416  0.1294 -1.2644
 1324TIP3    H225388   2.898   2.112   0.478 -0.7492 -0.2743  0.2339
 1325TIP3   OH225389   4.984   5.170  13.270  0.0746 -0.5038  0.1170
 1325TIP3    H125390   4.889   5.166  13.262 -0.0799  0.9871  0.9054
 1325TIP3    H225391   4.999   5.203  13.359  1.2614  1.1405 -0.6674
 1326TIP3   OH225392   2.858   6.685   5.403  0.0155 -0.2920 -0.1738
 1326TIP3    H125393   2.927   6.707   5.465  0.0531 -2.0246  0.4141
 1326TIP3    H225394   2.785   6.742   5.427  2.0447  3.5851 -2.5206
 1327TIP3   OH225395   3.351   4.126  11.293  0.0103 -0.1182  0.8396
 1327TIP3    H125396   3.280   4.165  11.344  0.5522  0.4962  1.1285
 1327TIP3    H225397   3.421   4.190  11.296  0.1367 -0.1688 -0.4913
 1328TIP3   OH225398   3.317   0.482   2.148 -0.3289  0.4360 -0.0496
 1328TIP3    H125399   3.378   0.556   2.142 -0.5092  0.4552 -2.0649
 1328TIP3    H225400   3.230   0.521   2.136 -0.4960  0.0185 -0.2143
 1329TIP3   OH225401   3.208   4.082   3.200 -0.0897 -0.2901  0.1473
 1329TIP3    H125402   3.134   4.138   3.177  0.3831 -0.0138 -0.6935
 1329TIP3    H225403   3.215   4.091   3.295  0.5172  1.7563 -0.0675
 1330TIP3   OH225404   0.336   1.782  15.610 -1.0806 -0.3142 -0.3881
 1330TIP3    H125405   0.378   1.860  15.575  0.0741 -1.3860 -1.4285
 1330TIP3    H225406   0.339   1.793  15.705 -0.8162  0.8431 -0.5290
 1331TIP3   OH225407   6.364   0.349   6.544 -0.3401  0.4946 -0.0378
 1331TIP3    H125408   6.430   0.362   6.477  2.5679  1.2829  2.8740
 1331TIP3    H225409   6.330   0.436   6.563  1.8579  0.8822  2.3947
 1332TIP3   OH225410   5.470   1.818   1.168 -0.0433  0.1113  0.3082
 1332TIP3    H125411   5.389   1.818   1.220  0.0481  2.7645  0.5409
 1332TIP3    H225412   5.534   1.860   1.225  0.5963  1.1757 -1.1637
 1333TIP3   OH225413   4.122   3.656   4.873 -0.3083  0.6060 -0.0349
 1333TIP3    H125414   4.103   3.657   4.780  0.9255 -0.7192 -0.3155
 1333TIP3    H225415   4.077   3.733   4.908 -1.4731  0.6293 -1.5749
 1334TIP3   OH225416   2.361   1.472   3.980  0.5186 -0.1926 -0.4272
 1334TIP3    H125417   2.422   1.471   3.907  0.8153 -2.3586 -0.2054
 1334TIP3    H225418   2.404   1.524   4.048 -0.3804  3.0640 -2.2503
 1335TIP3   OH225419   0.697   6.380   5.668 -0.6645 -0.0339  0.0529
 1335TIP3    H125420   0.673   6.463   5.708 -0.6636 -1.1861  2.5394
 1335TIP3    H225421   0.759   6.341   5.729 -0.4834 -1.7619 -1.1920
 1336TIP3   OH225422   0.789   6.273  10.497  0.7062 -0.2853 -0.1648
 1336TIP3    H125423   0.853   6.296  10.430  1.0051 -0.3813  0.0857
 1336TIP3    H225424   0.712   6.326  10.476  0.4596 -1.0292 -1.1452
 1337TIP3   OH225425   6.075   3.259   0.229 -0.5387  0.1465  0.0487
 1337TIP3    H125426   6.148   3.275   0.169  1.3894  0.0506  2.3232
 1337TIP3    H225427   6.025   3.190   0.187  1.5450 -0.8855 -0.8199
 1338TIP3   OH225428   3.441   5.058   5.572 -0.3412 -0.2897 -0.0086
 1338TIP3    H125429   3.381   5.018   5.510  0.6349  0.3884 -1.4257
 1338TIP3    H225430   3.389   5.126   5.615 -1.2656 -1.3330  0.5524
 1339TIP3   OH225431   2.001   2.082  12.339  0.1681 -0.1239 -0.2819
 1339TIP3    H125432   2.076   2.025  12.357  1.1540  1.6167  1.4187
 1339TIP3    H225433   1.926   2.034  12.373  0.8241 -0.8924  0.1180
 1340TIP3   OH225434   0.851   6.486  12.088  0.3830  0.5599  0.0677
 1340TIP3    H125435   0.777   6.528  12.132  2.2311  2.5370  1.4008
 1340TIP3    H225436   0.883   6.552  12.027  0.9642 -0.3293 -0.5971
 1341TIP3   OH225437   4.364   5.891  11.830 -0.0625 -0.3498 -0.1245
 1341TIP3    H125438   4.360   5.837  11.909  0.0082 -1.3596 -0.8100
 1341TIP3    H225439   4.449   5.872  11.791 -0.5062 -0.6020 -0.9795
 1342TIP3   OH225440   2.373   0.393   0.788  0.1028 -0.1807 -0.4102
 1342TIP3    H125441   2.319   0.470   0.805 -0.5339 -0.5166 -0.8795
 1342TIP3    H225442   2.312   0.319   0.797  0.3154 -0.5185 -1.7351
 1343TIP3   OH225443   0.473   2.510   5.990  0.0859  0.1252 -0.5183
 1343TIP3    H125444   0.485   2.501   5.896  3.5553 -0.3522 -0.1050
 1343TIP3    H225445   0.398   2.454   6.010 -2.5012  2.4464 -3.3378
 1344TIP3   OH225446   2.710   6.321  12.842 -0.0517 -0.9324  0.4423
 1344TIP3    H125447   2.636   6.262  12.831  0.3624 -1.2760 -0.6127
 1344TIP3    H225448   2.784   6.264  12.859  0.1651 -0.6562  0.4323
 1345TIP3   OH225449   4.618   4.446  13.644 -0.2288  0.1625 -0.0011
 1345TIP3    H125450   4.701   4.475  13.605 -0.3114  0.7066  0.2238
 1345TIP3    H225451   4.639   4.430  13.736 -0.6607  1.4990  0.3332
 1346TIP3   OH225452   0.476   4.510  16.258 -0.5359 -0.1702 -0.3642
 1346TIP3    H125453   0.520   4.591  16.285  0.3626 -0.6622 -0.3373
 1346TIP3    H225454   0.393   4.511  16.306  0.3433 -0.2474  1.1850
 1347TIP3   OH225455   2.745   5.395   4.010 -0.1729  0.2218 -0.3260
 1347TIP3    H125456   2.679   5.458   3.982 -0.5603 -0.0987 -0.1484
 1347TIP3    H225457   2.705   5.351   4.085 -0.3016 -0.8942 -1.0351
 1348TIP3   OH225458   4.958   6.130  11.817  0.1966  0.2156 -0.0304
 1348TIP3    H125459   4.899   6.069  11.860  0.3018 -0.6423 -1.0789
 1348TIP3    H225460   4.996   6.080  11.744  2.4077  0.6568  0.7607
 1349TIP3   OH225461   1.122   0.358   0.506  0.0044 -0.2243  0.5152
 1349TIP3    H125462   1.138   0.347   0.412 -2.2816  0.1779  0.0419
 1349TIP3    H225463   1.142   0.449   0.524 -0.5468 -0.0363  0.1874
 1350TIP3   OH225464   2.946   2.163  16.031 -0.4042 -0.5614  0.0941
 1350TIP3    H125465   2.981   2.107  15.962 -1.3323 -1.8789  0.6606
 1350TIP3    H225466   2.962   2.114  16.112 -0.2973  0.4622  0.7052
 1351TIP3   OH225467   1.653   1.966  11.223 -0.0706  0.6214  0.0114
 1351TIP3    H125468   1.658   2.028  11.296 -1.0765 -1.1155  1.5805
 1351TIP3    H225469   1.568   1.983  11.183 -0.4411  0.1136  0.5770
 1352TIP3   OH225470   4.690   4.460  15.061  0.1932 -0.2243 -0.3571
 1352TIP3    H125471   4.683   4.555  15.054 -1.7556 -0.3044  0.2379
 1352TIP3    H225472   4.784   4.443  15.062  0.5619  1.5854 -1.7637
 1353TIP3   OH225473   0.842   1.890  15.565  0.3406  0.1746 -0.0397
 1353TIP3    H125474   0.805   1.978  15.564  1.5450  0.6957 -0.3299
 1353TIP3    H225475   0.917   1.897  15.624  0.8733 -0.4629 -0.6287
 1354TIP3   OH225476   6.173   4.008  11.967 -0.4144 -0.0725 -0.3899
 1354TIP3    H125477   6.114   3.986  12.039 -0.8469 -0.1233 -0.7529
 1354TIP3    H225478   6.234   4.072  12.004 -0.3319 -0.4657  0.1544
 1355TIP3   OH225479   4.912   3.407   1.928  0.2908  0.4177  0.1368
 1355TIP3    H125480   4.830   3.440   1.966 -0.0746  1.0851 -1.1986
 1355TIP3    H225481   4.915   3.315   1.954 -1.1471  0.2511 -0.2408
 1356TIP3   OH225482   6.560   6.665  16.569  0.0266  0.8653 -0.1098
 1356TIP3    H125483   6.609   6.746  16.579  0.0563  1.3064 -3.4325
 1356TIP3    H225484   6.615   6.609  16.514 -1.1179 -0.4385  0.0292
 1357TIP3   OH225485   2.098   0.995  15.624  0.1416  0.1066  0.1972
 1357TIP3    H125486   2.098   0.903  15.650 -1.6092  0.3422  1.1012
 1357TIP3    H225487   2.081   1.043  15.705  0.1859  1.1878 -0.4206
 1358TIP3   OH225488   6.168   0.403   0.182  0.1564 -0.0495  0.3976
 1358TIP3    H125489   6.247   0.441   0.221  1.3322 -0.5678 -1.3867
 1358TIP3    H225490   6.191   0.391   0.090 -1.3062 -2.1368  0.2780
 1359TIP3   OH225491   2.121   6.365  17.168 -0.0785  0.0150 -0.1353
 1359TIP3    H125492   2.099   6.437  17.227 -2.7223 -0.6413 -0.2602
 1359TIP3    H225493   2.072   6.383  17.088  1.4924 -0.4458 -1.2262
 1360TIP3   OH225494   1.923   5.670   1.203  0.1682 -0.1665  0.7137
 1360TIP3    H125495   1.914   5.577   1.222 -0.1455 -0.1805  0.5046
 1360TIP3    H225496   2.014   5.691   1.223  0.0410 -0.3533  1.4730
 1361TIP3   OH225497   5.018   5.914   0.910 -0.3001 -0.2437 -0.3139
 1361TIP3    H125498   4.957   5.923   0.837 -3.8519  0.4921  2.5900
 1361TIP3    H225499   4.973   5.856   0.971  2.1173 -0.0202  1.7381
 1362TIP3   OH225500   6.541   2.476  14.032 -0.4105 -0.3568  0.6756
 1362TIP3    H125501   6.601   2.538  13.990  0.3298 -1.6606 -0.2216
 1362TIP3    H225502   6.577   2.463  14.119  0.8467 -1.4077  0.0196
 1363TIP3   OH225503   2.346   0.210  12.546  0.1063 -0.2993  0.1995
 1363TIP3    H125504   2.331   0.250  12.631  0.9936  0.7324 -0.1156
 1363TIP3    H225505   2.295   0.264  12.485  2.0245  0.9352 -0.3513
 1364TIP3   OH225506   0.329   5.631   5.364 -0.2487  0.0714 -0.0335
 1364TIP3    H125507   0.379   5.654   5.442 -1.5754  1.1359  0.5160
 1364TIP3    H225508   0.262   5.699   5.358 -0.0553  0.1089 -2.2029
 1365TIP3   OH225509   4.757   3.369  15.556 -0.2843  1.0283 -0.5118
 1365TIP3    H125510   4.771   3.460  15.531  0.0690  0.8455 -0.9960
 1365TIP3    H225511   4.712   3.330  15.481 -1.0355  0.9618 -0.0394
 1366TIP3   OH225512   0.807   0.116   2.513  0.0107  0.6112 -0.6460
 1366TIP3    H125513   0.868   0.132   2.585  0.6987 -1.5248 -0.7058
 1366TIP3    H225514   0.862   0.101   2.437 -0.5422 -1.6320 -0.6395
 1367TIP3   OH225515   5.848   4.086   0.618 -0.9272 -0.2439 -0.1932
 1367TIP3    H125516   5.928   4.048   0.581 -0.4190  0.5898  0.0190
 1367TIP3    H225517   5.803   4.013   0.660  2.5651  0.2182  4.7522
 1368TIP3   OH225518   3.857   4.475   2.851 -0.2351 -0.1084  0.0831
 1368TIP3    H125519   3.892   4.550   2.804  0.7904 -0.2930  0.5342
 1368TIP3    H225520   3.811   4.513   2.926 -0.8520  0.1301 -0.4170
 1369TIP3   OH225521   3.657   2.792   2.190  0.5106 -0.1175  0.2638
 1369TIP3    H125522   3.725   2.781   2.124  2.0736  0.7189  1.6955
 1369TIP3    H225523   3.604   2.865   2.158  3.1024  2.3535  1.3770
 1370TIP3   OH225524   4.766   2.098   6.534  0.2234 -0.4503 -0.4508
 1370TIP3    H125525   4.754   2.003   6.526  3.8716 -0.9476 -0.9212
 1370TIP3    H225526   4.711   2.135   6.465 -3.0774 -2.0278  1.2387
 1371TIP3   OH225527   5.403   1.366   2.514 -0.0452 -0.2534 -0.2346
 1371TIP3    H125528   5.322   1.394   2.471 -0.0713  1.1228  0.6712
 1371TIP3    H225529   5.473   1.395   2.455 -0.1615 -0.2651 -0.3778
 1372TIP3   OH225530   4.476   2.853   5.647  0.3067  0.7505 -0.1677
 1372TIP3    H125531   4.533   2.823   5.718  2.1847  0.3655 -1.7930
 1372TIP3    H225532   4.458   2.775   5.595 -2.4261  0.7091  0.7818
 1373TIP3   OH225533   1.977   3.434   9.974 -0.2298 -0.1396  0.2266
 1373TIP3    H125534   1.998   3.345  10.000 -2.2638 -0.7125  0.0136
 1373TIP3    H225535   1.882   3.433   9.960 -0.2186  1.9531 -0.1611
 1374TIP3   OH225536   6.445   3.228  16.563  0.4078  0.6774  0.1648
 1374TIP3    H125537   6.502   3.304  16.565  0.0870  0.8891  2.7939
 1374TIP3    H225538   6.396   3.232  16.645 -0.1445 -1.9593  0.0220
 1375TIP3   OH225539   0.803   4.729   0.406 -0.2785  0.3605  0.5276
 1375TIP3    H125540   0.741   4.726   0.333 -2.0117  1.5446  1.8912
 1375TIP3    H225541   0.872   4.788   0.377 -1.1487  1.1179 -0.0104
 1376TIP3   OH225542   0.142   6.200   4.456 -0.3741  0.2987  0.0295
 1376TIP3    H125543   0.128   6.176   4.547  1.0442  1.4011  0.5506
 1376TIP3    H225544   0.104   6.127   4.406 -1.1114 -0.3305  1.4845
 1377TIP3   OH225545   6.530   0.487   1.660  0.0675 -0.0919  0.1573
 1377TIP3    H125546   6.435   0.478   1.647 -0.3806  2.2207  1.5171
 1377TIP3    H225547   6.552   0.570   1.619  0.9138  0.9147  2.5245
 1378TIP3   OH225548   1.588   6.595  12.469  0.2726  0.0530  0.5356
 1378TIP3    H125549   1.628   6.523  12.421 -1.0440 -1.1156  1.1270
 1378TIP3    H225550   1.600   6.671  12.413 -1.9782 -1.4211 -2.1314
 1379TIP3   OH225551   1.982   5.354  15.222  0.7722 -0.0551  0.2083
 1379TIP3    H125552   2.049   5.340  15.288  1.4829 -0.9069 -0.6777
 1379TIP3    H225553   1.903   5.312  15.258  1.0623 -0.2056  0.6689
 1380TIP3   OH225554   0.414   0.217   5.806 -0.0949  0.0416  0.3354
 1380TIP3    H125555   0.364   0.135   5.807 -0.7531  0.4327  2.4714
 1380TIP3    H225556   0.350   0.285   5.790  0.2334  0.2829  0.0249
 1381TIP3   OH225557   3.061   6.197  17.223 -0.0142 -0.4016  0.1930
 1381TIP3    H125558   3.123   6.269  17.225  1.1407 -1.3608 -0.2774
 1381TIP3    H225559   3.094   6.138  17.156 -0.0119 -2.1603  1.6796
 1382TIP3   OH225560   2.254   1.957   4.936  0.0859 -0.1101  0.0182
 1382TIP3    H125561   2.348   1.962   4.949  0.2504 -0.3537 -1.0541
 1382TIP3    H225562   2.235   2.021   4.868 -0.3554 -0.8835 -0.5917
 1383TIP3   OH225563   4.445   3.338  10.841  0.4182 -0.0667 -0.1637
 1383TIP3    H125564   4.386   3.380  10.778  0.7747  2.4498  1.1246
 1383TIP3    H225565   4.390   3.321  10.918  0.1951 -2.3679 -0.7719
 1384TIP3   OH225566   2.654   2.444  16.875 -0.1783 -0.1158 -0.1805
 1384TIP3    H125567   2.638   2.537  16.893  0.7454 -0.1433  0.8011
 1384TIP3    H225568   2.612   2.398  16.947 -0.0368 -0.4293 -0.2998
 1385TIP3   OH225569   0.122   0.864  12.640  0.0785  0.0528  0.1015
 1385TIP3    H125570   0.047   0.860  12.581  0.7020 -0.6102 -0.6485
 1385TIP3    H225571   0.166   0.946  12.617  0.3716 -0.2467 -0.4380
 1386TIP3   OH225572   2.822   0.326   1.734  0.2486  0.0165  0.4049
 1386TIP3    H125573   2.728   0.337   1.749 -0.6784 -2.1392 -3.0606
 1386TIP3    H225574   2.853   0.414   1.713 -1.0994  0.6638  1.0650
 1387TIP3   OH225575   6.179   4.377  10.644  0.3135  0.2689 -0.3636
 1387TIP3    H125576   6.248   4.325  10.686 -0.3272 -1.3339 -1.2837
 1387TIP3    H225577   6.187   4.463  10.685  1.4462 -0.5132  1.1200
 1388TIP3   OH225578   3.773   6.092   5.868 -0.1385  0.7514 -0.4177
 1388TIP3    H125579   3.835   6.022   5.845  0.4015  1.4753 -1.1847
 1388TIP3    H225580   3.824   6.173   5.862 -0.7301  1.2169  0.5699
 1389TIP3   OH225581   6.559   0.584   1.181 -0.4235 -0.1763 -0.2693
 1389TIP3    H125582   6.468   0.609   1.198 -0.3688 -0.3446  0.2566
 1389TIP3    H225583   6.563   0.491   1.203 -0.5657 -0.6178 -1.9928
 1390TIP3   OH225584   2.334   6.173  11.334  0.4673 -0.5264  0.3306
 1390TIP3    H125585   2.405   6.237  11.323  0.0010  0.2274  1.6121
 1390TIP3    H225586   2.271   6.217  11.391 -0.8718 -1.3315 -0.5078
 1391TIP3   OH225587   0.379   1.978  12.327  0.4173  0.0344 -0.2419
 1391TIP3    H125588   0.351   1.962  12.237 -0.4407 -2.3574  0.4293
 1391TIP3    H225589   0.298   1.986  12.377  0.8728 -1.5093  0.7907
 1392TIP3   OH225590   0.910   3.232  16.226 -0.0453  0.2223 -0.4376
 1392TIP3    H125591   0.874   3.172  16.291 -0.2820  0.3661 -0.4359
 1392TIP3    H225592   0.874   3.318  16.251 -0.3028  0.2443 -0.8817
 1393TIP3   OH225593   6.117   1.886   2.120  0.2908 -0.2660  0.2351
 1393TIP3    H125594   6.085   1.799   2.144 -2.4980  1.0005  1.3378
 1393TIP3    H225595   6.089   1.898   2.030 -0.5323 -0.0054  0.5167
 1394TIP3   OH225596   1.201   4.731  13.540  0.5178  0.2202 -0.0583
 1394TIP3    H125597   1.189   4.642  13.507 -0.5087  0.7578 -1.1489
 1394TIP3    H225598   1.235   4.719  13.629 -0.4745 -1.2736  0.1331
 1395TIP3   OH225599   0.847   3.801  16.088  0.6123  0.1805  0.5184
 1395TIP3    H125600   0.823   3.890  16.115 -2.8093 -0.3117 -0.6198
 1395TIP3    H225601   0.804   3.745  16.153  0.6487 -0.7123 -0.2262
 1396TIP3   OH225602   3.489   6.234   1.653 -0.5998 -0.0930 -0.2795
 1396TIP3    H125603   3.578   6.219   1.622 -0.5676  1.4961 -0.9846
 1396TIP3    H225604   3.499   6.246   1.748 -0.2017 -0.9652 -0.2077
 1397TIP3   OH225605   2.285   4.688  16.607 -0.1625 -0.0034  0.1074
 1397TIP3    H125606   2.192   4.685  16.586 -0.4268  0.2502  1.2005
 1397TIP3    H225607   2.329   4.702  16.523 -1.1117 -0.1199 -0.4052
 1398TIP3   OH225608   3.249   0.637   0.157 -0.0612 -0.0015  0.1135
 1398TIP3    H125609   3.193   0.612   0.083 -0.8788  1.1235  0.3395
 1398TIP3    H225610   3.188   0.672   0.222  0.7477 -0.2295  0.9892
 1399TIP3   OH225611   4.906   4.829   5.659 -0.3126  0.1589 -0.0513
 1399TIP3    H125612   4.923   4.740   5.629 -1.1164 -0.5523  1.5647
 1399TIP3    H225613   4.844   4.819   5.730 -1.5425  2.1265 -0.7991
 1400TIP3   OH225614   1.673   3.375  13.187 -0.3422  0.0790  0.0768
 1400TIP3    H125615   1.591   3.418  13.162  0.5335  1.6464 -0.1549
 1400TIP3    H225616   1.741   3.426  13.143  0.7143 -1.8173 -0.5669
 1401TIP3   OH225617   1.749   0.401   2.865 -0.3408 -0.7814 -0.3597
 1401TIP3    H125618   1.658   0.386   2.889 -0.2090 -2.0460 -0.5928
 1401TIP3    H225619   1.751   0.490   2.831 -1.3044 -0.4188  0.5282
 1402TIP3   OH225620   4.733   6.147  15.236  0.1596 -0.2882  0.3234
 1402TIP3    H125621   4.695   6.128  15.151 -1.7479 -3.4252  1.7779
 1402TIP3    H225622   4.824   6.170  15.218  0.0760 -1.9727 -2.4813
 1403TIP3   OH225623   3.014   2.253   0.293 -0.2059  0.4233 -0.0262
 1403TIP3    H125624   3.051   2.313   0.359 -0.7078  1.1922 -0.4475
 1403TIP3    H225625   2.995   2.309   0.218  2.4934 -0.8073 -1.7049
 1404TIP3   OH225626   3.843   0.821  16.658 -0.0190  0.1262  0.4537
 1404TIP3    H125627   3.855   0.899  16.604 -1.0293 -0.2983 -0.4244
 1404TIP3    H225628   3.788   0.850  16.731  2.3926  0.9954  1.9778
 1405TIP3   OH225629   1.561   4.064   2.946 -0.2253  0.2021 -0.2285
 1405TIP3    H125630   1.538   3.991   3.002 -0.6276 -0.7617 -1.6179
 1405TIP3    H225631   1.610   4.123   3.002 -0.8560 -0.6099  1.1928
 1406TIP3   OH225632   4.567   6.550  14.277 -0.3003 -0.8233  0.2926
 1406TIP3    H125633   4.576   6.468  14.228 -1.5669 -0.8294  0.0730
 1406TIP3    H225634   4.624   6.612  14.232  0.1022 -1.3842  0.0314
 1407TIP3   OH225635   2.853   1.622  16.067  0.0453 -0.0249  0.2048
 1407TIP3    H125636   2.759   1.611  16.049 -0.0027 -0.3635  0.6601
 1407TIP3    H225637   2.860   1.615  16.162  0.5474 -0.0888  0.1598
 1408TIP3   OH225638   2.511   5.938   5.539  0.1020  0.2542  0.4768
 1408TIP3    H125639   2.468   5.958   5.455 -0.1022 -2.5717 -0.1478
 1408TIP3    H225640   2.603   5.959   5.524 -0.0410  0.3888 -0.2505
 1409TIP3   OH225641   2.407   3.567   0.972 -0.3299 -0.4601 -0.8010
 1409TIP3    H125642   2.496   3.592   0.995 -0.2704 -1.1217 -0.2805
 1409TIP3    H225643   2.353   3.599   1.044 -0.6566  0.8870 -1.6397
 1410TIP3   OH225644   4.445   1.317  14.120 -0.5415  0.1297  0.2508
 1410TIP3    H125645   4.364   1.321  14.068 -0.9242 -0.6852  0.7798
 1410TIP3    H225646   4.470   1.409  14.131  2.3475  0.3007 -5.7022
 1411TIP3   OH225647   5.898   1.516  15.367 -0.0945  0.0574  0.4416
 1411TIP3    H125648   5.965   1.486  15.428  1.1251  0.8791 -0.4785
 1411TIP3    H225649   5.947   1.551  15.293 -1.5474  0.4406 -0.3524
 1412TIP3   OH225650   5.807   0.598  15.833 -0.4017 -0.4239 -0.4791
 1412TIP3    H125651   5.846   0.685  15.843  1.2177 -1.2893  0.9488
 1412TIP3    H225652   5.727   0.613  15.782  1.8653  1.3907 -3.7123
 1413TIP3   OH225653   0.492   2.788   0.515 -0.1730 -0.3650  0.5679
 1413TIP3    H125654   0.535   2.704   0.498 -2.3540 -1.4947  0.4237
 1413TIP3    H225655   0.478   2.789   0.610  1.4541  0.6568  0.8097
 1414TIP3   OH225656   3.512   4.624  11.523 -0.6646 -0.8783 -0.4825
 1414TIP3    H125657   3.455   4.684  11.570 -0.4340 -1.8960  1.1559
 1414TIP3    H225658   3.489   4.537  11.557 -0.1724 -1.5940 -1.9291
 1415TIP3   OH225659   5.645   0.361   5.746  0.3430 -0.5729 -0.2043
 1415TIP3    H125660   5.621   0.440   5.697  1.0003  0.6265  1.3593
 1415TIP3    H225661   5.600   0.370   5.830  2.2516 -0.6726  0.8807
 1416TIP3   OH225662   0.400   3.200  12.657 -0.8178  0.3218  0.1538
 1416TIP3    H125663   0.465   3.133  12.637 -1.9815 -0.0971 -2.6009
 1416TIP3    H225664   0.316   3.153  12.658 -1.2101  1.0242  2.5656
 1417TIP3   OH225665   1.787   5.582  11.441 -0.3154 -0.1485  0.5554
 1417TIP3    H125666   1.728   5.627  11.381 -1.1886 -0.9419  0.8167
 1417TIP3    H225667   1.730   5.526  11.494  0.6221 -0.6383  1.0586
 1418TIP3   OH225668   0.126   0.123  11.112  0.3149  0.9360 -0.1828
 1418TIP3    H125669   0.211   0.079  11.105 -0.4429 -0.5494 -0.3844
 1418TIP3    H225670   0.142   0.212  11.082  1.6362  0.4490 -0.9552
 1419TIP3   OH225671   1.075   5.978  17.216 -0.1430  0.2979 -0.2931
 1419TIP3    H125672   1.019   5.916  17.169  2.8611 -2.1125 -0.8422
 1419TIP3    H225673   1.095   6.046  17.152 -1.9337  0.9049 -0.2452
 1420TIP3   OH225674   2.333   3.987   4.614  0.2572  0.4210 -0.2285
 1420TIP3    H125675   2.398   3.958   4.550 -1.2438 -1.7681 -0.8000
 1420TIP3    H225676   2.376   4.059   4.660  2.7243 -0.3457 -1.2365
 1421TIP3   OH225677   4.975   3.641   4.575  0.1550 -0.2117 -0.3160
 1421TIP3    H125678   4.917   3.666   4.646 -0.3642  0.6066 -1.0264
 1421TIP3    H225679   5.031   3.573   4.613 -0.0459  0.2909  0.9018
 1422TIP3   OH225680   1.377   3.606   1.172 -0.6555  0.0097  0.5351
 1422TIP3    H125681   1.380   3.676   1.237  0.0192 -0.4292  0.9897
 1422TIP3    H225682   1.287   3.607   1.139 -1.2850 -0.3984  2.1910
 1423TIP3   OH225683   2.578   3.804  16.338 -0.1794 -0.8651 -0.1690
 1423TIP3    H125684   2.671   3.825  16.328 -0.0363 -1.9107 -1.1361
 1423TIP3    H225685   2.573   3.748  16.415  0.1385 -1.6497 -0.7090
 1424TIP3   OH225686   0.530   3.559  14.496  0.2613 -0.7287 -0.0395
 1424TIP3    H125687   0.534   3.654  14.486  1.0889 -0.7169  0.3265
 1424TIP3    H225688   0.449   3.543  14.545  0.0803 -0.2262 -0.1751
 1425TIP3   OH225689   2.830   6.482   3.400 -0.2702 -0.0242  0.5938
 1425TIP3    H125690   2.907   6.436   3.435 -0.0096  0.0723  0.1495
 1425TIP3    H225691   2.782   6.415   3.352 -1.0534 -0.3471  1.8007
 1426TIP3   OH225692   2.122   4.100   5.432  0.2826  0.3040  0.0862
 1426TIP3    H125693   2.203   4.114   5.382 -0.3723  1.9278 -0.5546
 1426TIP3    H225694   2.101   4.185   5.469 -2.2387  0.4151 -1.4458
 1427TIP3   OH225695   0.321   4.519   2.380  0.6048 -0.1629 -0.0757
 1427TIP3    H125696   0.362   4.477   2.304 -1.9214 -0.9306 -1.0967
 1427TIP3    H225697   0.311   4.611   2.354  1.4749 -0.0154  0.0999
 1428TIP3   OH225698   0.890   2.224  14.295 -0.5350 -0.3116 -0.1183
 1428TIP3    H125699   0.895   2.133  14.325  1.4596 -0.1729  0.0248
 1428TIP3    H225700   0.800   2.251  14.315 -0.9383 -2.0217  0.4727
 1429TIP3   OH225701   2.382   2.815  10.906  0.4136  0.2924  0.1518
 1429TIP3    H125702   2.321   2.781  10.972  0.7191 -0.1611  0.1970
 1429TIP3    H225703   2.426   2.888  10.950 -0.6537  1.1361 -0.1349
 1430TIP3   OH225704   0.843   1.653  15.176 -0.0702  0.7897 -0.2177
 1430TIP3    H125705   0.876   1.718  15.238  2.6926 -0.9639  0.2827
 1430TIP3    H225706   0.865   1.688  15.090  3.3695 -0.3841  0.1149
 1431TIP3   OH225707   3.905   0.752  13.957 -0.3204  0.3921  0.5487
 1431TIP3    H125708   3.847   0.732  13.884 -0.4051  3.0402 -0.1683
 1431TIP3    H225709   3.991   0.719  13.929  0.0912  3.1059 -1.6804
 1432TIP3   OH225710   2.626   2.361   3.313 -0.3195 -0.1184 -0.4589
 1432TIP3    H125711   2.588   2.429   3.257  1.7923  1.7612  0.2880
 1432TIP3    H225712   2.668   2.301   3.252 -0.1078  0.5946 -1.0303
 1433TIP3   OH225713   3.871   3.103   1.376  0.5438  0.0475  0.0469
 1433TIP3    H125714   3.901   3.059   1.296  1.0673 -0.3377  0.4445
 1433TIP3    H225715   3.846   3.031   1.435  0.2558  0.3249  0.2643
 1434TIP3   OH225716   1.068   5.496   5.614 -0.2637  0.0553  0.2873
 1434TIP3    H125717   0.975   5.476   5.600 -0.3336  0.4202  0.2381
 1434TIP3    H225718   1.070   5.588   5.638  0.2006  0.4166 -1.0576
 1435TIP3   OH225719   5.261   5.669  11.681  0.3544  0.0840 -0.1395
 1435TIP3    H125720   5.256   5.765  11.681  1.3932  0.1446  0.1646
 1435TIP3    H225721   5.309   5.647  11.602  1.7174 -0.0795  0.7114
 1436TIP3   OH225722   2.523   4.464  11.481  0.0995  0.0588 -0.0209
 1436TIP3    H125723   2.560   4.509  11.405 -1.7135  2.4217  0.4602
 1436TIP3    H225724   2.585   4.482  11.552 -0.7838  2.1355  0.2489
 1437TIP3   OH225725   5.651   5.667   3.558  0.3625 -0.0820 -0.4026
 1437TIP3    H125726   5.683   5.632   3.641  0.9002  1.1953 -0.0653
 1437TIP3    H225727   5.722   5.650   3.496  0.1555 -0.6040 -0.5022
 1438TIP3   OH225728   3.515   0.884  13.850 -0.1699  0.0200 -0.0303
 1438TIP3    H125729   3.578   0.896  13.779  0.9816 -0.6239  0.8620
 1438TIP3    H225730   3.442   0.941  13.826  0.5863  0.5091 -1.2714
 1439TIP3   OH225731   0.308   3.364  12.867 -0.7063 -0.0918  0.0766
 1439TIP3    H125732   0.256   3.438  12.836 -3.0289 -1.9659 -0.6644
 1439TIP3    H225733   0.363   3.340  12.792 -1.1920 -0.1813 -0.2510
 1440TIP3   OH225734   0.991   5.231  15.838  0.5550  0.1679  0.0996
 1440TIP3    H125735   0.901   5.211  15.864 -0.1881  3.1109  0.0266
 1440TIP3    H225736   1.024   5.287  15.908  1.0167  2.1712 -1.6685
 1441TIP3   OH225737   3.385   3.414   5.065 -0.5006 -0.0107  0.0169
 1441TIP3    H125738   3.384   3.350   4.994 -0.0065  0.3538 -0.3277
 1441TIP3    H225739   3.478   3.431   5.079 -0.6528  1.3922 -0.5872
 1442TIP3   OH225740   4.187   0.482  11.192  0.0950  0.0645  0.5715
 1442TIP3    H125741   4.143   0.515  11.114  1.3804 -0.6984 -0.4865
 1442TIP3    H225742   4.277   0.466  11.164  0.5656 -0.2153  2.2097
 1443TIP3   OH225743   2.718   4.309   3.926 -0.2373  0.4242 -0.6319
 1443TIP3    H125744   2.663   4.237   3.897 -0.8542  1.7130 -2.7794
 1443TIP3    H225745   2.794   4.307   3.868  0.7605  0.2540  0.6428
 1444TIP3   OH225746   6.150   4.838   5.509  0.4771 -0.3359  0.2884
 1444TIP3    H125747   6.107   4.914   5.548  1.9478  0.4909  0.3594
 1444TIP3    H225748   6.087   4.804   5.446 -1.1402 -0.4966  1.9557
 1445TIP3   OH225749   4.574   3.689  15.224 -0.8016  0.0371 -0.2258
 1445TIP3    H125750   4.592   3.749  15.295 -3.5499  0.4528  0.1927
 1445TIP3    H225751   4.535   3.744  15.155  0.9566 -0.5054 -1.7054
 1446TIP3   OH225752   0.147   6.393  10.976  0.3285  0.0229 -0.0038
 1446TIP3    H125753   0.112   6.473  10.936 -0.2328 -0.0062  0.4237
 1446TIP3    H225754   0.118   6.323  10.918 -1.0150 -0.0842  0.7723
 1447TIP3   OH225755   1.809   4.021   3.469 -0.4374  0.0714  0.1590
 1447TIP3    H125756   1.758   4.086   3.420  0.5580  0.8507  0.1534
 1447TIP3    H225757   1.759   4.007   3.549 -0.6736  0.8217  0.1454
 1448TIP3   OH225758   1.059   0.672   4.862  0.5260  0.1696  0.5054
 1448TIP3    H125759   1.148   0.645   4.885  0.5463  0.2457  0.5149
 1448TIP3    H225760   1.062   0.768   4.861  1.1841  0.1607 -2.4540
 1449TIP3   OH225761   5.766   0.061  15.382  0.3013  0.7531 -0.5624
 1449TIP3    H125762   5.829  -0.009  15.398  2.3915  2.6089 -0.3532
 1449TIP3    H225763   5.750   0.058  15.288 -0.7644 -0.9437 -0.3282
 1450TIP3   OH225764   4.887   4.252  12.466 -0.5165  0.3160 -0.2407
 1450TIP3    H125765   4.833   4.258  12.544  1.3991  1.7986  1.0204
 1450TIP3    H225766   4.879   4.161  12.438  0.1116 -0.6633  2.6481
 1451TIP3   OH225767   3.618   3.220  12.114 -0.3419 -0.6711 -0.0851
 1451TIP3    H125768   3.702   3.186  12.083 -0.3614 -1.1033  0.3174
 1451TIP3    H225769   3.631   3.232  12.208 -0.0368  1.3613 -0.3828
 1452TIP3   OH225770   0.082   6.663   5.327 -0.0733 -0.1670  0.1361
 1452TIP3    H125771   0.131   6.589   5.362  0.8977  0.9968  1.2920
 1452TIP3    H225772   0.141   6.738   5.336 -2.0486  1.2830  1.6643
 1453TIP3   OH225773   5.122   2.001   3.778 -0.6303  0.4289  0.7498
 1453TIP3    H125774   5.070   2.064   3.727  0.2192  1.7394  1.4796
 1453TIP3    H225775   5.194   1.977   3.720 -0.0363  1.4076  1.0746
 1454TIP3   OH225776   3.410   4.600  17.122 -0.0499 -0.2527 -0.3398
 1454TIP3    H125777   3.420   4.564  17.034 -0.3118 -0.6991 -0.1868
 1454TIP3    H225778   3.401   4.695  17.109  0.5288 -0.2532 -0.7465
 1455TIP3   OH225779   6.617   0.121   5.775  0.0162  0.0432 -0.0530
 1455TIP3    H125780   6.649   0.205   5.741  1.0419 -0.6528 -0.8205
 1455TIP3    H225781   6.667   0.055   5.727 -1.3079 -1.0279  0.0293
 1456TIP3   OH225782   4.277   3.455  13.816 -0.1005 -0.6169  0.3546
 1456TIP3    H125783   4.189   3.443  13.851 -0.0190  0.6601  1.0126
 1456TIP3    H225784   4.273   3.539  13.770  0.7851 -0.5220  0.4481
 1457TIP3   OH225785   5.477   5.382   6.054  0.2197 -0.1450 -0.0722
 1457TIP3    H125786   5.413   5.427   6.109  1.7600  0.7050  1.0554
 1457TIP3    H225787   5.562   5.410   6.088  1.1996 -1.6423 -1.2217
 1458TIP3   OH225788   0.735   3.756  12.491 -0.1720 -0.3744  0.0219
 1458TIP3    H125789   0.802   3.698  12.454  0.6411  1.4422 -1.4304
 1458TIP3    H225790   0.653   3.708  12.479  0.3196 -0.6769 -2.3705
 1459TIP3   OH225791   0.735   5.495  15.459  0.1857  0.4638 -0.4787
 1459TIP3    H125792   0.730   5.430  15.529  0.7140  2.4848  1.5024
 1459TIP3    H225793   0.648   5.494  15.419 -0.4345 -0.0376  0.8548
 1460TIP3   OH225794   2.228   6.773  12.098 -0.0877  0.2492 -0.1969
 1460TIP3    H125795   2.218   6.723  12.018  0.1040  0.2950 -0.2473
 1460TIP3    H225796   2.301   6.732  12.144 -0.2193  0.2010 -0.0286
 1461TIP3   OH225797   5.944   5.942  14.065 -0.0167  0.1592  0.8179
 1461TIP3    H125798   5.861   5.932  14.018  0.1630 -0.8736  0.7150
 1461TIP3    H225799   6.007   5.965  13.997 -0.5837  2.9177  1.1643
 1462TIP3   OH225800   2.598   3.610   1.170 -0.3786 -0.5848 -0.9439
 1462TIP3    H125801   2.675   3.559   1.146  0.4757  0.2999 -0.1179
 1462TIP3    H225802   2.532   3.544   1.192  0.9363 -1.3574  0.7963
 1463TIP3   OH225803   4.987   4.169   2.877  0.1359  0.3001  0.2888
 1463TIP3    H125804   5.042   4.215   2.941  1.3326 -0.3904 -0.2217
 1463TIP3    H225805   5.035   4.176   2.795 -0.3862 -0.5854 -0.1023
 1464TIP3   OH225806   5.172   3.664   5.724 -0.2264  0.1708  0.2368
 1464TIP3    H125807   5.127   3.747   5.714 -0.2229  0.4022  1.9933
 1464TIP3    H225808   5.235   3.679   5.795 -0.4429 -1.4012  0.7841
 1465TIP3   OH225809   5.618   0.797   5.572 -1.0229 -0.0465  0.5913
 1465TIP3    H125810   5.585   0.763   5.655  0.3792 -2.3796  0.2246
 1465TIP3    H225811   5.702   0.837   5.594 -0.2852 -1.3556  0.1782
 1466TIP3   OH225812   6.133   1.045  13.207 -0.5372 -0.1876  0.2708
 1466TIP3    H125813   6.057   0.991  13.185  0.7231 -1.5757 -0.7503
 1466TIP3    H225814   6.180   1.055  13.124  0.0861  1.1866  0.7665
 1467TIP3   OH225815   3.831   0.109   2.366  0.1785  0.5774  0.2067
 1467TIP3    H125816   3.839   0.068   2.280 -1.4227 -0.2032  0.4217
 1467TIP3    H225817   3.900   0.175   2.367 -0.3928  1.2525 -2.0518
 1468TIP3   OH225818   6.084   2.182  14.418  0.2654 -0.2683  0.3359
 1468TIP3    H125819   6.021   2.201  14.348 -0.9592 -3.2445  0.5531
 1468TIP3    H225820   6.079   2.258  14.477 -1.1733  0.7176 -1.0155
 1469TIP3   OH225821   2.369   4.582   2.567 -0.9819  0.1943 -0.2474
 1469TIP3    H125822   2.437   4.567   2.503 -1.0511  0.6030 -0.4206
 1469TIP3    H225823   2.397   4.661   2.613 -1.4248  0.4644 -0.4386
 1470TIP3   OH225824   5.512   4.664  12.121  0.1907  0.0201 -0.1444
 1470TIP3    H125825   5.527   4.664  12.216  2.5414 -0.0589 -0.4842
 1470TIP3    H225826   5.419   4.684  12.111 -0.7125 -2.7146  2.2748
 1471TIP3   OH225827   6.460   2.219  13.990  0.0890 -0.5007 -0.0579
 1471TIP3    H125828   6.487   2.310  13.992 -1.3441 -0.0541  0.2231
 1471TIP3    H225829   6.509   2.178  14.061 -1.6363  0.8065  1.9868
 1472TIP3   OH225830   6.662   0.432   5.203  0.7340 -0.0033 -0.3867
 1472TIP3    H125831   6.709   0.505   5.243 -0.4949  0.2985  0.5359
 1472TIP3    H225832   6.714   0.355   5.225  1.6499  0.5042 -0.7426
 1473TIP3   OH225833   6.084   4.515   1.878  0.0504  0.0772 -0.0087
 1473TIP3    H125834   6.010   4.465   1.845  1.9509 -0.8023 -3.0604
 1473TIP3    H225835   6.097   4.584   1.813  0.4796  1.6629  1.7093
 1474TIP3   OH225836   2.369   0.080   4.342  0.2814 -0.2330  0.4580
 1474TIP3    H125837   2.455   0.040   4.355 -0.5241 -2.2155 -0.1181
 1474TIP3    H225838   2.363   0.093   4.247 -0.4673 -1.1177  0.3729
 1475TIP3   OH225839   1.898   5.908   4.573 -0.1460 -0.2787  0.1993
 1475TIP3    H125840   1.906   5.907   4.668  2.9676  1.0928  0.0119
 1475TIP3    H225841   1.891   6.001   4.550 -0.0547 -0.5456 -0.9649
 1476TIP3   OH225842   4.671   5.024   2.883 -0.1260 -0.5128  0.2529
 1476TIP3    H125843   4.598   5.035   2.823 -0.5962  0.2646  0.9646
 1476TIP3    H225844   4.710   5.111   2.890  0.1038 -0.6625  0.8571
 1477TIP3   OH225845   2.943   6.107   0.908  0.7342  0.1814 -0.5529
 1477TIP3    H125846   2.881   6.086   0.978  1.0963 -0.8526 -0.5239
 1477TIP3    H225847   2.982   6.190   0.935 -1.1423  1.2031 -0.9361
 1478TIP3   OH225848   4.081   5.237  15.534 -0.0442  0.2141  0.7802
 1478TIP3    H125849   4.029   5.202  15.461  0.0389  0.3896  0.6338
 1478TIP3    H225850   4.172   5.230  15.504 -0.0611  1.1177  0.4951
 1479TIP3   OH225851   2.461   1.810  10.818  0.3509  0.6992 -0.3683
 1479TIP3    H125852   2.369   1.795  10.838  0.3976 -0.0428 -0.7052
 1479TIP3    H225853   2.463   1.900  10.785 -0.5549  0.0990 -2.1604
 1480TIP3   OH225854   2.201   3.868   3.235  0.2568 -0.5571  0.1105
 1480TIP3    H125855   2.129   3.931   3.228  2.1012  1.3825 -2.6938
 1480TIP3    H225856   2.271   3.917   3.278  0.7527 -1.6094  0.5075
 1481TIP3   OH225857   3.977   1.082  13.219  0.4037 -0.2940  0.3146
 1481TIP3    H125858   4.057   1.067  13.168  0.0177 -0.8465 -0.1313
 1481TIP3    H225859   3.981   1.174  13.244  1.9415 -0.6890  1.5906
 1482TIP3   OH225860   6.162   4.424  15.274  0.0319  0.3434  0.2967
 1482TIP3    H125861   6.120   4.505  15.245 -1.9094 -0.4985  0.7080
 1482TIP3    H225862   6.149   4.362  15.203  0.2854 -0.0291  0.5707
 1483TIP3   OH225863   2.552   4.409  12.044  0.6245  0.1342  0.4332
 1483TIP3    H125864   2.545   4.315  12.058 -1.2030 -0.0760 -1.6057
 1483TIP3    H225865   2.645   4.423  12.025  0.9100 -1.2673  0.7581
 1484TIP3   OH225866   3.442   2.571   2.389  0.3633 -0.0183 -0.0676
 1484TIP3    H125867   3.451   2.523   2.471  2.1726 -1.0940 -0.8710
 1484TIP3    H225868   3.528   2.563   2.347  0.0545  2.1563 -1.1781
 1485TIP3   OH225869   6.231   1.294  11.956  0.0055 -0.2368 -0.6048
 1485TIP3    H125870   6.293   1.325  12.021  1.2727 -0.8424 -1.4949
 1485TIP3    H225871   6.177   1.370  11.936  0.3433  0.2516  0.3159
 1486TIP3   OH225872   0.021   4.628  16.943 -0.2446  0.7249  0.6140
 1486TIP3    H125873   0.063   4.691  17.002  0.5833  0.8966 -0.1476
 1486TIP3    H225874   0.091   4.567  16.918 -0.3607  1.1722 -0.8788
 1487TIP3   OH225875   1.795   1.636  14.217 -0.3881 -0.5530  0.0050
 1487TIP3    H125876   1.715   1.689  14.214  0.8795  1.4332 -0.0387
 1487TIP3    H225877   1.790   1.589  14.300 -1.5184 -0.3341  0.0721
 1488TIP3   OH225878   4.869   1.989   1.391 -0.4349 -0.6014 -0.4913
 1488TIP3    H125879   4.795   1.928   1.393 -0.7405 -0.2036  0.7993
 1488TIP3    H225880   4.892   2.002   1.483  0.1900  0.5562 -0.8019
 1489TIP3   OH225881   6.007   0.593  13.736  0.1887 -0.1815  0.0406
 1489TIP3    H125882   5.987   0.538  13.812  1.6254 -0.2867  0.3504
 1489TIP3    H225883   5.962   0.675  13.753 -0.2656 -0.5356  0.5559
 1490TIP3   OH225884   0.472   4.745  13.848 -0.1211  0.6162  0.2548
 1490TIP3    H125885   0.544   4.802  13.821  0.9630 -0.9852 -0.2650
 1490TIP3    H225886   0.492   4.721  13.938  0.2353 -0.2074 -0.0447
 1491TIP3   OH225887   0.610   5.292   6.520  0.7104  0.5860 -0.0477
 1491TIP3    H125888   0.631   5.293   6.427 -0.6135 -1.7543 -0.4412
 1491TIP3    H225889   0.524   5.248   6.524  0.7329  0.6843  2.2598
 1492TIP3   OH225890   5.881   4.457   0.022 -0.6381  0.2805  0.8671
 1492TIP3    H125891   5.826   4.379   0.033 -1.6836  0.8709 -0.1179
 1492TIP3    H225892   5.875   4.502   0.106  0.6311 -1.0904  1.7383
 1493TIP3   OH225893   3.795   6.144  12.337 -0.0369  0.2767 -0.2490
 1493TIP3    H125894   3.745   6.224  12.320 -0.1673 -0.0325 -1.3462
 1493TIP3    H225895   3.749   6.076  12.289  0.8780 -0.1995 -0.4681
 1494TIP3   OH225896   3.745   0.590  16.970 -0.3804 -0.4814 -0.4915
 1494TIP3    H125897   3.718   0.680  16.989 -0.2186  0.2181 -3.3768
 1494TIP3    H225898   3.718   0.575  16.880 -0.7093 -3.4844  0.0519
 1495TIP3   OH225899   4.808   1.304  12.035 -0.0337  0.7114 -0.3456
 1495TIP3    H125900   4.841   1.389  12.065  0.9365  0.8313 -1.6911
 1495TIP3    H225901   4.886   1.255  12.011 -0.6944  0.1094 -1.3020
 1496TIP3   OH225902   0.131   3.179   2.453 -0.1226  0.8030 -0.3212
 1496TIP3    H125903   0.067   3.144   2.391 -1.4299  0.0548  1.4215
 1496TIP3    H225904   0.086   3.252   2.495  0.2224  0.3940  0.7839
 1497TIP3   OH225905   3.058   5.321  13.662  0.4589  0.3507  0.0740
 1497TIP3    H125906   3.132   5.328  13.722 -0.3948  1.5426  1.0048
 1497TIP3    H225907   2.986   5.287  13.716 -0.1548  0.8676 -0.4172
 1498TIP3   OH225908   6.663   0.894   4.379 -0.6131  0.4363  0.4495
 1498TIP3    H125909   6.752   0.917   4.403 -0.7180  0.2103  1.0500
 1498TIP3    H225910   6.631   0.839   4.450 -1.8944  2.1085  1.2206
 1499TIP3   OH225911   5.076   3.873  15.688  0.0586 -0.1605 -0.1168
 1499TIP3    H125912   5.093   3.880  15.594  2.1329 -0.4167  0.2232
 1499TIP3    H225913   5.015   3.945  15.706 -0.1098  0.0913 -1.5975
 1500TIP3   OH225914   5.810   0.158  16.119  0.1057 -0.8376 -0.2551
 1500TIP3    H125915   5.799   0.223  16.050 -1.6239 -0.1950  0.6001
 1500TIP3    H225916   5.729   0.162  16.170 -1.0848 -5.2643 -1.5179
 1501TIP3   OH225917   0.820   3.397   5.533 -0.4215  0.1025  0.1960
 1501TIP3    H125918   0.789   3.318   5.578  0.0346  0.1726  0.6466
 1501TIP3    H225919   0.793   3.385   5.442  0.8520 -1.2275 -0.0322
 1502TIP3   OH225920   3.108   1.149  15.346 -0.6040  0.0779 -0.5468
 1502TIP3    H125921   3.117   1.217  15.280 -1.7168  2.2386  1.4571
 1502TIP3    H225922   3.162   1.179  15.419 -2.2780 -0.4189  0.9352
 1503TIP3   OH225923   4.356   5.147   3.220 -0.8760  0.1032  0.0791
 1503TIP3    H125924   4.354   5.116   3.310  0.7892  0.6377  0.3239
 1503TIP3    H225925   4.388   5.237   3.226  0.7162 -0.3585 -1.1529
 1504TIP3   OH225926   5.484   5.665  14.992 -0.2064 -0.1614  0.7210
 1504TIP3    H125927   5.496   5.605  15.065  0.8875  0.2731  0.9023
 1504TIP3    H225928   5.560   5.651  14.935 -1.6297 -1.3516 -0.9705
 1505TIP3   OH225929   1.907   4.532  14.520  0.3791 -0.2000 -0.2738
 1505TIP3    H125930   1.986   4.585  14.531 -1.0190  1.8450  0.1986
 1505TIP3    H225931   1.859   4.543  14.602 -0.6446 -0.9968 -0.7561
 1506TIP3   OH225932   1.202   4.939  13.849 -0.1148  0.3074 -0.2087
 1506TIP3    H125933   1.174   4.945  13.940  2.7941 -1.1499  0.8108
 1506TIP3    H225934   1.286   4.985  13.847  0.3585 -0.6161 -1.9367
 1507TIP3   OH225935   2.313   6.039  15.996 -0.4518 -0.2555  0.3233
 1507TIP3    H125936   2.256   6.114  15.975  1.5034  0.9827 -0.7227
 1507TIP3    H225937   2.295   5.976  15.926  0.1794  0.5622 -0.5991
 1508TIP3   OH225938   4.480   1.615   2.590 -0.2538 -0.1339 -0.2565
 1508TIP3    H125939   4.537   1.658   2.526 -1.5654  2.2366  0.1259
 1508TIP3    H225940   4.529   1.619   2.672  0.4267 -1.0961 -0.6025
 1509TIP3   OH225941   0.167   0.224   3.212 -0.0832 -0.1037 -0.3972
 1509TIP3    H125942   0.192   0.193   3.125  0.2046  1.6088 -0.9280
 1509TIP3    H225943   0.198   0.314   3.217 -1.3728  0.3061  0.9398
 1510TIP3   OH225944   0.899   1.617  13.463  1.0701 -0.3031  0.0426
 1510TIP3    H125945   0.971   1.654  13.412  1.1408  1.2698  1.2701
 1510TIP3    H225946   0.898   1.524  13.439 -0.0575  0.7200 -4.1656
 1511TIP3   OH225947   6.111   6.124   5.248 -0.2721  0.7154  0.2464
 1511TIP3    H125948   6.035   6.170   5.213 -0.6442  0.2019  0.3678
 1511TIP3    H225949   6.094   6.120   5.342 -0.4544 -0.0530  0.1817
 1512TIP3   OH225950   1.958   4.227  16.044  0.0864 -0.2187  0.2051
 1512TIP3    H125951   1.988   4.313  16.073  0.5497 -0.0926 -0.6143
 1512TIP3    H225952   2.034   4.169  16.057 -0.8503 -0.9507  2.6346
 1513TIP3   OH225953   4.372   5.013   3.743 -0.0213 -0.4153 -0.9145
 1513TIP3    H125954   4.345   5.080   3.806  0.5820 -0.8597 -0.1646
 1513TIP3    H225955   4.364   4.930   3.791  1.6878 -0.6514 -0.9743
 1514TIP3   OH225956   4.254   3.585   2.233 -0.1997  0.2387 -0.2157
 1514TIP3    H125957   4.332   3.577   2.288  0.0974  0.0676 -0.6604
 1514TIP3    H225958   4.283   3.635   2.157 -0.6781  0.7071 -0.0889
 1515TIP3   OH225959   2.398   1.177   1.242  0.3862  0.3538 -0.1822
 1515TIP3    H125960   2.436   1.115   1.180 -2.2163  0.9274 -2.4142
 1515TIP3    H225961   2.363   1.122   1.312  0.9419 -0.4533 -0.5263
 1516TIP3   OH225962   3.312   5.140  14.100 -0.2403  0.0599 -0.0434
 1516TIP3    H125963   3.377   5.169  14.164 -0.1369 -0.1239 -0.0658
 1516TIP3    H225964   3.228   5.171  14.136 -0.2570 -0.6278  0.5203
 1517TIP3   OH225965   4.693   3.732   4.689  0.4055 -0.5087  0.2447
 1517TIP3    H125966   4.697   3.800   4.757 -0.4026  1.0482 -1.2291
 1517TIP3    H225967   4.629   3.669   4.722  0.5806 -0.1562  1.2777
 1518TIP3   OH225968   3.989   5.732  12.914  0.4690 -0.5256 -0.4493
 1518TIP3    H125969   4.015   5.798  12.849 -2.1188 -1.5800 -2.6472
 1518TIP3    H225970   4.015   5.649  12.876 -3.4896 -1.3814 -1.4800
 1519TIP3   OH225971   1.205   5.882  12.305 -0.1936 -0.3213  0.0883
 1519TIP3    H125972   1.242   5.839  12.382 -1.6527  0.6454  1.3464
 1519TIP3    H225973   1.194   5.811  12.241  0.8502 -1.1576  0.8252
 1520TIP3   OH225974   6.236   5.409  14.826  0.0625  0.0725 -0.0480
 1520TIP3    H125975   6.161   5.449  14.872  0.9333  1.7597 -0.0708
 1520TIP3    H225976   6.240   5.454  14.742  1.0662 -0.0648 -0.0790
 1521TIP3   OH225977   5.813   5.508   1.803 -0.2288 -0.9387 -0.1419
 1521TIP3    H125978   5.893   5.515   1.855 -0.9894 -1.1291  1.0620
 1521TIP3    H225979   5.763   5.586   1.825 -0.1956 -0.5955 -1.2299
 1522TIP3   OH225980   1.680   1.624  14.767  0.1240  0.2743  0.8287
 1522TIP3    H125981   1.750   1.681  14.797 -0.3211  0.7519  0.9765
 1522TIP3    H225982   1.721   1.539  14.755  0.0527 -0.2818  4.0806
 1523TIP3   OH225983   1.566   1.551  15.973  0.0575  0.1233  0.3769
 1523TIP3    H125984   1.601   1.505  16.049 -0.5025 -0.9766 -0.0113
 1523TIP3    H225985   1.642   1.594  15.933  1.0085 -2.1778 -0.4306
 1524TIP3   OH225986   3.348   5.492   1.937  0.1552  0.3472  0.2089
 1524TIP3    H125987   3.269   5.535   1.903  0.3445  1.4760  1.1672
 1524TIP3    H225988   3.329   5.478   2.029  0.6396 -0.4133  0.1920
 1525TIP3   OH225989   4.315   2.324  16.039 -0.1882  0.7123  0.3918
 1525TIP3    H125990   4.333   2.404  15.990  0.1971  0.5776  0.3112
 1525TIP3    H225991   4.232   2.292  16.003  0.2820  0.4058 -0.4526
 1526TIP3   OH225992   4.918   3.173   4.119  0.0263 -0.3581 -0.0591
 1526TIP3    H125993   4.996   3.226   4.137 -0.7945  0.8447 -0.0318
 1526TIP3    H225994   4.920   3.159   4.024 -0.1545  0.3404 -0.1659
 1527TIP3   OH225995   6.210   5.094  14.381 -0.1432  0.8627  0.0388
 1527TIP3    H125996   6.258   5.115  14.300 -0.3347  1.7615  0.1538
 1527TIP3    H225997   6.172   5.008  14.364 -2.3582  2.1562 -1.8480
 1528TIP3   OH225998   3.508   1.510   5.304  0.2346 -0.0068  0.5499
 1528TIP3    H125999   3.506   1.556   5.388 -1.5279 -0.3619  0.7309
 1528TIP3    H226000   3.420   1.522   5.269  0.4670 -1.2603 -0.4773
 1529TIP3   OH226001   5.396   0.459  16.206  0.1032 -0.1903  0.7855
 1529TIP3    H126002   5.403   0.472  16.112 -0.4110  0.9859  0.9036
 1529TIP3    H226003   5.313   0.413  16.219 -0.1766  0.2995  0.7272
 1530TIP3   OH226004   0.385   6.267   4.924 -0.1206 -0.6408 -0.7771
 1530TIP3    H126005   0.336   6.326   4.866  0.8080 -0.1943 -1.1112
 1530TIP3    H226006   0.331   6.261   5.002 -1.3189 -1.1283 -1.6178
 1531TIP3   OH226007   5.933   5.961   3.262 -0.2436  0.5699  0.1821
 1531TIP3    H126008   5.963   5.928   3.346 -1.6958 -1.4811 -0.0765
 1531TIP3    H226009   5.907   6.052   3.280 -1.5875 -0.1792  2.2238
 1532TIP3   OH226010   5.117   0.418   4.273  0.5987  0.5485  0.2249
 1532TIP3    H126011   5.053   0.351   4.248  0.0926  0.4282  1.8050
 1532TIP3    H226012   5.090   0.496   4.224 -1.9290  1.0541  2.3234
 1533TIP3   OH226013   3.090   5.411  15.392 -0.0271 -0.0536  0.2506
 1533TIP3    H126014   3.056   5.345  15.330  3.2221 -0.6411 -1.0050
 1533TIP3    H226015   3.096   5.491  15.340 -0.0844  0.1906  0.6251
 1534TIP3   OH226016   3.460   1.213   5.658 -0.1672  0.4262  0.2366
 1534TIP3    H126017   3.515   1.226   5.735 -2.3099  1.6326  1.6019
 1534TIP3    H226018   3.429   1.301   5.636 -0.6117 -0.0868 -1.2168
 1535TIP3   OH226019   1.387   0.313   5.076  0.5490  0.4533  0.4908
 1535TIP3    H126020   1.377   0.406   5.056 -0.8625  0.2246  0.0490
 1535TIP3    H226021   1.432   0.310   5.160 -0.1178  1.5481  0.8848
 1536TIP3   OH226022   0.017   2.285   4.894 -0.3846 -0.1917 -0.3390
 1536TIP3    H126023   0.011   2.310   4.986 -2.4022 -1.8692  0.0344
 1536TIP3    H226024  -0.034   2.351   4.847  1.6971  1.3902 -0.4397
 1537TIP3   OH226025   6.687   4.655  12.936 -0.0826 -0.0245 -0.3051
 1537TIP3    H126026   6.604   4.652  12.982 -0.6509 -0.4294 -1.3473
 1537TIP3    H226027   6.718   4.564  12.935  0.7459  0.2289  0.7301
 1538TIP3   OH226028   0.430   5.303   3.386  0.0234  0.3097  0.7800
 1538TIP3    H126029   0.366   5.240   3.419  0.2991  0.9958  2.6465
 1538TIP3    H226030   0.497   5.307   3.454  1.6484  0.2060 -0.7859
 1539TIP3   OH226031   1.937   5.930   1.438 -0.3106 -0.0875 -0.0263
 1539TIP3    H126032   2.008   5.953   1.378 -0.4981 -0.6306 -0.4565
 1539TIP3    H226033   1.862   5.981   1.407 -0.2148  0.1901  0.1936
 1540TIP3   OH226034   0.229   3.529  15.507  0.2869  0.0969 -0.1959
 1540TIP3    H126035   0.231   3.534  15.602  2.4099  2.1180 -0.3082
 1540TIP3    H226036   0.138   3.549  15.483  0.1253  1.2233  1.3169
 1541TIP3   OH226037   3.755   2.698  11.103  0.3369 -0.0081  0.1559
 1541TIP3    H126038   3.769   2.743  11.020  0.8646  1.7905  1.2009
 1541TIP3    H226039   3.671   2.731  11.135  0.3873 -0.2983  0.5879
 1542TIP3   OH226040   5.857   3.268  15.031 -0.3255  0.0486  0.5825
 1542TIP3    H126041   5.774   3.311  15.008 -0.1264  0.1236 -0.0165
 1542TIP3    H226042   5.893   3.323  15.101 -0.4312  0.4417  0.3347
 1543TIP3   OH226043   6.142   4.254   2.382 -0.1961  0.2605  0.1096
 1543TIP3    H126044   6.150   4.191   2.454  0.4088  1.2045  0.8851
 1543TIP3    H226045   6.069   4.221   2.330  2.0653 -2.8394 -1.2745
 1544TIP3   OH226046   5.563   2.343  14.346 -0.1634  0.1005 -0.4659
 1544TIP3    H126047   5.635   2.400  14.374 -0.7503  0.6403 -0.0387
 1544TIP3    H226048   5.488   2.401  14.338 -0.6566 -0.5346 -0.5026
 1545TIP3   OH226049   6.089   2.326   1.479  0.2791  0.6506 -0.2133
 1545TIP3    H126050   6.010   2.297   1.526  0.5986 -0.0464 -0.1037
 1545TIP3    H226051   6.148   2.354   1.549 -1.1995  4.6385 -0.4322
 1546TIP3   OH226052   3.654   4.566  11.216  0.7502  0.1311  0.1026
 1546TIP3    H126053   3.676   4.545  11.125  0.7320  0.7778 -0.0523
 1546TIP3    H226054   3.738   4.592  11.255  0.4840  1.5000 -0.1879
 1547TIP3   OH226055   2.615   6.783  15.131 -0.0577  0.2569 -0.5584
 1547TIP3    H126056   2.684   6.755  15.070  0.8518  1.5401 -0.1254
 1547TIP3    H226057   2.543   6.810  15.074  0.5854  0.9287 -1.0662
 1548TIP3   OH226058   0.542   2.034  13.057  0.6357 -0.1282 -0.0804
 1548TIP3    H126059   0.465   1.980  13.041  0.4751  0.5735 -1.8696
 1548TIP3    H226060   0.613   1.971  13.071  0.5647 -0.8788 -2.7005
 1549TIP3   OH226061   5.907   5.588  10.862 -0.1186  0.0320  0.1860
 1549TIP3    H126062   5.991   5.578  10.818  0.0234  0.6878  0.3109
 1549TIP3    H226063   5.926   5.644  10.937 -0.6483  0.1019  0.2678
 1550TIP3   OH226064   3.670   2.719  14.647 -0.0838 -0.5339  0.2190
 1550TIP3    H126065   3.694   2.801  14.603 -1.3205  0.3392  1.1304
 1550TIP3    H226066   3.621   2.747  14.725 -1.9492 -2.1589 -0.3256
 1551TIP3   OH226067   5.216   6.480  17.040  0.0396 -0.2437 -0.7317
 1551TIP3    H126068   5.248   6.397  17.077  0.1719  0.7864  1.5080
 1551TIP3    H226069   5.296   6.528  17.018 -0.0395 -0.7759 -2.2043
 1552TIP3   OH226070   5.394   6.352   0.571  0.0893  0.3959 -0.5509
 1552TIP3    H126071   5.340   6.321   0.498  0.1862 -2.0571  0.3678
 1552TIP3    H226072   5.468   6.291   0.573  0.1289  0.4873  1.5297
 1553TIP3   OH226073   1.181   2.555  15.700 -0.3859 -0.6916 -0.1557
 1553TIP3    H126074   1.091   2.534  15.726 -0.1391 -0.9756  0.4969
 1553TIP3    H226075   1.228   2.473  15.711  0.4386 -0.0010  1.7439
 1554TIP3   OH226076   6.030   4.949   4.891  0.3112  0.6707  0.1767
 1554TIP3    H126077   5.985   4.972   4.810  0.6029  1.2195  0.1674
 1554TIP3    H226078   6.110   5.001   4.890  0.9641 -0.3370  0.1797
 1555TIP3   OH226079   2.498   0.331  15.525 -0.3265 -0.3723  0.8247
 1555TIP3    H126080   2.536   0.418  15.534 -1.0084  0.0471 -0.2579
 1555TIP3    H226081   2.573   0.272  15.523  0.0667 -0.0869  4.1768
 1556TIP3   OH226082   4.803   2.466  15.322  0.5055 -0.2824  0.5815
 1556TIP3    H126083   4.760   2.381  15.317  2.5815 -1.2838 -0.8989
 1556TIP3    H226084   4.894   2.446  15.344  0.8252  1.6195  1.1175
 1557TIP3   OH226085   0.557   0.697  16.483  0.1588 -0.1325  0.1695
 1557TIP3    H126086   0.476   0.683  16.435  0.9584 -2.0722 -0.6614
 1557TIP3    H226087   0.535   0.674  16.574 -1.0706  2.5464  0.5890
 1558TIP3   OH226088   5.613   0.637   5.325 -0.5663  0.5931  0.4666
 1558TIP3    H126089   5.546   0.571   5.344 -0.9324  0.7343 -0.3136
 1558TIP3    H226090   5.605   0.700   5.397 -0.6272  0.1087  0.8868
 1559TIP3   OH226091   3.284   2.877   5.010  0.4520 -0.1848 -0.0133
 1559TIP3    H126092   3.241   2.955   5.045 -1.4250 -1.3779  0.3934
 1559TIP3    H226093   3.328   2.908   4.930 -0.5494  1.2100 -0.0443
 1560TIP3   OH226094   4.518   3.358  15.924  0.0154 -0.1588 -0.0730
 1560TIP3    H126095   4.541   3.275  15.883 -1.1127 -0.3080 -0.4362
 1560TIP3    H226096   4.429   3.376  15.893  0.9661  2.1620 -1.5535
 1561TIP3   OH226097   0.154   3.693  14.847  0.5542  0.6601  0.1214
 1561TIP3    H126098   0.139   3.770  14.791  0.6290  0.5722 -0.0190
 1561TIP3    H226099   0.190   3.730  14.928 -0.0094  0.8312  0.2967
 1562TIP3   OH226100   3.110   0.761  14.108  0.1981  0.9033  0.2459
 1562TIP3    H126101   3.134   0.686  14.162  1.7825  2.1027  1.2571
 1562TIP3    H226102   3.174   0.760  14.037 -0.3401  0.7870 -0.2422
 1563TIP3   OH226103   1.120   1.738   4.375 -0.1400  0.7422  0.5460
 1563TIP3    H126104   1.071   1.670   4.423  0.0155 -0.4867 -0.9794
 1563TIP3    H226105   1.053   1.802   4.350 -0.6435  0.0926  0.2092
 1564TIP3   OH226106   1.037   3.745  16.891 -0.7010  0.0808  0.1036
 1564TIP3    H126107   1.048   3.835  16.921  0.6896 -0.6603  1.9480
 1564TIP3    H226108   1.011   3.696  16.969  0.7014 -1.4861 -0.3604
 1565TIP3   OH226109   3.333   1.364  15.090  0.5497 -0.6194  0.5469
 1565TIP3    H126110   3.350   1.445  15.136 -2.4662  1.2294 -1.4034
 1565TIP3    H226111   3.252   1.330  15.128  0.6496 -1.5973 -0.0733
 1566TIP3   OH226112   6.184   1.056   5.747 -0.1535 -0.9088 -0.5152
 1566TIP3    H126113   6.276   1.053   5.722 -0.4296  0.5249 -1.8015
 1566TIP3    H226114   6.178   1.130   5.807 -0.7126 -0.0657 -1.5900
 1567TIP3   OH226115   1.491   4.236  16.807 -0.1367 -0.4711 -0.1796
 1567TIP3    H126116   1.426   4.221  16.876  0.2022 -1.2789 -0.0299
 1567TIP3    H226117   1.532   4.319  16.830 -0.7172 -0.2492  0.0508
 1568TIP3   OH226118   5.079   5.519   5.689  0.3708  0.4043  0.1033
 1568TIP3    H126119   5.102   5.522   5.597 -0.8208 -0.8220 -0.2586
 1568TIP3    H226120   5.156   5.483   5.732  1.0464  1.2758 -0.3623
 1569TIP3   OH226121   3.248   0.852   2.131  0.1569 -0.6038 -0.1773
 1569TIP3    H126122   3.335   0.852   2.089  0.3861 -1.6345  0.2857
 1569TIP3    H226123   3.186   0.852   2.058  0.5343  1.1267 -0.5161
 1570TIP3   OH226124   1.601   1.637   0.687 -0.8859  0.1415 -0.0876
 1570TIP3    H126125   1.528   1.680   0.733 -1.2541 -0.3065 -0.2531
 1570TIP3    H226126   1.673   1.638   0.751 -0.9369  0.8735 -0.0389
 1571TIP3   OH226127   4.708   2.137   0.955 -0.2213  0.3982 -0.7932
 1571TIP3    H126128   4.613   2.126   0.956 -0.3118  1.1304 -0.4126
 1571TIP3    H226129   4.731   2.152   1.047  0.5096 -1.6384 -0.6252
 1572TIP3   OH226130   0.271   5.869   2.008 -0.5371 -0.2517  0.1950
 1572TIP3    H126131   0.203   5.933   2.029 -1.6099 -0.8753 -1.3323
 1572TIP3    H226132   0.237   5.786   2.040 -0.5268 -0.5831 -0.6588
 1573TIP3   OH226133   3.551   0.605   4.293  0.4579  0.6609 -0.2463
 1573TIP3    H126134   3.579   0.561   4.213  0.7970  1.2622 -0.4655
 1573TIP3    H226135   3.613   0.678   4.303 -1.2615  2.2524 -0.9428
 1574TIP3   OH226136   4.984   0.254   1.330 -0.1177  0.2808  0.4289
 1574TIP3    H126137   4.907   0.196   1.334 -1.6004  2.2019  0.4017
 1574TIP3    H226138   4.995   0.285   1.420  0.3773  0.3377  0.3498
 1575TIP3   OH226139   1.521   5.286   4.076 -0.4353 -0.2101  0.2039
 1575TIP3    H126140   1.487   5.309   3.990 -0.3639 -1.1182 -0.0774
 1575TIP3    H226141   1.603   5.335   4.084  0.1833 -1.0759 -0.7628
 1576TIP3   OH226142   6.081   3.222   0.681  0.3658  0.1359 -0.2087
 1576TIP3    H126143   6.040   3.170   0.750  0.2553  1.0265  0.4060
 1576TIP3    H226144   6.094   3.308   0.721  0.6224  0.5533 -1.1884
 1577TIP3   OH226145   1.303   2.413  16.951 -0.2765  0.5628  0.1036
 1577TIP3    H126146   1.362   2.438  16.880 -2.8841 -0.6330 -2.5968
 1577TIP3    H226147   1.286   2.320  16.937 -0.2132  0.0763  2.8256
 1578TIP3   OH226148   1.731   1.201   5.056 -0.5896  0.0483  0.1412
 1578TIP3    H126149   1.792   1.207   5.130  1.9498  2.8953 -2.0793
 1578TIP3    H226150   1.662   1.264   5.077 -0.3536  0.1862  0.5147
 1579TIP3   OH226151   5.369   0.200  14.268 -0.4474 -0.7671  0.6903
 1579TIP3    H126152   5.394   0.189  14.360  0.4106  0.1246  0.5669
 1579TIP3    H226153   5.450   0.224  14.224 -0.6946 -1.9643 -0.4479
 1580TIP3   OH226154   1.392   2.480  13.872 -0.0130 -0.3125  0.2151
 1580TIP3    H126155   1.380   2.477  13.777  1.7941 -0.2886 -0.0233
 1580TIP3    H226156   1.313   2.525  13.904 -0.2789  0.3786 -1.3433
 1581TIP3   OH226157   4.968   0.359  14.080  0.1705  0.2490  0.1488
 1581TIP3    H126158   5.004   0.369  14.168  1.0553  3.6963 -0.5320
 1581TIP3    H226159   4.892   0.302  14.091  0.5944  0.1692  3.0347
 1582TIP3   OH226160   0.087   0.023  11.568 -0.0429  0.2336 -0.3288
 1582TIP3    H126161   0.134   0.048  11.648  0.2448  0.3656 -0.5388
 1582TIP3    H226162  -0.005   0.033  11.591  0.0066 -0.7844  0.3335
 1583TIP3   OH226163   0.319   2.568  16.672 -0.2905 -0.4754  0.3677
 1583TIP3    H126164   0.279   2.654  16.682 -0.0620 -0.4011  0.6407
 1583TIP3    H226165   0.361   2.571  16.586 -0.6372 -0.4579  0.1963
 1584TIP3   OH226166   2.917   2.004  12.177  0.0928  0.6138 -0.0870
 1584TIP3    H126167   2.919   1.980  12.270  2.8657  2.1054  0.2886
 1584TIP3    H226168   2.900   2.098  12.177 -1.6340  0.3187 -1.1772
 1585TIP3   OH226169   4.269   1.701   2.803 -0.2869  0.2314  0.4969
 1585TIP3    H126170   4.269   1.642   2.727 -2.4254 -0.3528  0.9178
 1585TIP3    H226171   4.247   1.787   2.767 -0.1444  0.1938  0.3149
 1586TIP3   OH226172   3.193   0.825   4.496  0.8398  0.0435 -0.5492
 1586TIP3    H126173   3.198   0.734   4.466  0.5251 -0.3781  0.6325
 1586TIP3    H226174   3.190   0.877   4.416 -0.2008 -1.0612 -1.2406
 1587TIP3   OH226175   0.184   3.087   1.297  0.1655 -0.4419  0.1536
 1587TIP3    H126176   0.277   3.089   1.319  0.8684  0.1887 -2.6637
 1587TIP3    H226177   0.147   3.162   1.342  1.5151  0.7233 -0.6443
 1588TIP3   OH226178   4.433   6.668   2.549 -0.3551 -0.0462  0.2077
 1588TIP3    H126179   4.469   6.756   2.546  0.0656 -0.2519 -1.1902
 1588TIP3    H226180   4.372   6.664   2.475  3.0457 -2.3466 -2.6447
 1589TIP3   OH226181   3.388   3.408  12.513 -0.5615  0.4502 -0.6090
 1589TIP3    H126182   3.370   3.494  12.475  1.6751  0.6540 -1.2636
 1589TIP3    H226183   3.459   3.424  12.575 -0.3062 -0.8791 -0.5507
 1590TIP3   OH226184   1.924   4.920  14.058 -0.0308  0.9588  0.3736
 1590TIP3    H126185   1.966   4.923  13.973 -2.5595  1.0929 -0.9190
 1590TIP3    H226186   1.921   5.012  14.086  2.0651  0.7734  1.2836
 1591TIP3   OH226187   1.375   0.141   3.561 -0.0868 -0.1820  0.4200
 1591TIP3    H126188   1.401   0.172   3.474 -0.6085  0.0860  0.3570
 1591TIP3    H226189   1.397   0.212   3.620 -0.0524 -0.2258  0.4605
 1592TIP3   OH226190   1.442   6.613   0.477  0.1260  0.2314  0.1005
 1592TIP3    H126191   1.396   6.536   0.443  0.9167 -0.3198  0.2724
 1592TIP3    H226192   1.396   6.635   0.558  0.8116 -0.9535  0.8169
 1593TIP3   OH226193   2.361   0.787   0.656  0.3938  0.1295  0.3140
 1593TIP3    H126194   2.431   0.736   0.615  1.1499  1.1852  0.2717
 1593TIP3    H226195   2.406   0.860   0.699 -0.6521  0.6417  0.5620
 1594TIP3   OH226196   0.208   2.083  12.098  0.3969  0.2109  0.0400
 1594TIP3    H126197   0.143   2.152  12.103  2.9389  2.6890  0.0431
 1594TIP3    H226198   0.212   2.059  12.006  0.2290  0.8034 -0.1203
 1595TIP3   OH226199   3.454   3.827   4.330  0.6167 -0.6253 -0.1878
 1595TIP3    H126200   3.545   3.801   4.343  0.6737 -0.2947  0.1022
 1595TIP3    H226201   3.410   3.800   4.411  0.8289  0.8516  0.4280
 1596TIP3   OH226202   4.336   2.510   4.641 -0.0734 -0.1112 -0.2616
 1596TIP3    H126203   4.361   2.603   4.644  0.7123 -0.2072 -2.5521
 1596TIP3    H226204   4.245   2.511   4.612  0.0341 -0.0686 -0.5961
 1597TIP3   OH226205   3.853   2.453   4.948 -0.0391 -0.2315 -0.1821
 1597TIP3    H126206   3.758   2.465   4.935  0.0783  0.0956 -0.7835
 1597TIP3    H226207   3.892   2.525   4.899  0.5234 -0.3203  0.1353
 1598TIP3   OH226208   4.630   4.351  15.503 -0.0783 -0.1752 -1.0052
 1598TIP3    H126209   4.621   4.330  15.410  2.0901  1.5920 -1.6579
 1598TIP3    H226210   4.604   4.442  15.510 -1.1202 -0.5617  0.2991
 1599TIP3   OH226211   6.703   0.590  16.959  0.1927  0.7661 -0.2852
 1599TIP3    H126212   6.769   0.587  16.889  1.4433 -0.2104  0.8896
 1599TIP3    H226213   6.741   0.646  17.027 -0.2362  0.2997  0.3530
 1600TIP3   OH226214   4.957   2.219  13.359 -0.1409 -0.7934 -0.0899
 1600TIP3    H126215   5.044   2.181  13.349 -1.8733 -4.2624 -3.2170
 1600TIP3    H226216   4.943   2.266  13.277 -0.1539  2.2772  1.5897
 1601TIP3   OH226217   1.848   4.287  15.610 -0.0831  0.2351  0.1412
 1601TIP3    H126218   1.882   4.311  15.524 -1.1767 -1.3211 -0.7538
 1601TIP3    H226219   1.753   4.291  15.600 -0.2512  3.0070  2.1606
 1602TIP3   OH226220   3.731   0.887  16.947 -0.1110 -0.1809  0.4669
 1602TIP3    H126221   3.716   0.948  17.019  1.1614  1.2219 -0.4389
 1602TIP3    H226222   3.646   0.879  16.904 -0.5554  0.0174  1.2961
 1603TIP3   OH226223   5.317   2.224   4.679 -0.2863  0.5739 -0.3864
 1603TIP3    H126224   5.234   2.271   4.673 -1.5282 -1.2625  1.7206
 1603TIP3    H226225   5.322   2.173   4.598 -1.3459  0.5036 -0.4125
 1604TIP3   OH226226   4.271   5.232   3.889 -0.1377 -0.6039  0.0311
 1604TIP3    H126227   4.219   5.305   3.921 -1.1101 -2.0349  1.8017
 1604TIP3    H226228   4.346   5.228   3.949 -0.4175 -1.4501  0.3264
 1605TIP3   OH226229   1.874   0.898   5.451 -0.0369  0.6835  0.5806
 1605TIP3    H126230   1.896   0.952   5.527 -0.6411  0.1174  1.1717
 1605TIP3    H226231   1.955   0.851   5.431 -0.3658 -0.5495  2.0458
 1606TIP3   OH226232   3.272   0.813  16.474 -0.3384  0.6689 -0.1410
 1606TIP3    H126233   3.365   0.828  16.460 -0.4562  0.2333 -1.4643
 1606TIP3    H226234   3.237   0.898  16.500  0.2605  1.0521 -0.5825
 1607TIP3   OH226235   4.832   3.054  11.295  0.0245 -0.2276  0.6545
 1607TIP3    H126236   4.798   3.111  11.364  0.5463 -0.5122  1.1513
 1607TIP3    H226237   4.860   3.114  11.226 -0.0006  0.0911  0.9205
 1608TIP3   OH226238   4.325   4.386   3.474 -0.5810  0.6328  0.2921
 1608TIP3    H126239   4.353   4.298   3.498 -1.7444  0.3575  0.7206
 1608TIP3    H226240   4.389   4.416   3.410 -0.2228 -0.5638  0.0808
 1609TIP3   OH226241   4.115   3.815  11.132  0.2399 -0.0439 -0.3203
 1609TIP3    H126242   4.125   3.909  11.143 -0.5852  0.1624 -1.2005
 1609TIP3    H226243   4.031   3.805  11.086  0.0800 -1.2323  0.2027
 1610TIP3   OH226244   3.481   2.949  12.862  0.2133  0.2112 -0.4137
 1610TIP3    H126245   3.552   2.990  12.912 -0.5641  1.0247  0.0280
 1610TIP3    H226246   3.473   2.861  12.901  0.2700  0.4935  0.2502
 1611TIP3   OH226247   4.005   5.958   0.009  0.0359 -0.1515 -0.1780
 1611TIP3    H126248   4.086   6.009   0.011 -0.1213  0.0424  1.8471
 1611TIP3    H226249   3.936   6.022   0.027 -0.3082 -0.8083  0.8471
 1612TIP3   OH226250   3.749   6.122   1.602  0.2033  0.0282 -0.3580
 1612TIP3    H126251   3.786   6.053   1.658  1.9026  1.2343  0.0349
 1612TIP3    H226252   3.779   6.101   1.514  1.2037  0.5615 -0.1550
 1613TIP3   OH226253   0.764   1.136   6.279  0.1131 -0.2194 -0.1749
 1613TIP3    H126254   0.670   1.148   6.268  0.1559 -0.2504 -0.5844
 1613TIP3    H226255   0.774   1.107   6.370 -0.2871 -0.3880 -0.1840
 1614TIP3   OH226256   2.768   4.641  12.979 -0.3223 -0.1390  0.1661
 1614TIP3    H126257   2.761   4.720  13.033 -0.3060  0.0322 -0.0814
 1614TIP3    H226258   2.726   4.665  12.896 -0.6605 -0.5131  0.2285
 1615TIP3   OH226259   6.623   3.026  14.102  0.2943  0.7839  0.1121
 1615TIP3    H126260   6.657   3.066  14.022 -1.0424  0.3808 -0.6838
 1615TIP3    H226261   6.545   2.979  14.073  1.3500 -1.6793  1.1793
 1616TIP3   OH226262   6.553   3.759   3.042  0.0746 -0.2345 -0.0155
 1616TIP3    H126263   6.462   3.767   3.011 -0.1881  0.6872  0.9727
 1616TIP3    H226264   6.549   3.784   3.134  1.4777  0.5849 -0.1702
 1617TIP3   OH226265   6.262   0.185  13.197  0.7224 -0.2450 -0.5204
 1617TIP3    H126266   6.284   0.099  13.232 -1.5890 -0.9421 -0.6939
 1617TIP3    H226267   6.341   0.238  13.211  0.9924 -1.4268  2.6815
 1618TIP3   OH226268   1.968   6.736   5.128  0.2588  0.3455 -0.2708
 1618TIP3    H126269   2.002   6.825   5.131  1.0200  0.0162  1.7825
 1618TIP3    H226270   2.046   6.682   5.111 -0.0650  0.0054 -0.6778
 1619TIP3   OH226271   2.658   3.544  14.404 -0.4495 -0.4473  0.1069
 1619TIP3    H126272   2.607   3.478  14.451  0.3375 -0.6867  0.6417
 1619TIP3    H226273   2.730   3.565  14.464 -0.9719  1.2809  0.1709
 1620TIP3   OH226274   5.624   6.128  10.704 -0.3808 -0.1742  0.0802
 1620TIP3    H126275   5.596   6.082  10.784  0.7899 -0.5645  0.2841
 1620TIP3    H226276   5.622   6.220  10.727  0.3259 -0.3050  0.6983
 1621TIP3   OH226277   2.808   2.013  15.172 -0.2751 -0.3560  0.2041
 1621TIP3    H126278   2.820   2.087  15.231  0.0358  1.5988 -2.2103
 1621TIP3    H226279   2.895   1.976  15.161 -0.5999 -1.8795  2.3159
 1622TIP3   OH226280   3.656   4.539   0.036 -0.3983  0.0245  0.0421
 1622TIP3    H126281   3.668   4.445   0.030 -0.0435  0.0395  0.5143
 1622TIP3    H226282   3.582   4.558  -0.021 -0.3756 -0.5206 -0.1616
 1623TIP3   OH226283   5.050   1.392  11.400 -0.4242  0.4351 -0.4905
 1623TIP3    H126284   5.042   1.358  11.311 -0.5393 -2.1156  0.4550
 1623TIP3    H226285   5.134   1.358  11.431 -0.7827  0.5869  0.6753
 1624TIP3   OH226286   2.764   6.320  13.231  0.5601  0.8198 -0.1932
 1624TIP3    H126287   2.689   6.378  13.217 -0.1112  0.2007  0.7875
 1624TIP3    H226288   2.742   6.271  13.310  0.4520 -1.8699 -1.8512
 1625TIP3   OH226289   4.724   0.866   4.381  0.2406  0.2341  0.2284
 1625TIP3    H126290   4.732   0.780   4.340  1.5114 -0.3109  1.5591
 1625TIP3    H226291   4.691   0.849   4.469 -0.7992  1.2288  0.0420
 1626TIP3   OH226292   0.041   3.764   5.854 -0.0897 -0.1371 -0.2576
 1626TIP3    H126293   0.009   3.775   5.944  0.8614 -0.4463  0.1305
 1626TIP3    H226294   0.016   3.844   5.809 -0.2072  0.1970  0.3988
 1627TIP3   OH226295   6.486   3.884  12.703  0.0685 -0.1129  0.1542
 1627TIP3    H126296   6.394   3.884  12.678 -0.6180 -0.7005  2.5354
 1627TIP3    H226297   6.497   3.964  12.754  0.2794 -1.1784  1.8323
 1628TIP3   OH226298   6.468   4.400  13.656 -0.1578  0.0356  0.3194
 1628TIP3    H126299   6.404   4.354  13.710  1.6305 -4.4780 -1.1646
 1628TIP3    H226300   6.546   4.406  13.711 -0.6709  2.4015  0.8714
 1629TIP3   OH226301   3.539   5.880   0.681 -0.1445  0.1290 -0.0564
 1629TIP3    H126302   3.559   5.797   0.637 -0.4515 -0.9429  1.7990
 1629TIP3    H226303   3.446   5.893   0.665  0.0380  0.4498 -0.8895
 1630TIP3   OH226304   3.192   1.578   3.105 -0.5712 -0.5329  0.4468
 1630TIP3    H126305   3.267   1.618   3.061  0.8590 -1.7751  1.6666
 1630TIP3    H226306   3.145   1.532   3.036  0.2182 -0.3678 -0.2139
 1631TIP3   OH226307   4.753   6.030  15.608 -0.2167  0.6663  0.4008
 1631TIP3    H126308   4.832   5.978  15.592  0.7123  2.2155 -0.1038
 1631TIP3    H226309   4.728   6.008  15.697  1.3651  0.9269  0.9209
 1632TIP3   OH226310   6.269   3.132   3.165 -0.1130 -0.2932 -0.7277
 1632TIP3    H126311   6.262   3.227   3.152  3.2271  0.2257  0.9172
 1632TIP3    H226312   6.223   3.116   3.247 -1.2207 -0.2166 -1.3210
 1633TIP3   OH226313   5.442   0.948   1.520  0.2525  0.2799  0.1239
 1633TIP3    H126314   5.461   1.039   1.496  0.3020 -0.0921 -1.2637
 1633TIP3    H226315   5.408   0.908   1.440  3.8398 -1.9737 -0.3838
 1634TIP3   OH226316   0.452   6.526  15.344 -0.0007 -0.5097 -0.0550
 1634TIP3    H126317   0.514   6.467  15.301  1.2054  0.0072  0.9273
 1634TIP3    H226318   0.508   6.589  15.390 -1.2705  0.0853  0.6796
 1635TIP3   OH226319   1.606   3.505  16.023  0.0000  0.1425 -0.1658
 1635TIP3    H126320   1.638   3.477  15.936  2.9763  0.3968  0.7956
 1635TIP3    H226321   1.664   3.461  16.085  0.2996  2.9106  1.6017
 1636TIP3   OH226322   1.790   4.659  11.502  0.0693  0.3770 -0.4368
 1636TIP3    H126323   1.806   4.727  11.437 -2.2755  1.1067 -0.2922
 1636TIP3    H226324   1.857   4.592  11.484  1.4010  1.9713 -1.5866
 1637TIP3   OH226325   3.321   2.596   5.949 -0.0227 -1.0563 -0.0179
 1637TIP3    H126326   3.298   2.630   6.036  1.5301 -1.4238  0.5689
 1637TIP3    H226327   3.300   2.502   5.954  1.6256 -1.4274  0.5765
 1638TIP3   OH226328   4.038   3.403   2.222 -0.3450  0.4682 -0.1200
 1638TIP3    H126329   4.103   3.473   2.227  0.4811 -0.2627 -0.3950
 1638TIP3    H226330   3.988   3.411   2.303 -0.5582  1.6582 -0.3597
 1639TIP3   OH226331   5.927   2.335  13.368  0.0221 -0.0707  0.1448
 1639TIP3    H126332   5.851   2.338  13.310 -0.4228 -2.6997  0.5122
 1639TIP3    H226333   6.002   2.343  13.310 -0.4871 -0.3024 -0.5541
 1640TIP3   OH226334   2.870   2.823   5.691 -0.5612 -0.3772 -0.1846
 1640TIP3    H126335   2.963   2.807   5.705 -0.8199  0.1669  2.4859
 1640TIP3    H226336   2.866   2.909   5.649  0.0672  0.7859  2.0633
 1641TIP3   OH226337   2.321   0.845  15.007 -0.1743  0.2927 -0.0368
 1641TIP3    H126338   2.320   0.774  15.071 -2.6591  1.5508  1.4236
 1641TIP3    H226339   2.235   0.840  14.965 -1.1704  3.5318  1.4324
 1642TIP3   OH226340   4.275   0.664  16.875  0.1463  0.5293  0.1847
 1642TIP3    H126341   4.201   0.642  16.819  0.8272 -2.6866  0.4597
 1642TIP3    H226342   4.242   0.656  16.964  1.0601 -2.0516  0.3322
 1643TIP3   OH226343   1.452   3.190  12.954  0.3913  0.4383 -0.3442
 1643TIP3    H126344   1.395   3.266  12.945 -0.9650 -0.5182  0.0949
 1643TIP3    H226345   1.404   3.118  12.913  0.4510 -0.7752  1.6503
 1644TIP3   OH226346   3.029   3.510  17.116  0.0349  0.3305 -0.5575
 1644TIP3    H126347   2.986   3.491  17.033  0.0504  0.8737 -0.6895
 1644TIP3    H226348   2.957   3.530  17.176  0.0187 -0.1349 -0.4167
 1645TIP3   OH226349   0.359   2.142   0.532  0.3087  0.2363  0.2927
 1645TIP3    H126350   0.329   2.230   0.555 -0.4002 -0.3313  1.6162
 1645TIP3    H226351   0.374   2.146   0.438 -0.8130  1.4614  0.1396
 1646TIP3   OH226352   5.097   1.825   4.281 -0.5143 -0.4619 -0.1037
 1646TIP3    H126353   5.035   1.859   4.345  0.0163  2.2456 -0.9605
 1646TIP3    H226354   5.180   1.819   4.328 -0.2850  0.8570 -0.3149
 1647TIP3   OH226355   3.933   5.674  14.767 -0.0858 -0.2326  0.5976
 1647TIP3    H126356   3.957   5.661  14.675 -2.8491 -2.1981  0.0891
 1647TIP3    H226357   3.850   5.627  14.777 -2.6931  4.5061  2.7131
 1648TIP3   OH226358   0.194   3.552  14.330 -0.6919  0.0116  0.0533
 1648TIP3    H126359   0.222   3.613  14.398  2.7120  0.8211 -1.9170
 1648TIP3    H226360   0.242   3.471  14.349 -0.2786  0.0178 -0.9314
 1649TIP3   OH226361   1.906   3.671  11.804  0.0667  0.1431 -0.1641
 1649TIP3    H126362   1.987   3.679  11.856 -2.0258 -0.5328  3.3745
 1649TIP3    H226363   1.929   3.612  11.733  2.1320 -1.8178  2.0469
 1650TIP3   OH226364   1.352   2.036  13.054  0.3553 -0.4320  0.1106
 1650TIP3    H126365   1.290   2.089  13.004  0.3139  0.8334  1.4607
 1650TIP3    H226366   1.403   1.990  12.988  0.2545  1.1467 -1.0912
 1651TIP3   OH226367   6.026   2.171   0.987  0.0656 -0.3101 -0.1498
 1651TIP3    H126368   6.040   2.195   1.079  0.1003  0.2467 -0.2994
 1651TIP3    H226369   6.019   2.255   0.941  1.7552 -0.5731 -0.9225
 1652TIP3   OH226370   1.460   6.783  14.484  0.1354 -0.0900  0.2422
 1652TIP3    H126371   1.537   6.809  14.535  1.6025 -0.5729 -1.6868
 1652TIP3    H226372   1.468   6.831  14.402  0.1578 -2.6656 -1.3194
 1653TIP3   OH226373   2.225   6.092  17.142 -0.6229 -0.3908  0.5406
 1653TIP3    H126374   2.181   6.176  17.156 -0.6913 -0.1641 -0.8836
 1653TIP3    H226375   2.293   6.112  17.077 -1.2401 -1.6119 -0.5046
 1654TIP3   OH226376   5.940   5.232  13.344  0.2922 -0.5507  0.0135
 1654TIP3    H126377   5.916   5.223  13.436  0.3456 -2.7593 -0.1480
 1654TIP3    H226378   5.857   5.249  13.300 -0.0814 -1.7878  0.2138
 1655TIP3   OH226379   5.584   1.124  16.194  0.5280  0.3396 -0.2638
 1655TIP3    H126380   5.497   1.135  16.232  0.9663 -0.5962  1.0492
 1655TIP3    H226381   5.642   1.110  16.269  1.3998 -1.6377 -1.2570
 1656TIP3   OH226382   0.216   6.417  12.755 -0.3796 -0.7297 -0.3834
 1656TIP3    H126383   0.191   6.499  12.799  0.5180 -0.3477 -0.5729
 1656TIP3    H226384   0.311   6.414  12.764 -0.3510 -1.4450 -0.9375
 1657TIP3   OH226385   3.649   3.759   2.296  0.0862 -0.2100  0.8628
 1657TIP3    H126386   3.609   3.676   2.323  1.7901 -0.9375  1.2017
 1657TIP3    H226387   3.652   3.811   2.377 -1.2043  0.2995  0.6015
 1658TIP3   OH226388   6.373   4.677  15.728 -0.2285 -0.1230  0.5200
 1658TIP3    H126389   6.306   4.676  15.660 -0.5961  0.4056  0.8755
 1658TIP3    H226390   6.358   4.596  15.778  1.1922 -1.4466 -1.1381
 1659TIP3   OH226391   1.462   1.425   6.557  0.1173 -0.4973  0.2969
 1659TIP3    H126392   1.375   1.456   6.533  0.4891 -0.2020 -0.6917
 1659TIP3    H226393   1.522   1.471   6.498  0.6910 -2.9279 -1.1207
 1660TIP3   OH226394   4.285   0.234   5.991 -0.4730  0.1276  0.5569
 1660TIP3    H126395   4.202   0.188   6.003 -0.7168  0.7771  1.4151
 1660TIP3    H226396   4.333   0.219   6.072  0.9909 -1.7222 -0.6311
 1661TIP3   OH226397   4.117   2.964  15.347 -0.4174 -0.2725 -0.1218
 1661TIP3    H126398   4.104   2.951  15.441 -0.2134 -1.5768 -0.2657
 1661TIP3    H226399   4.056   3.033  15.323  0.5822  1.1239  1.2640
 1662TIP3   OH226400   0.766   5.909  16.100 -0.2508  0.4226 -0.0086
 1662TIP3    H126401   0.792   6.001  16.097 -0.5449  0.5662  1.4936
 1662TIP3    H226402   0.778   5.878  16.011  0.8249  1.6538 -0.3057
 1663TIP3   OH226403   5.662   5.936   2.184  0.4172 -0.0439  0.4536
 1663TIP3    H126404   5.715   5.988   2.124  1.0311 -0.6626  0.4376
 1663TIP3    H226405   5.719   5.922   2.260 -0.4331  0.9324  1.2917
 1664TIP3   OH226406   2.304   0.049   3.026  0.4771 -0.4064 -0.3248
 1664TIP3    H126407   2.331   0.129   3.071  2.4984 -1.2528  0.0651
 1664TIP3    H226408   2.300   0.073   2.934  0.4915  0.2951 -0.1436
 1665TIP3   OH226409   2.192   2.927   6.420  0.3328 -0.4007 -0.3870
 1665TIP3    H126410   2.285   2.944   6.434  0.4285  0.1677 -1.6007
 1665TIP3    H226411   2.148   3.004   6.455  0.3096 -0.6935  0.2354
 1666TIP3   OH226412   2.965   2.528  12.921  0.2225  0.8924 -0.0526
 1666TIP3    H126413   2.910   2.451  12.908  0.3739  0.8552 -0.4724
 1666TIP3    H226414   2.904   2.602  12.914  0.3077  0.8800 -1.0602
 1667TIP3   OH226415   5.756   3.594   1.836 -0.7759 -0.1408  0.2633
 1667TIP3    H126416   5.838   3.640   1.819 -0.0264 -0.6667  2.3258
 1667TIP3    H226417   5.688   3.660   1.822  0.0014  0.3715 -1.1927
 1668TIP3   OH226418   1.725   1.857   6.800 -0.0530  0.3403  0.3680
 1668TIP3    H126419   1.680   1.869   6.884  1.1312  0.4377  0.9929
 1668TIP3    H226420   1.801   1.915   6.805  1.4283 -1.5431  0.2800
 1669TIP3   OH226421   6.349   3.266  14.054  0.1091  0.1701 -0.5012
 1669TIP3    H126422   6.256   3.249  14.069  0.1405  0.3953 -0.0637
 1669TIP3    H226423   6.379   3.190  14.005  0.2148 -0.9634  1.2904
 1670TIP3   OH226424   5.335   4.569   0.759 -0.8527 -0.1383 -0.3921
 1670TIP3    H126425   5.392   4.492   0.770 -0.9269 -0.1229  0.1092
 1670TIP3    H226426   5.284   4.573   0.840  1.8526  2.6915  1.2797
 1671TIP3   OH226427   5.938   3.652  14.503  0.5553  0.6001  0.2816
 1671TIP3    H126428   5.977   3.699  14.429  1.6928 -0.4981  0.1686
 1671TIP3    H226429   5.864   3.604  14.465  0.6100  0.7135  0.0290
 1672TIP3   OH226430   3.627   4.036   0.974 -0.4533 -0.5560 -0.4152
 1672TIP3    H126431   3.646   4.128   0.954 -2.2339 -0.0426  0.1526
 1672TIP3    H226432   3.698   4.010   1.033 -0.3445  0.6934  0.0287
 1673TIP3   OH226433   2.373   1.995  11.656  0.0831 -0.3505 -0.5437
 1673TIP3    H126434   2.305   1.928  11.666 -2.5504  1.7561 -3.5123
 1673TIP3    H226435   2.417   1.973  11.575  0.0832  0.7549 -0.8499
 1674TIP3   OH226436   0.581   0.585   2.722 -0.8306  0.1412  0.3455
 1674TIP3    H126437   0.608   0.598   2.631 -0.3000  1.8606  0.7267
 1674TIP3    H226438   0.556   0.673   2.752 -0.8696 -0.3839  1.8883
 1675TIP3   OH226439   4.081   0.012   1.050  0.3254  0.0288  0.9342
 1675TIP3    H126440   4.038  -0.063   1.089  0.1325  0.3231  1.2960
 1675TIP3    H226441   4.044   0.019   0.962 -0.2026  0.1451  1.1644
 1676TIP3   OH226442   5.506   0.148   5.067 -0.5107  0.0430 -0.3792
 1676TIP3    H126443   5.566   0.204   5.019 -0.5562 -0.7757 -1.3867
 1676TIP3    H226444   5.485   0.077   5.007 -0.5694 -0.9857  0.8388
 1677TIP3   OH226445   4.855   2.823   1.808  0.3790  0.0050 -0.0341
 1677TIP3    H126446   4.843   2.799   1.900  1.1624 -0.1672  0.0337
 1677TIP3    H226447   4.773   2.865   1.782 -0.3190 -1.0692  0.3924
 1678TIP3   OH226448   4.327   0.926   1.995  0.1129 -0.0529 -0.2144
 1678TIP3    H126449   4.270   0.955   2.066 -1.0608 -0.7201 -0.8703
 1678TIP3    H226450   4.309   0.986   1.923  0.5628 -0.0060 -0.2936
 1679TIP3   OH226451   1.399   2.970   6.089  0.0203  0.1810  0.1240
 1679TIP3    H126452   1.312   3.006   6.106 -0.3765 -1.3656  1.5708
 1679TIP3    H226453   1.456   3.014   6.152 -0.6460 -2.2936  2.6114
 1680TIP3   OH226454   2.497   1.022  12.501 -0.1080 -0.5903 -0.1143
 1680TIP3    H126455   2.429   1.078  12.538  1.2828  0.6127  0.6506
 1680TIP3    H226456   2.484   1.028  12.406  0.1444  1.1824 -0.0538
 1681TIP3   OH226457   0.714   0.711   5.586 -0.5960  0.5351  0.1310
 1681TIP3    H126458   0.693   0.690   5.677 -0.2883  2.3555  0.6375
 1681TIP3    H226459   0.788   0.653   5.565 -1.1465 -0.4238  0.7910
 1682TIP3   OH226460   2.470   2.113  14.351  0.3817 -0.0943  0.1564
 1682TIP3    H126461   2.468   2.043  14.416 -0.8132 -0.0395  0.1903
 1682TIP3    H226462   2.531   2.178  14.388 -0.1978 -0.1145  1.1595
 1683TIP3   OH226463   1.202   0.884  15.726 -0.1178  0.2440 -0.3169
 1683TIP3    H126464   1.217   0.808  15.783  0.7341 -0.2263 -1.1607
 1683TIP3    H226465   1.274   0.882  15.663 -0.2986  1.5402 -0.5870
 1684TIP3   OH226466   6.253   0.576   1.222 -0.0771  0.1007  0.2862
 1684TIP3    H126467   6.236   0.592   1.129 -2.0785  0.5064  0.6943
 1684TIP3    H226468   6.178   0.525   1.251 -0.2435  1.3177  2.0418
 1685TIP3   OH226469   1.795   6.496   0.138  0.0300  0.0487 -0.8735
 1685TIP3    H126470   1.880   6.541   0.135 -1.4100  3.2986  2.6662
 1685TIP3    H226471   1.803   6.436   0.213 -0.0830 -1.2848 -1.9111
 1686TIP3   OH226472   4.439   5.755  15.021  0.0375  0.2180  0.2883
 1686TIP3    H126473   4.368   5.818  15.017  1.4681  1.7265 -3.7323
 1686TIP3    H226474   4.396   5.670  15.012 -1.5327  0.8997  1.2491
 1687TIP3   OH226475   1.437   1.607  14.288  0.4911 -0.1264  0.3752
 1687TIP3    H126476   1.341   1.603  14.298  0.3295  0.8800 -0.5954
 1687TIP3    H226477   1.459   1.530  14.236  0.1986 -0.3193  0.5337
 1688TIP3   OH226478   1.272   1.409  15.627 -0.1394 -0.3123 -0.1324
 1688TIP3    H126479   1.358   1.410  15.667 -0.4393  0.1552  0.5079
 1688TIP3    H226480   1.245   1.317  15.631 -0.1682 -0.2733  0.7457
 1689TIP3   OH226481   4.379   3.299   1.092 -0.0015  0.3880  0.5503
 1689TIP3    H126482   4.385   3.207   1.117  0.2712  0.4450  0.6968
 1689TIP3    H226483   4.371   3.346   1.175 -2.4593  0.3255  0.3797
 1690TIP3   OH226484   2.388   1.771   5.463 -0.1414 -0.3898 -0.0654
 1690TIP3    H126485   2.425   1.818   5.537 -0.9302 -1.1266  0.8139
 1690TIP3    H226486   2.460   1.763   5.401 -0.0958  2.2619 -0.3927
 1691TIP3   OH226487   6.484   0.414   0.555 -0.5778  0.1057  0.0536
 1691TIP3    H126488   6.440   0.412   0.470 -0.9661  0.6311  0.2473
 1691TIP3    H226489   6.547   0.485   0.548  0.0915 -0.4997 -0.1444
 1692TIP3   OH226490   5.552   3.118  13.887  0.1172  0.9557  0.1015
 1692TIP3    H126491   5.508   3.110  13.802  0.7889  0.4614 -0.2009
 1692TIP3    H226492   5.535   3.036  13.932  1.2850  0.4995 -0.2816
 1693TIP3   OH226493   3.553   0.404  14.517 -0.1337  0.1206 -0.1662
 1693TIP3    H126494   3.594   0.484  14.548 -1.3362  1.0001 -0.8036
 1693TIP3    H226495   3.537   0.420  14.424  0.3804 -1.1888 -0.4932
 1694TIP3   OH226496   0.954   5.686  14.001  0.0989 -0.2044  0.1056
 1694TIP3    H126497   0.970   5.753  13.934  0.2525  0.0626  0.4070
 1694TIP3    H226498   0.961   5.603  13.954 -3.7407  0.0416 -1.0616
 1695TIP3   OH226499   4.303   3.468   0.894  0.1675 -0.2376  0.3754
 1695TIP3    H126500   4.324   3.409   0.967  2.4906 -1.5085 -1.2636
 1695TIP3    H226501   4.236   3.527   0.930  0.8022 -1.2127  3.3380
 1696TIP3   OH226502   2.348   0.482   6.278  0.7278  0.0205 -0.0900
 1696TIP3    H126503   2.394   0.399   6.291 -0.9586 -0.9624 -0.3485
 1696TIP3    H226504   2.302   0.498   6.361 -0.5860 -0.3298 -0.7489
 1697TIP3   OH226505   3.326   6.107  13.557 -0.6435 -0.1603 -0.5532
 1697TIP3    H126506   3.306   6.141  13.470  0.7335  2.5378  0.1487
 1697TIP3    H226507   3.242   6.077  13.591 -1.4337  0.0911 -2.2291
 1698TIP3   OH226508   4.236   4.145  13.803  0.5125  0.1125  0.7171
 1698TIP3    H126509   4.264   4.129  13.713  2.0426  1.7857  0.8635
 1698TIP3    H226510   4.154   4.194  13.793 -0.0720 -0.9424  0.2562
 1699TIP3   OH226511   0.577   3.545  14.237 -0.4445  0.1766  0.1544
 1699TIP3    H126512   0.578   3.528  14.331  0.2536  1.5301  0.4012
 1699TIP3    H226513   0.517   3.618  14.226  0.6714  1.0550 -0.2565
 1700TIP3   OH226514   6.631   5.195   1.472 -1.0163  0.4540 -0.6787
 1700TIP3    H126515   6.680   5.218   1.393  0.5083  1.5365  0.5271
 1700TIP3    H226516   6.591   5.111   1.452 -0.1691  0.4245 -2.3812
 1701TIP3   OH226517   0.458   5.819   4.841  0.1432  0.1312  0.5089
 1701TIP3    H126518   0.423   5.773   4.765 -1.0288  1.5872  0.1592
 1701TIP3    H226519   0.551   5.795   4.843 -0.1405 -1.0759 -0.5123
 1702TIP3   OH226520   2.367   3.745   0.541  0.0139 -0.0838  0.4699
 1702TIP3    H126521   2.441   3.805   0.547 -1.1251  1.3358  0.6167
 1702TIP3    H226522   2.397   3.675   0.483  1.7564  0.0318  1.2047
 1703TIP3   OH226523   4.889   4.677   2.056 -0.3064  0.0501  0.0171
 1703TIP3    H126524   4.807   4.640   2.091 -0.1420  0.0150  0.3696
 1703TIP3    H226525   4.918   4.613   1.991 -1.7033  1.1209 -1.7102
 1704TIP3   OH226526   5.388   2.239  11.342  0.1541  0.4284 -0.2567
 1704TIP3    H126527   5.304   2.262  11.383 -0.0451  0.1580 -0.5121
 1704TIP3    H226528   5.452   2.292  11.389  0.2674 -1.8351  2.1912
 1705TIP3   OH226529   0.670   2.487  16.369 -0.2520  0.3380 -0.0420
 1705TIP3    H126530   0.729   2.412  16.364  1.0263  1.0804  2.9945
 1705TIP3    H226531   0.716   2.558  16.324 -0.2443  0.0390 -0.5016
 1706TIP3   OH226532   1.626   5.063   0.798 -0.1202  0.5518  0.1951
 1706TIP3    H126533   1.625   5.157   0.817 -0.5896  0.2868  1.6142
 1706TIP3    H226534   1.533   5.037   0.800  0.0111  0.0462 -0.1024
 1707TIP3   OH226535   6.551   6.546   2.192  0.6568 -0.3940  0.0865
 1707TIP3    H126536   6.546   6.515   2.102  1.8969 -0.3887  0.0075
 1707TIP3    H226537   6.545   6.641   2.186 -3.1209 -0.5511  0.3273
 1708TIP3   OH226538   4.675   0.116  14.747  0.5444  0.0736 -0.3521
 1708TIP3    H126539   4.641   0.180  14.685 -2.7173 -2.4567 -1.3469
 1708TIP3    H226540   4.666   0.158  14.833 -2.0073  0.7791 -0.9296
 1709TIP3   OH226541   6.282   0.166  15.237  0.0919 -0.4413 -0.1023
 1709TIP3    H126542   6.367   0.197  15.203  0.2589 -0.6145  0.1580
 1709TIP3    H226543   6.253   0.102  15.172 -1.0738  1.4889 -1.5647
 1710TIP3   OH226544   1.625   6.068   2.318  0.1612  0.9476 -0.3382
 1710TIP3    H126545   1.538   6.029   2.306  0.7306 -0.7332  0.7873
 1710TIP3    H226546   1.660   6.024   2.396  1.7810  2.0514 -0.4255
 1711TIP3   OH226547   3.849   3.992  15.318  0.0264 -0.3985 -0.5099
 1711TIP3    H126548   3.778   4.040  15.362  0.1311  0.2050 -0.9906
 1711TIP3    H226549   3.913   4.059  15.297  1.0739 -1.0494  0.5457
 1712TIP3   OH226550   3.636   2.286   2.117 -0.5837 -0.7927  0.1972
 1712TIP3    H126551   3.550   2.320   2.092 -0.2020 -0.4487 -0.6585
 1712TIP3    H226552   3.663   2.341   2.191 -1.6239 -1.6800  1.2530
 1713TIP3   OH226553   1.160   3.044  10.507 -0.4749 -0.0778 -0.3379
 1713TIP3    H126554   1.230   3.078  10.452 -1.7205  1.2128 -1.1687
 1713TIP3    H226555   1.149   3.109  10.576 -0.4048 -0.6135  0.1909
 1714TIP3   OH226556   2.727   6.414   6.549  0.3499  0.9700 -0.5821
 1714TIP3    H126557   2.770   6.380   6.471 -1.9357 -0.2397 -1.3911
 1714TIP3    H226558   2.709   6.506   6.529  1.0719  1.0423 -0.8869
 1715TIP3   OH226559   0.280   2.609   3.850  0.2133 -0.4386  0.1202
 1715TIP3    H126560   0.322   2.669   3.912 -0.0297  0.6536 -0.7570
 1715TIP3    H226561   0.344   2.539   3.838  0.3242 -0.5844  1.4818
 1716TIP3   OH226562   2.803   4.625   0.877 -0.0865 -0.3385 -0.2783
 1716TIP3    H126563   2.726   4.601   0.826  0.0812 -1.4017 -0.0308
 1716TIP3    H226564   2.877   4.585   0.831  0.4894  1.7359 -1.2402
 1717TIP3   OH226565   3.099   3.797   4.787 -0.2805  0.2371  0.3706
 1717TIP3    H126566   3.105   3.871   4.847 -0.5029 -0.9220  1.8366
 1717TIP3    H226567   3.189   3.783   4.758 -0.4490  2.1028 -1.2271
 1718TIP3   OH226568   0.734   0.521   3.583 -0.4364  0.0346 -0.4242
 1718TIP3    H126569   0.769   0.511   3.495 -0.1088 -1.9155 -0.0896
 1718TIP3    H226570   0.743   0.615   3.602  1.3352  0.1385 -1.6972
 1719TIP3   OH226571   0.174   1.715  15.356  0.5084  0.4236  0.2902
 1719TIP3    H126572   0.156   1.624  15.335 -0.5140  0.8042 -0.4864
 1719TIP3    H226573   0.242   1.711  15.423 -0.9101 -0.9546  1.6647
 1720TIP3   OH226574   4.002   3.479   6.185  0.0430  0.0104 -0.0500
 1720TIP3    H126575   3.966   3.424   6.116  0.1386 -0.4059  0.2311
 1720TIP3    H226576   3.926   3.520   6.226  0.0489  1.0937 -1.0896
 1721TIP3   OH226577   1.927   5.521   0.323  0.1024  0.4020  0.0556
 1721TIP3    H126578   1.961   5.529   0.233  0.0113  0.7063  0.0452
 1721TIP3    H226579   1.856   5.457   0.316 -0.0965  0.6406 -0.1472
 1722TIP3   OH226580   4.101   2.385   5.991  0.5433 -0.3390  0.3875
 1722TIP3    H126581   4.100   2.469   5.945  0.9394 -1.6902 -2.1573
 1722TIP3    H226582   4.192   2.374   6.018  0.8540 -0.7156 -0.7733
 1723TIP3   OH226583   2.960   2.389   1.804 -0.6841 -0.5308  0.3364
 1723TIP3    H126584   3.006   2.452   1.748 -1.2053  0.1485  0.6580
 1723TIP3    H226585   2.867   2.404   1.785 -0.7434 -3.7665 -2.3141
 1724TIP3   OH226586   4.808   5.766   6.122 -0.8128  0.1655  0.4608
 1724TIP3    H126587   4.832   5.858   6.135  0.0969  0.0611 -0.4082
 1724TIP3    H226588   4.863   5.737   6.049 -1.5896 -0.8754  0.2753
 1725TIP3   OH226589   4.423   2.625  15.298  0.3315  0.3706  0.0946
 1725TIP3    H126590   4.364   2.557  15.266  1.6625 -0.0518 -1.5136
 1725TIP3    H226591   4.401   2.635  15.391 -2.0175 -0.0309 -0.3961
 1726TIP3   OH226592   4.690   4.722   2.730  0.1824 -0.4905  0.4669
 1726TIP3    H126593   4.722   4.727   2.820 -2.1135 -0.3099  1.3014
 1726TIP3    H226594   4.740   4.650   2.691  0.1054 -1.6049  2.3451
 1727TIP3   OH226595   0.282   1.850   1.028 -0.4985 -0.0131  0.2456
 1727TIP3    H126596   0.258   1.907   0.955  2.4972  0.0603 -0.7594
 1727TIP3    H226597   0.258   1.899   1.106 -1.0580  1.1611 -0.6516
 1728TIP3   OH226598   6.600   6.413  13.856 -0.3750 -0.2130  0.2105
 1728TIP3    H126599   6.528   6.450  13.804 -0.7473 -0.5304  0.4975
 1728TIP3    H226600   6.592   6.456  13.941 -0.4486 -0.5246  0.3578
 1729TIP3   OH226601   2.353   0.391  16.714  0.3959  0.4367 -0.2719
 1729TIP3    H126602   2.274   0.362  16.759  1.2700 -0.5508  0.6755
 1729TIP3    H226603   2.343   0.486  16.706 -1.1943  0.2395 -0.8123
 1730TIP3   OH226604   1.740   5.087   6.103  0.0723  0.1643  0.4501
 1730TIP3    H126605   1.778   5.174   6.093 -1.3549  0.7607  0.0805
 1730TIP3    H226606   1.649   5.103   6.128 -0.4868 -1.2054 -0.6342
 1731TIP3   OH226607   5.847   3.999   4.358  0.1979  0.3125 -0.3121
 1731TIP3    H126608   5.924   3.996   4.302 -0.7518  0.5935 -1.6648
 1731TIP3    H226609   5.818   4.090   4.353 -0.9645 -0.0778 -0.8617
 1732TIP3   OH226610   5.786   3.919   2.402 -0.1514 -0.2228  0.0362
 1732TIP3    H126611   5.804   3.829   2.377 -0.7414 -0.7632  1.5143
 1732TIP3    H226612   5.698   3.936   2.370  0.0317 -0.1020 -0.4088
 1733TIP3   OH226613   2.161   4.948  11.800  0.0113  0.2564 -0.2713
 1733TIP3    H126614   2.163   5.027  11.854  0.8176 -0.2678  0.4866
 1733TIP3    H226615   2.234   4.959  11.739 -0.7549  0.7399 -1.1266
 1734TIP3   OH226616   4.052   5.176  16.760  0.5407 -0.4802  0.2526
 1734TIP3    H126617   4.013   5.215  16.682 -0.7186 -1.1402  0.5509
 1734TIP3    H226618   4.129   5.130  16.727  0.4395 -0.1218 -0.4919
 1735TIP3   OH226619   0.887   3.537   4.211 -0.0642 -0.0418  0.2442
 1735TIP3    H126620   0.904   3.497   4.125  1.6588  0.2122  0.4560
 1735TIP3    H226621   0.970   3.578   4.235 -1.1107  1.5529  1.1626
 1736TIP3   OH226622   2.263   6.241  15.291 -0.1398  0.0091  0.2935
 1736TIP3    H126623   2.247   6.335  15.287 -2.0897 -0.3150 -0.0373
 1736TIP3    H226624   2.332   6.225  15.227 -0.7707  1.0310 -0.6630
 1737TIP3   OH226625   3.362   5.118   2.118  0.1477  0.3149 -0.7692
 1737TIP3    H126626   3.445   5.139   2.074  0.6045 -0.8358 -0.4840
 1737TIP3    H226627   3.386   5.051   2.182 -0.5222  1.9120  1.1942
 1738TIP3   OH226628   2.814   4.861  15.566  0.7186  0.3523 -0.0014
 1738TIP3    H126629   2.882   4.824  15.511 -0.6770 -0.1518 -1.4219
 1738TIP3    H226630   2.809   4.802  15.641  2.3875  0.8508  0.5207
 1739TIP3   OH226631   3.347   3.563   3.310 -0.2418  0.1398  0.5070
 1739TIP3    H126632   3.334   3.557   3.404 -0.7254 -1.6987  0.3457
 1739TIP3    H226633   3.441   3.550   3.297 -0.4161 -1.3473  0.6297
 1740TIP3   OH226634   0.733   2.194  12.388  0.3147 -0.0711 -0.3621
 1740TIP3    H126635   0.722   2.283  12.354 -0.0937  0.3847  0.9359
 1740TIP3    H226636   0.649   2.174  12.429 -0.1877 -1.7133 -2.0990
 1741TIP3   OH226637   5.667   3.648  14.883  0.0399  0.5294 -0.5553
 1741TIP3    H126638   5.603   3.716  14.861  0.4223  1.2665  0.5715
 1741TIP3    H226639   5.746   3.674  14.837 -0.5909 -0.6712 -2.3875
 1742TIP3   OH226640   4.161   1.592  10.475  0.4861  0.3558  0.6699
 1742TIP3    H126641   4.157   1.500  10.449 -0.1544  0.5326  0.1335
 1742TIP3    H226642   4.162   1.589  10.571 -1.0866 -0.1710  0.6882
 1743TIP3   OH226643   5.551   3.886  12.475 -0.2719 -0.2640  0.2598
 1743TIP3    H126644   5.582   3.952  12.536  1.3587 -2.0472  1.4129
 1743TIP3    H226645   5.461   3.913  12.454 -0.4368  1.0452  2.5047
 1744TIP3   OH226646   5.699   5.260   1.932  0.2127 -0.2860 -0.0589
 1744TIP3    H126647   5.729   5.179   1.972  2.3633  1.0596  1.1710
 1744TIP3    H226648   5.776   5.295   1.887 -1.2487  0.0173 -2.4179
 1745TIP3   OH226649   1.087   0.426  15.019  0.6526 -0.4308 -0.3571
 1745TIP3    H126650   1.151   0.442  14.951  0.2221  1.2372 -0.3926
 1745TIP3    H226651   1.127   0.360  15.075  1.8847 -0.2769 -1.0494
 1746TIP3   OH226652   3.329   1.916  12.793  0.2209  0.4489  0.1162
 1746TIP3    H126653   3.396   1.864  12.837  1.2383  0.2440 -1.6071
 1746TIP3    H226654   3.320   1.874  12.707 -3.0542 -0.3215  0.7605
 1747TIP3   OH226655   2.879   3.658   5.804 -0.1524  0.1439  0.2171
 1747TIP3    H126656   2.948   3.647   5.870  0.7607  0.2350 -0.7107
 1747TIP3    H226657   2.899   3.593   5.737 -1.6930 -0.6693  0.5387
 1748TIP3   OH226658   5.220   1.563   5.408  0.2167  0.2683 -0.1727
 1748TIP3    H126659   5.307   1.575   5.447  0.6593 -1.1446 -0.7169
 1748TIP3    H226660   5.230   1.489   5.349 -1.6631 -0.7144  0.6928
 1749TIP3   OH226661   5.955   5.520   4.830 -0.2279 -0.4594  0.0801
 1749TIP3    H126662   5.881   5.531   4.770 -1.5494  0.4468  1.8338
 1749TIP3    H226663   6.001   5.442   4.798 -0.4253  0.4775 -2.5713
 1750TIP3   OH226664   3.788   3.175  17.191 -0.0215 -0.4917  0.7673
 1750TIP3    H126665   3.861   3.151  17.135 -1.3783 -1.1086 -0.7921
 1750TIP3    H226666   3.791   3.112  17.264  0.1117 -1.4816 -0.0831
 1751TIP3   OH226667   4.559   1.451  12.385 -0.8093  0.0233 -1.0885
 1751TIP3    H126668   4.516   1.467  12.469  2.0269  1.1406  0.1954
 1751TIP3    H226669   4.641   1.408  12.407  0.2393  0.8263 -3.2226
 1752TIP3   OH226670   5.906   4.246   3.808 -0.6055  0.0230  0.3439
 1752TIP3    H126671   5.817   4.275   3.790 -0.4506 -1.4647 -3.1775
 1752TIP3    H226672   5.962   4.309   3.764 -0.0829 -1.3272 -0.9943
 1753TIP3   OH226673   4.267   4.548   5.898 -0.1937  0.3393  0.3163
 1753TIP3    H126674   4.209   4.614   5.936  0.7060  0.1298  2.1258
 1753TIP3    H226675   4.348   4.596   5.878  0.3890 -0.1491  1.4465
 1754TIP3   OH226676   1.394   1.781  12.068 -0.1592 -0.2879 -0.2124
 1754TIP3    H126677   1.427   1.835  12.140  0.3110 -0.6004 -0.1890
 1754TIP3    H226678   1.459   1.791  11.998 -0.4058 -0.3061 -0.4473
 1755TIP3   OH226679   1.592   0.596   0.162 -0.3064  0.1863  0.1299
 1755TIP3    H126680   1.544   0.527   0.116 -0.5963  0.6269 -0.2384
 1755TIP3    H226681   1.586   0.672   0.104 -0.3930  0.6565  0.7440
 1756TIP3   OH226682   0.108   1.279  12.044  0.5056  0.7405 -0.3528
 1756TIP3    H126683   0.187   1.225  12.033 -0.6055 -0.7659 -1.1987
 1756TIP3    H226684   0.113   1.344  11.973  2.0641  2.0486  0.9261
 1757TIP3   OH226685   5.367   0.489   1.285  0.6823  0.1729 -0.2781
 1757TIP3    H126686   5.354   0.397   1.263 -1.1629 -0.1471  2.0210
 1757TIP3    H226687   5.455   0.494   1.320  1.0097 -0.5929 -0.9917
 1758TIP3   OH226688   0.420   1.607  15.101 -0.3936  0.3210 -0.0433
 1758TIP3    H126689   0.339   1.561  15.122  0.8555 -1.6347  0.6155
 1758TIP3    H226690   0.476   1.593  15.177  0.2572  2.4246 -0.1005
 1759TIP3   OH226691   5.377   2.056  12.177  0.1926 -0.3312 -0.1582
 1759TIP3    H126692   5.330   2.020  12.101 -0.4472  0.2946 -0.0628
 1759TIP3    H226693   5.336   2.141  12.192  0.0945 -0.5895  1.0855
 1760TIP3   OH226694   2.151   5.428  13.331 -0.0115  0.1662  0.8212
 1760TIP3    H126695   2.069   5.471  13.307 -0.3327  0.7340  2.7987
 1760TIP3    H226696   2.219   5.483  13.292 -0.5231  0.8518  0.8770
 1761TIP3   OH226697   0.676   4.809  13.152 -0.2396 -0.2614 -0.1972
 1761TIP3    H126698   0.769   4.805  13.173 -0.5309  2.6163  1.9466
 1761TIP3    H226699   0.658   4.902  13.140 -3.1845 -0.6099  1.1215
 1762TIP3   OH226700   6.779   4.822  13.929 -0.1895 -0.0045  0.3110
 1762TIP3    H126701   6.830   4.886  13.879 -0.2449 -0.2538 -0.0646
 1762TIP3    H226702   6.845   4.769  13.974 -0.1222 -0.1743  0.0138
 1763TIP3   OH226703   2.239   0.885   2.883  0.1268  0.0600 -0.2724
 1763TIP3    H126704   2.218   0.865   2.792  0.7609 -1.8848 -0.0189
 1763TIP3    H226705   2.334   0.881   2.888  0.2071  1.9648  0.0956
 1764TIP3   OH226706   5.005   4.628  13.140 -0.3277  0.5969  0.2391
 1764TIP3    H126707   5.027   4.535  13.130 -1.7865  0.5677 -3.7494
 1764TIP3    H226708   5.086   4.670  13.168  1.8895 -1.1148 -3.2882
 1765TIP3   OH226709   4.066   6.549  10.903  0.0557 -0.3195  0.4130
 1765TIP3    H126710   4.093   6.474  10.956  0.5046  0.2038  0.9294
 1765TIP3    H226711   4.005   6.597  10.959 -0.8086 -0.6902 -0.1957
 1766TIP3   OH226712   5.473   4.371   6.638 -0.0502  0.2267 -0.4691
 1766TIP3    H126713   5.546   4.308   6.639  1.2693  1.7326 -0.0394
 1766TIP3    H226714   5.513   4.454   6.663 -1.7183  1.3140 -1.3418
 1767TIP3   OH226715   3.974   2.170   6.377 -0.6457  0.0829  0.0120
 1767TIP3    H126716   3.960   2.203   6.288 -0.4691 -2.1084 -0.8685
 1767TIP3    H226717   3.890   2.186   6.421  0.6183  5.1771  0.8681
 1768TIP3   OH226718   4.519   4.643  14.413 -0.5396 -0.5998  0.3927
 1768TIP3    H126719   4.540   4.554  14.440 -0.8407 -0.1315  2.2372
 1768TIP3    H226720   4.532   4.696  14.492 -3.0085  0.5820  0.0699
 1769TIP3   OH226721   4.164   1.075   1.225 -0.1013 -0.2833  0.1548
 1769TIP3    H126722   4.080   1.028   1.218 -0.4895  0.2185  1.2949
 1769TIP3    H226723   4.151   1.135   1.298  1.7266 -1.1969  1.2608
 1770TIP3   OH226724   6.750   4.984   5.157 -0.4679  0.0063 -0.1828
 1770TIP3    H126725   6.845   4.979   5.146 -0.4487 -3.1419  0.8669
 1770TIP3    H226726   6.737   4.975   5.252 -1.8836 -1.3110 -0.4948
 1771TIP3   OH226727   0.965   3.665   1.919  0.1032 -0.6628  0.0628
 1771TIP3    H126728   0.923   3.677   1.834  1.1497 -1.1241 -0.5215
 1771TIP3    H226729   0.960   3.751   1.961 -2.0845 -0.8799  0.3117
 1772TIP3   OH226730   6.332   2.559  15.306 -0.0666 -0.8563 -0.0078
 1772TIP3    H126731   6.353   2.518  15.222  0.5623 -0.8546  0.1464
 1772TIP3    H226732   6.355   2.492  15.371  1.4122 -0.0979  0.2717
 1773TIP3   OH226733   2.104   5.842   0.932  0.0159  0.2028  0.2247
 1773TIP3    H126734   2.080   5.869   1.021 -0.1095  0.9169 -0.0277
 1773TIP3    H226735   2.034   5.875   0.877 -0.4066 -1.0924 -0.0261
 1774TIP3   OH226736   1.475   1.109   4.414  0.1693 -0.0304  0.1385
 1774TIP3    H126737   1.560   1.108   4.458  0.3369  0.9136 -0.1437
 1774TIP3    H226738   1.494   1.088   4.323 -0.0424 -0.9110  0.2943
 1775TIP3   OH226739   5.657   1.931  12.117  0.4534  0.0217 -0.0965
 1775TIP3    H126740   5.603   1.886  12.053  0.9009  0.0307 -0.4875
 1775TIP3    H226741   5.596   1.958  12.186  0.3956 -2.4976  0.9068
 1776TIP3   OH226742   0.997   6.269  16.194  0.0418 -0.2932  0.3336
 1776TIP3    H126743   1.045   6.202  16.146  0.0542  1.6804 -2.6073
 1776TIP3    H226744   0.914   6.277  16.147 -0.4145  0.9331  1.3155
 1777TIP3   OH226745   4.805   5.725   0.923 -0.0548  0.7679 -0.3110
 1777TIP3    H126746   4.857   5.674   0.861 -0.3795  0.6314 -0.4694
 1777TIP3    H226747   4.738   5.665   0.954  0.6863  0.5478  0.9049
 1778TIP3   OH226748   5.398   1.034  13.913 -0.5509  0.0717 -0.4543
 1778TIP3    H126749   5.440   0.950  13.893 -1.3166 -0.4550  0.0760
 1778TIP3    H226750   5.407   1.086  13.833  0.6034 -0.2390 -0.5255
 1779TIP3   OH226751   2.966   2.612   2.261  0.7052  0.3565  0.5402
 1779TIP3    H126752   2.870   2.617   2.269  0.5726  0.7554 -1.1125
 1779TIP3    H226753   2.986   2.663   2.183  2.4725  2.0170  2.0026
 1780TIP3   OH226754   0.919   6.721  16.059 -0.1658 -0.0125  0.4367
 1780TIP3    H126755   0.976   6.749  15.987  0.0281 -1.5043 -0.0008
 1780TIP3    H226756   0.980   6.690  16.127 -0.4226 -0.8890  0.2722
 1781TIP3   OH226757   4.902   6.629   3.029 -0.4499  0.3992  0.3921
 1781TIP3    H126758   4.988   6.616   3.069  0.5268  0.5254 -1.5907
 1781TIP3    H226759   4.850   6.555   3.059  1.7642 -2.2381 -2.0504
 1782TIP3   OH226760   6.329   1.114  16.381  0.3556 -0.2822 -0.0118
 1782TIP3    H126761   6.319   1.175  16.308 -0.6023 -0.5611 -0.1139
 1782TIP3    H226762   6.280   1.153  16.453  0.5142 -0.4754  0.2068
 1783TIP3   OH226763   5.557   2.274  11.121 -0.2998  0.2871 -0.2322
 1783TIP3    H126764   5.547   2.204  11.056  1.6758 -0.0766 -0.1700
 1783TIP3    H226765   5.500   2.248  11.193 -0.9016 -0.3823 -0.9403
 1784TIP3   OH226766   3.023   5.935  14.919  0.4158  0.3815  0.1053
 1784TIP3    H126767   2.942   5.885  14.925  0.1030  0.9080  0.2831
 1784TIP3    H226768   3.035   5.973  15.006  0.8511  0.3067  0.0788
 1785TIP3   OH226769   2.901   1.471   6.367  0.1492  0.4070 -0.1552
 1785TIP3    H126770   2.927   1.379   6.376 -1.4732 -0.3690 -2.8671
 1785TIP3    H226771   2.964   1.509   6.307 -0.9713  0.2302 -1.4787
 1786TIP3   OH226772   2.883   0.656  12.421  0.6824  0.4559  0.0746
 1786TIP3    H126773   2.821   0.721  12.455  0.8771  1.7786 -2.0341
 1786TIP3    H226774   2.962   0.669  12.473  0.8093  2.1124 -0.5029
 1787TIP3   OH226775   1.030   4.465  12.324  0.4533 -0.5279 -0.2928
 1787TIP3    H126776   1.087   4.499  12.392 -0.4466  1.0294 -0.2948
 1787TIP3    H226777   0.946   4.449  12.368  0.0783 -0.1872 -0.8766
 1788TIP3   OH226778   1.512   0.260   0.458 -0.8667  0.1437  0.1301
 1788TIP3    H126779   1.570   0.198   0.501 -0.7400  0.0783 -0.1289
 1788TIP3    H226780   1.509   0.230   0.367 -0.5448  0.7052 -0.0677
 1789TIP3   OH226781   5.044   0.115   4.946  0.6151 -0.1411  0.6147
 1789TIP3    H126782   4.982   0.046   4.920  0.2908  0.1906  0.5031
 1789TIP3    H226783   5.114   0.068   4.992  0.8999 -0.6703 -0.3359
 1790TIP3   OH226784   5.262   1.442  11.852  0.1983  0.0708  0.1912
 1790TIP3    H126785   5.209   1.362  11.847 -0.6053  0.5005  1.6387
 1790TIP3    H226786   5.198   1.513  11.845  0.8844  0.6049 -0.8303
 1791TIP3   OH226787   6.485   4.830   0.600 -0.0810  0.7605  0.4111
 1791TIP3    H126788   6.574   4.828   0.634  0.2473  0.4764 -0.4518
 1791TIP3    H226789   6.452   4.741   0.613 -0.0821  0.7501  0.3434
 1792TIP3   OH226790   0.557   4.394   3.412 -0.4314  0.2484  0.3873
 1792TIP3    H126791   0.596   4.344   3.484 -0.3823 -0.6461 -0.2471
 1792TIP3    H226792   0.487   4.445   3.453 -0.4452 -0.3045  1.0634
 1793TIP3   OH226793   0.301   0.033  15.642  0.6606 -0.2042 -0.4764
 1793TIP3    H126794   0.248   0.106  15.611 -0.4001 -0.7200  0.1082
 1793TIP3    H226795   0.369   0.023  15.576  0.3063  0.7628 -0.9897
 1794TIP3   OH226796   3.175   4.798   0.657 -0.5771 -0.2964  0.4044
 1794TIP3    H126797   3.230   4.747   0.597  0.8776 -0.7275  2.0516
 1794TIP3    H226798   3.163   4.882   0.614  0.6898 -0.5041 -0.3690
 1795TIP3   OH226799   6.374   4.723   5.915  0.1692 -0.3753  0.3646
 1795TIP3    H126800   6.375   4.696   6.007  1.0771  0.7608  0.6927
 1795TIP3    H226801   6.435   4.662   5.872  0.9728  0.0999  0.8124
 1796TIP3   OH226802   3.304   0.130  16.565  0.0165 -0.3883  0.3219
 1796TIP3    H126803   3.308   0.219  16.601 -0.7839 -0.6094  0.9726
 1796TIP3    H226804   3.333   0.140  16.474  0.5907  0.4269  0.5912
 1797TIP3   OH226805   1.804   3.905  14.726 -0.5908  0.1371  1.2362
 1797TIP3    H126806   1.757   3.986  14.704 -0.4939 -0.1969 -0.2300
 1797TIP3    H226807   1.756   3.870  14.801 -1.6515  0.6958  0.8371
 1798TIP3   OH226808   0.552   6.703  14.404 -0.0204  0.3646 -0.3578
 1798TIP3    H126809   0.633   6.739  14.368 -0.3857  0.0864 -1.4601
 1798TIP3    H226810   0.562   6.713  14.499  1.8019 -0.7179 -0.4143
 1799TIP3   OH226811   3.883   2.710   4.054  0.2444 -0.4898 -0.2895
 1799TIP3    H126812   3.871   2.732   3.962 -0.5235 -0.6667 -0.2276
 1799TIP3    H226813   3.798   2.677   4.083  1.7999 -5.4225 -0.8927
 1800TIP3   OH226814   4.469   1.928  16.824 -0.3019  0.5175  0.2580
 1800TIP3    H126815   4.411   2.001  16.845 -0.2793  0.9925 -1.2721
 1800TIP3    H226816   4.533   1.965  16.764 -0.3950 -0.8145 -0.6836
 1801TIP3   OH226817   4.479   6.778  15.514 -0.1598  0.3509 -0.4465
 1801TIP3    H126818   4.417   6.715  15.549 -0.5252  0.6928 -0.4827
 1801TIP3    H226819   4.448   6.796  15.425  0.3168  0.0843 -0.6733
 1802TIP3   OH226820   1.576   2.513   3.404  0.5193  0.1504  0.7292
 1802TIP3    H126821   1.552   2.520   3.311  1.3477 -0.1330  0.4886
 1802TIP3    H226822   1.499   2.545   3.451 -0.6150 -1.3982 -0.0056
 1803TIP3   OH226823   0.798   3.827  17.091 -0.2507  0.1025  0.0441
 1803TIP3    H126824   0.833   3.796  17.175  1.8560 -2.1736 -1.6018
 1803TIP3    H226825   0.760   3.749  17.051 -1.8135  1.3103 -0.8946
 1804TIP3   OH226826   5.066   4.632  11.204 -0.2406 -0.0646 -0.0568
 1804TIP3    H126827   5.134   4.637  11.137  0.3109  2.2646  0.5980
 1804TIP3    H226828   5.039   4.723  11.217 -0.8460 -0.5450  2.3586
 1805TIP3   OH226829   6.601   5.996  14.870  0.2934 -0.5760  0.4633
 1805TIP3    H126830   6.586   5.947  14.950 -1.3645 -2.5298 -0.9816
 1805TIP3    H226831   6.680   5.957  14.832 -0.2177 -1.2095  0.0305
 1806TIP3   OH226832   4.245   1.263   1.465  0.1164 -0.0397  0.4111
 1806TIP3    H126833   4.224   1.322   1.538  0.7354 -0.3616  0.8569
 1806TIP3    H226834   4.320   1.304   1.421 -0.8995  0.6758 -0.6645
 1807TIP3   OH226835   4.363   2.644  16.270  0.0740  0.3466 -0.1986
 1807TIP3    H126836   4.432   2.637  16.204  0.6093 -2.6135  0.6031
 1807TIP3    H226837   4.284   2.614  16.227 -0.3077  1.7675 -0.5039
 1808TIP3   OH226838   4.477   5.544  15.433 -0.6051  0.1913  0.1531
 1808TIP3    H126839   4.391   5.581  15.413 -0.0240  1.6746  0.3725
 1808TIP3    H226840   4.532   5.569  15.359  0.0267  0.5505  0.7422
 1809TIP3   OH226841   6.443   0.886   2.392  0.4169  0.9746  0.2429
 1809TIP3    H126842   6.430   0.979   2.373  1.9093  0.7939 -1.7615
 1809TIP3    H226843   6.380   0.841   2.335  1.1454  0.6626 -0.3146
 1810TIP3   OH226844   1.148   4.847   0.270  0.0762  0.3766  0.5165
 1810TIP3    H126845   1.211   4.909   0.233  0.9648 -0.5073  0.5180
 1810TIP3    H226846   1.131   4.880   0.358 -0.7789  1.5666 -0.0803
 1811TIP3   OH226847   1.099   4.622  11.199 -0.1106  0.0761  0.1779
 1811TIP3    H126848   1.164   4.635  11.268 -1.0887  1.5515  0.8368
 1811TIP3    H226849   1.032   4.568  11.240 -0.3702  0.4010  0.1814
 1812TIP3   OH226850   3.644   5.891   3.240  0.5941  0.2691  0.6721
 1812TIP3    H126851   3.592   5.818   3.275  1.9034 -0.3580  1.3161
 1812TIP3    H226852   3.583   5.936   3.181  0.0029 -1.8619 -0.4448
 1813TIP3   OH226853   0.554   0.345  15.068 -0.2024 -0.2052 -0.0958
 1813TIP3    H126854   0.525   0.409  15.134 -0.2667  1.5358 -1.7486
 1813TIP3    H226855   0.643   0.372  15.047 -1.3543  1.4469 -3.2016
 1814TIP3   OH226856   4.856   2.274   6.147 -0.3070 -0.1887  0.3442
 1814TIP3    H126857   4.928   2.253   6.088 -0.3229  1.7495 -0.3842
 1814TIP3    H226858   4.893   2.337   6.209 -1.0400 -0.1474  0.7494
 1815TIP3   OH226859   1.107   0.850  11.694 -0.1059 -0.6811 -0.3229
 1815TIP3    H126860   1.157   0.768  11.688 -1.7688 -1.9512  2.0430
 1815TIP3    H226861   1.016   0.821  11.703 -0.6210  1.3679  1.5169
 1816TIP3   OH226862   0.010   2.758  10.560  0.3010 -0.4910  0.6117
 1816TIP3    H126863  -0.062   2.741  10.500  1.7391  0.8301 -1.5639
 1816TIP3    H226864   0.055   2.674  10.570  3.3667  0.2984 -4.6962
 1817TIP3   OH226865   4.251   3.123   0.538 -0.2139 -0.5279  0.1759
 1817TIP3    H126866   4.241   3.218   0.533  1.0766 -0.3831  0.2924
 1817TIP3    H226867   4.221   3.091   0.453  1.8315  0.2055 -0.8557
 1818TIP3   OH226868   4.960   4.699   3.324  0.0020 -0.1392 -0.3007
 1818TIP3    H126869   5.023   4.719   3.393 -1.1836  0.1834  0.7033
 1818TIP3    H226870   4.954   4.780   3.273  0.6057 -0.2578 -0.5542
 1819TIP3   OH226871   0.529   5.381  12.486 -0.0010 -0.3430  0.1967
 1819TIP3    H126872   0.588   5.383  12.410  0.1353 -1.1447  0.2784
 1819TIP3    H226873   0.481   5.298  12.476 -2.2294  1.0104 -0.7239
 1820TIP3   OH226874   0.632   1.622   6.092  0.0501 -0.0159 -0.2606
 1820TIP3    H126875   0.556   1.652   6.142 -0.3879  0.7193 -1.3440
 1820TIP3    H226876   0.596   1.560   6.028  0.3892  0.1732 -0.6371
 1821TIP3   OH226877   0.169   1.999   1.753  0.1887 -0.2670  0.2900
 1821TIP3    H126878   0.118   2.009   1.673  2.1386  1.6655 -0.7579
 1821TIP3    H226879   0.104   1.974   1.820 -1.7350 -0.0792 -1.4627
 1822TIP3   OH226880   2.106   6.718  15.870 -0.5360 -0.1382  0.4985
 1822TIP3    H126881   2.105   6.740  15.963 -0.6644 -0.4213  0.5643
 1822TIP3    H226882   2.061   6.790  15.827 -0.0491  0.2310  0.6061
 1823TIP3   OH226883   0.916   0.224   0.620 -0.0415  0.7068 -0.7462
 1823TIP3    H126884   0.876   0.198   0.537 -1.4982  1.5842 -0.3303
 1823TIP3    H226885   0.997   0.267   0.595 -0.4088  0.8545 -1.7050
 1824TIP3   OH226886   0.558   3.549  14.892  0.0307  0.1073  0.0605
 1824TIP3    H126887   0.593   3.559  14.981  1.0131 -0.0324 -0.3072
 1824TIP3    H226888   0.571   3.635  14.852 -0.1381  0.0843 -0.0427
 1825TIP3   OH226889   1.173   1.141  15.606 -0.2356 -0.2975 -0.2297
 1825TIP3    H126890   1.081   1.168  15.601 -0.5175 -0.8516  1.6962
 1825TIP3    H226891   1.174   1.070  15.669  1.2704 -1.4993 -1.5651
 1826TIP3   OH226892   2.331   0.891  13.936  0.7190 -0.1196 -0.1557
 1826TIP3    H126893   2.412   0.889  13.988  1.4239  1.6171 -1.1757
 1826TIP3    H226894   2.342   0.822  13.871  0.3691 -1.4583  1.1817
 1827TIP3   OH226895   6.410   0.518   6.270  0.1108  0.2855  0.2178
 1827TIP3    H126896   6.431   0.515   6.176  0.1847  1.4963  0.1834
 1827TIP3    H226897   6.473   0.457   6.310  0.6638  0.4234 -0.4212
 1828TIP3   OH226898   6.316   1.717  12.427 -0.1094  0.0208  0.3446
 1828TIP3    H126899   6.256   1.723  12.353  0.3953 -2.8573 -0.3489
 1828TIP3    H226900   6.275   1.655  12.487  2.1347 -2.0823 -0.1921
 1829TIP3   OH226901   2.305   4.238   5.963  0.8939  0.6136 -0.6637
 1829TIP3    H126902   2.389   4.195   5.979  1.1940  1.3528 -0.2265
 1829TIP3    H226903   2.329   4.328   5.940  0.1583  1.1668  0.7238
 1830TIP3   OH226904   0.906   2.878  16.847  0.3147 -0.0618 -0.4192
 1830TIP3    H126905   0.830   2.821  16.857 -0.1020  0.2117 -1.9083
 1830TIP3    H226906   0.888   2.952  16.905 -1.0098  0.4508 -1.4454
 1831TIP3   OH226907   1.539   1.300   5.299  0.0335  0.7819  0.4471
 1831TIP3    H126908   1.514   1.387   5.267 -1.1339  0.1926 -0.2629
 1831TIP3    H226909   1.459   1.249   5.295  1.3030 -1.1346 -1.8096
 1832TIP3   OH226910   5.984   2.235   6.211 -0.2937 -0.1250 -0.0742
 1832TIP3    H126911   6.040   2.311   6.226 -0.2477 -0.4054  1.1885
 1832TIP3    H226912   5.967   2.236   6.116 -1.8631  2.5610  0.1897
 1833TIP3   OH226913   3.490   6.641   3.928 -0.1265  0.2984  0.8473
 1833TIP3    H126914   3.564   6.689   3.892  0.9294 -0.9632  1.2974
 1833TIP3    H226915   3.420   6.706   3.936  1.3208  1.7882  1.6122
 1834TIP3   OH226916   3.665   4.680   2.311 -0.2448  0.2599 -0.0103
 1834TIP3    H126917   3.759   4.663   2.304  0.0697  1.4215  1.3602
 1834TIP3    H226918   3.634   4.681   2.220  1.1620  0.3969 -0.4932
 1835TIP3   OH226919   5.398   2.215  13.796  0.2246 -0.2692 -0.4566
 1835TIP3    H126920   5.392   2.300  13.840  0.1791 -0.4156 -0.1728
 1835TIP3    H226921   5.460   2.229  13.725 -1.6551  0.6537 -1.9515
 1836TIP3   OH226922   5.852   2.645  16.440 -0.5187 -0.1031  0.0046
 1836TIP3    H126923   5.883   2.598  16.517 -0.3125  0.1369  0.0697
 1836TIP3    H226924   5.871   2.737  16.459  2.0456 -0.2833 -1.4941
 1837TIP3   OH226925   1.393   5.836   4.236  0.1274  0.4435 -0.1292
 1837TIP3    H126926   1.421   5.747   4.214 -0.4429  0.2844 -0.2116
 1837TIP3    H226927   1.367   5.874   4.152  0.8890  0.8732 -0.1770
 1838TIP3   OH226928   0.803   0.442  12.771  0.1525  0.0897 -0.6346
 1838TIP3    H126929   0.886   0.459  12.816 -0.2135 -1.1474  0.5300
 1838TIP3    H226930   0.829   0.393  12.693  0.4443 -0.9975  0.1419
 1839TIP3   OH226931   2.838   1.667   3.164  0.1841 -0.1074 -0.0759
 1839TIP3    H126932   2.774   1.713   3.219 -0.3128 -0.7718 -0.0882
 1839TIP3    H226933   2.922   1.708   3.186  0.1024 -0.8574  1.7233
 1840TIP3   OH226934   5.253   3.975   0.504  0.0450  0.4049  0.2868
 1840TIP3    H126935   5.220   3.891   0.538 -1.4927  0.6033 -0.6737
 1840TIP3    H226936   5.325   3.998   0.563 -1.0198 -0.4469  1.9596
 1841TIP3   OH226937   1.128   4.870   3.820 -0.4630  0.5139 -0.4211
 1841TIP3    H126938   1.175   4.915   3.890  1.5378 -3.1180  0.7357
 1841TIP3    H226939   1.042   4.849   3.858 -0.2417  0.6097  0.1331
 1842TIP3   OH226940   5.794   6.589  13.080  0.6588  0.3515 -0.3472
 1842TIP3    H126941   5.776   6.637  12.999 -3.0889 -1.2606 -0.5953
 1842TIP3    H226942   5.777   6.651  13.150 -0.2713  0.5680 -0.7534
 1843TIP3   OH226943   2.936   5.079   4.916  0.2172  0.1072  0.4212
 1843TIP3    H126944   2.879   5.007   4.943 -1.1057  1.5471  1.5649
 1843TIP3    H226945   2.926   5.083   4.821 -0.2314 -0.7610  0.4243
 1844TIP3   OH226946   5.257   3.717   0.791 -0.1811 -0.6223 -0.8597
 1844TIP3    H126947   5.306   3.649   0.837  2.0709  0.4087 -1.6589
 1844TIP3    H226948   5.247   3.684   0.702 -0.7749 -0.7233 -0.7618
 1845TIP3   OH226949   0.215   5.631  15.791 -0.1305 -0.0405 -0.6851
 1845TIP3    H126950   0.249   5.695  15.854 -1.2031 -0.9184  0.8240
 1845TIP3    H226951   0.159   5.682  15.732  0.4234  0.6990 -0.5786
 1846TIP3   OH226952   1.599   6.248  11.858  0.0605  0.0043  0.0843
 1846TIP3    H126953   1.581   6.239  11.952  0.0021 -0.5458  0.0196
 1846TIP3    H226954   1.652   6.328  11.851  1.0988 -0.6137  0.7184
 1847TIP3   OH226955   0.878   0.266  13.416  0.1793  0.3525  0.2136
 1847TIP3    H126956   0.840   0.303  13.496  0.7739  0.5986  0.3771
 1847TIP3    H226957   0.823   0.301  13.346  0.3959  1.0922  0.4106
 1848TIP3   OH226958   1.038   5.831   5.214 -0.2260 -0.3370  0.6140
 1848TIP3    H126959   0.952   5.823   5.172 -0.1880  1.3197  0.1791
 1848TIP3    H226960   1.055   5.744   5.252 -1.6209 -0.9709 -0.1862
 1849TIP3   OH226961   0.085   0.433  14.631  0.1767  0.1499  0.4783
 1849TIP3    H126962   0.047   0.515  14.601 -3.2105 -1.1162  1.0937
 1849TIP3    H226963   0.037   0.411  14.710  1.6383 -2.0045  0.8257
 1850TIP3   OH226964   3.682   2.356   0.923  0.6548 -0.0819  0.0149
 1850TIP3    H126965   3.627   2.278   0.932  2.4896 -1.2334  1.7195
 1850TIP3    H226966   3.633   2.426   0.966  0.2568 -0.9826  1.0576
 1851TIP3   OH226967   6.140   0.332  15.376  0.1621 -0.3521 -0.4758
 1851TIP3    H126968   6.197   0.265  15.338 -1.8826 -1.9959 -0.7482
 1851TIP3    H226969   6.185   0.414  15.360  3.2927 -1.7419  0.8743
 1852TIP3   OH226970   4.041   6.755  12.146 -0.6753 -0.4677  0.0945
 1852TIP3    H126971   4.019   6.838  12.190 -0.3038 -0.5132  0.3726
 1852TIP3    H226972   4.027   6.688  12.212 -1.3504 -0.6703 -0.2501
 1853TIP3   OH226973   3.768   0.570  16.020 -0.3110  0.0392 -0.0538
 1853TIP3    H126974   3.800   0.642  16.075 -1.7984  1.5906 -1.1514
 1853TIP3    H226975   3.702   0.527  16.074  0.0644 -0.0514  0.3375
 1854TIP3   OH226976   4.330   2.947   0.949  1.2129 -0.1735 -0.2933
 1854TIP3    H126977   4.344   2.853   0.937  1.2215 -0.1490 -0.4833
 1854TIP3    H226978   4.339   2.962   1.043  2.8414 -0.0941 -0.4516
 1855TIP3   OH226979   1.781   4.905   5.041  0.3804 -0.3101  0.0060
 1855TIP3    H126980   1.698   4.896   4.995  0.2190 -2.2375  0.6600
 1855TIP3    H226981   1.763   4.874   5.130  1.5812  0.0831  0.3942
 1856TIP3   OH226982   0.494   2.950   2.324  0.1783  0.2238 -0.2198
 1856TIP3    H126983   0.531   2.874   2.278  1.4555  1.7106 -1.6876
 1856TIP3    H226984   0.570   3.001   2.351 -0.7114  1.9366 -0.8811
 1857TIP3   OH226985   2.475   1.534  11.784  0.0421 -0.1902 -0.2096
 1857TIP3    H126986   2.453   1.450  11.823  0.3858 -1.3396 -2.4347
 1857TIP3    H226987   2.429   1.535  11.700  1.5023  1.0428 -1.0315
 1858TIP3   OH226988   6.167   2.296  16.219 -0.2533 -0.0746  0.0843
 1858TIP3    H126989   6.139   2.374  16.172 -0.0449  1.3557  2.2537
 1858TIP3    H226990   6.245   2.266  16.172  0.4738  1.8396  0.0234
 1859TIP3   OH226991   0.102   0.369  11.658 -0.3244 -0.2396  0.7713
 1859TIP3    H126992   0.186   0.396  11.621 -1.7167  0.9984 -1.5933
 1859TIP3    H226993   0.057   0.451  11.678 -1.1790 -0.8904  1.5646
 1860TIP3   OH226994   2.915   5.508  14.979  0.1320 -0.3047 -0.2825
 1860TIP3    H126995   2.963   5.539  14.903 -1.5862  0.5079 -1.0611
 1860TIP3    H226996   2.823   5.513  14.954 -0.4528 -0.3814  1.7041
 1861TIP3   OH226997   6.705   0.110  13.427 -0.2114  0.3254 -0.3394
 1861TIP3    H126998   6.629   0.164  13.448 -0.8396 -0.6541 -0.0517
 1861TIP3    H226999   6.707   0.044  13.496  0.1543 -0.4141 -1.0447
 1862TIP3   OH227000   0.168   1.833  14.522  0.1153 -0.2324  0.2119
 1862TIP3    H127001   0.106   1.906  14.516  0.0398 -0.0380  2.8607
 1862TIP3    H227002   0.135   1.779  14.594  0.9388 -2.1781 -0.8242
 1863TIP3   OH227003   3.839   4.731  15.567  0.2055 -0.3041  0.4042
 1863TIP3    H127004   3.839   4.780  15.649  1.2118  0.8722 -0.2747
 1863TIP3    H227005   3.927   4.694  15.562  0.9950  1.7268 -1.3463
 1864TIP3   OH227006   3.550   5.917  15.068  0.2923 -0.1495  0.1585
 1864TIP3    H127007   3.501   5.907  14.986  1.6746  0.4479 -0.7610
 1864TIP3    H227008   3.483   5.937  15.134 -0.6077  1.5168 -1.2328
 1865TIP3   OH227009   4.124   5.160   3.463  0.1599  0.0882  0.2835
 1865TIP3    H127010   4.101   5.068   3.477  0.8394 -0.1609 -0.2054
 1865TIP3    H227011   4.215   5.166   3.491  0.1103  0.6209  0.3308
 1866TIP3   OH227012   1.407   4.348  12.890  0.2046 -0.3903 -0.2928
 1866TIP3    H127013   1.440   4.404  12.819 -0.9953 -0.6071 -1.0363
 1866TIP3    H227014   1.394   4.408  12.964  2.4078 -0.3272  0.0806
 1867TIP3   OH227015   0.966   3.197   1.825  0.7536  0.2686 -0.3978
 1867TIP3    H127016   0.908   3.216   1.898  0.3449  0.2978 -0.7261
 1867TIP3    H227017   0.923   3.238   1.749  0.1613 -1.4239 -1.0075
 1868TIP3   OH227018   3.867   4.314   4.243  0.8949  0.1378 -0.2883
 1868TIP3    H127019   3.842   4.232   4.199 -1.8831  0.0017  1.3620
 1868TIP3    H227020   3.916   4.285   4.320  1.1497  0.1085 -0.4601
 1869TIP3   OH227021   3.894   0.534  13.281  0.3370  0.0844 -0.3312
 1869TIP3    H127022   3.803   0.563  13.294  0.2110 -0.3799 -0.1537
 1869TIP3    H227023   3.907   0.467  13.348  0.1666 -1.2723 -1.6168
 1870TIP3   OH227024   1.925   5.322  13.683 -0.0521 -0.5036 -0.3799
 1870TIP3    H127025   1.861   5.265  13.727  0.0041  0.4672  0.9915
 1870TIP3    H227026   1.896   5.324  13.591 -0.9215 -1.5381 -0.1414
 1871TIP3   OH227027   1.463   0.105  12.561 -0.5879  0.1282  0.7813
 1871TIP3    H127028   1.538   0.089  12.619 -0.6354  1.8967  1.3780
 1871TIP3    H227029   1.411   0.025  12.567  0.9923 -0.9225  0.7564
 1872TIP3   OH227030   1.882   3.525   1.184 -0.2026  0.2803 -0.3955
 1872TIP3    H127031   1.934   3.586   1.132 -0.2915 -0.7294 -1.7128
 1872TIP3    H227032   1.924   3.440   1.170 -0.1693  0.0061  1.2870
 1873TIP3   OH227033   2.596   0.353  12.596  0.2729 -0.7638  0.0556
 1873TIP3    H127034   2.566   0.341  12.687 -0.8042 -0.7103 -0.2879
 1873TIP3    H227035   2.518   0.381  12.549  0.9333 -0.3890 -0.8110
 1874TIP3   OH227036   4.140   2.211  16.350  0.0097  0.0029 -0.0183
 1874TIP3    H127037   4.130   2.237  16.442  0.0947 -0.1019  0.0180
 1874TIP3    H227038   4.228   2.239  16.327 -0.1775  0.4371 -0.2013
 1875TIP3   OH227039   0.517   5.513   6.818 -0.0059 -0.6203  0.7392
 1875TIP3    H127040   0.461   5.580   6.778  1.6365  1.4343  1.8007
 1875TIP3    H227041   0.591   5.505   6.757  0.3786 -0.6076  1.2050
 1876TIP3   OH227042   4.414   2.964  15.499 -0.3249 -0.2655  0.3283
 1876TIP3    H127043   4.349   2.904  15.462 -0.1131  0.9654 -2.2076
 1876TIP3    H227044   4.485   2.964  15.435  0.7934  0.7373  1.5525
 1877TIP3   OH227045   2.629   5.614   1.641  0.1435 -0.0350 -0.1118
 1877TIP3    H127046   2.621   5.526   1.676  0.4169 -0.3487 -0.8239
 1877TIP3    H227047   2.561   5.621   1.575 -0.6005  0.6779  0.7085
 1878TIP3   OH227048   5.791   4.932   1.706 -0.4483  0.0892 -0.0350
 1878TIP3    H127049   5.780   4.842   1.673 -0.5488 -0.0582  0.4001
 1878TIP3    H227050   5.720   4.944   1.769 -0.1569  0.3122  0.2549
 1879TIP3   OH227051   3.578   4.979  13.982  0.6100 -0.2432 -0.3520
 1879TIP3    H127052   3.625   4.902  13.949  0.4011 -0.2323 -0.6781
 1879TIP3    H227053   3.496   4.943  14.017  0.8761 -0.2661  0.2506
 1880TIP3   OH227054   2.722   5.169   0.167 -0.3687 -0.0062  0.5376
 1880TIP3    H127055   2.791   5.235   0.157 -0.2281 -0.0610  1.1236
 1880TIP3    H227056   2.672   5.198   0.243 -1.1131  0.1336 -0.0024
 1881TIP3   OH227057   0.599   5.333  16.995 -0.0755 -0.5515 -0.5047
 1881TIP3    H127058   0.597   5.320  17.090  1.3406  1.4695 -0.1628
 1881TIP3    H227059   0.517   5.295  16.963 -1.5861  0.6865  1.7773
 1882TIP3   OH227060   0.280   0.660  17.127 -0.2808  0.0335  0.0679
 1882TIP3    H127061   0.235   0.585  17.089  0.7707 -0.7612  0.3887
 1882TIP3    H227062   0.277   0.727  17.059 -2.2751  0.1203  0.2272
 1883TIP3   OH227063   6.125   4.836  14.322  0.1795 -0.0636 -0.0083
 1883TIP3    H127064   6.029   4.831  14.327 -0.0238  2.4854 -0.6056
 1883TIP3    H227065   6.146   4.809  14.233  0.0005 -0.4412  0.0652
 1884TIP3   OH227066   2.974   2.638   1.562  0.5372 -0.2355 -0.8430
 1884TIP3    H127067   2.951   2.664   1.473 -0.0622 -1.3185 -1.0191
 1884TIP3    H227068   3.064   2.607   1.555  1.0145  1.1024 -0.7647
 1885TIP3   OH227069   6.394   0.687  16.234  0.2749 -0.0779  0.0550
 1885TIP3    H127070   6.413   0.709  16.326 -2.0079 -0.5487  0.6642
 1885TIP3    H227071   6.299   0.679  16.231  0.3055  0.3060 -2.4616
 1886TIP3   OH227072   1.749   6.250   4.212  0.6011 -0.3679 -0.2702
 1886TIP3    H127073   1.740   6.335   4.170 -2.2514  0.8166  2.5695
 1886TIP3    H227074   1.813   6.265   4.282  1.5667 -1.0856 -0.9797
 1887TIP3   OH227075   2.893   0.225  16.857 -0.6976 -0.1677 -0.1618
 1887TIP3    H127076   2.851   0.170  16.924 -1.2138 -0.3691 -0.6498
 1887TIP3    H227077   2.846   0.308  16.862  1.6690  1.1151  2.2775
 1888TIP3   OH227078   6.432   5.003  16.778  0.1320 -0.0285  0.5178
 1888TIP3    H127079   6.460   4.939  16.713 -1.7188 -0.3353 -0.0276
 1888TIP3    H227080   6.403   4.950  16.852  1.0031  0.2706  1.0703
 1889TIP3   OH227081   6.110   1.412  14.450 -0.0531  0.2062 -0.0841
 1889TIP3    H127082   6.117   1.422  14.545  0.9883 -0.6882 -0.0686
 1889TIP3    H227083   6.088   1.320  14.437  1.1947  0.0026 -0.7744
 1890TIP3   OH227084   1.074   4.242  15.085  0.0934 -0.1645  0.2220
 1890TIP3    H127085   1.072   4.303  15.158  0.4456  0.4450 -0.2678
 1890TIP3    H227086   1.021   4.167  15.114  1.8076 -0.7816  1.8463
 1891TIP3   OH227087   0.722   0.258   1.076  0.2851  0.0462 -0.5685
 1891TIP3    H127088   0.679   0.219   1.000 -0.8817  1.0480 -0.4387
 1891TIP3    H227089   0.726   0.188   1.141 -1.7190  0.1173 -0.3563
 1892TIP3   OH227090   4.353   3.774  14.165  0.7396  0.0600  0.2077
 1892TIP3    H127091   4.327   3.775  14.073  0.3090 -0.0472  0.3280
 1892TIP3    H227092   4.433   3.826  14.168  2.1759 -2.0244 -0.6451
 1893TIP3   OH227093   0.704   1.854   4.460  0.5078  0.0434 -0.1852
 1893TIP3    H127094   0.633   1.915   4.482  0.1363 -1.1378  2.0386
 1893TIP3    H227095   0.758   1.851   4.539 -0.3388 -3.6670  0.3296
 1894TIP3   OH227096   5.713   0.888  14.378  0.4881  0.1700  0.6319
 1894TIP3    H127097   5.681   0.978  14.371 -1.7109 -0.7166 -1.2525
 1894TIP3    H227098   5.745   0.881  14.468 -0.2577  2.5286  1.1069
 1895TIP3   OH227099   3.854   5.530   5.322  0.3179  0.0299 -0.3939
 1895TIP3    H127100   3.811   5.469   5.262  2.0024  0.4221 -2.0211
 1895TIP3    H227101   3.819   5.507   5.408 -0.0760 -2.3504 -1.1544
 1896TIP3   OH227102   2.147   0.020  10.693 -1.0470 -0.0820 -0.0667
 1896TIP3    H127103   2.065  -0.021  10.667  0.1891 -1.9268 -1.1960
 1896TIP3    H227104   2.215  -0.040  10.663  0.6757  0.5860  2.2601
 1897TIP3   OH227105   1.353   6.356  17.219  0.1603 -0.7906  0.5212
 1897TIP3    H127106   1.270   6.345  17.264 -0.4034 -0.0714 -0.3236
 1897TIP3    H227107   1.396   6.270  17.226  0.2892 -0.5779  2.7682
 1898TIP3   OH227108   2.935   5.828   5.863 -0.1647 -0.3116 -0.3510
 1898TIP3    H127109   2.905   5.871   5.943 -0.1945 -0.9131 -0.0358
 1898TIP3    H227110   2.876   5.753   5.852 -0.1030 -0.2812 -0.8819
 1899TIP3   OH227111   2.283   0.448  12.735 -0.4804  0.1958 -0.4589
 1899TIP3    H127112   2.190   0.462  12.753 -0.7465 -0.2234 -1.4973
 1899TIP3    H227113   2.314   0.532  12.702 -1.3821 -0.7079 -3.7706
 1900TIP3   OH227114   6.319   5.433  11.870  0.2995 -0.8763  0.6769
 1900TIP3    H127115   6.248   5.376  11.842 -0.1095 -1.2844  2.5107
 1900TIP3    H227116   6.395   5.404  11.819 -0.5378 -1.2580 -0.3682
 1901TIP3   OH227117   1.554   3.860   3.364 -0.0976 -0.3683  0.8908
 1901TIP3    H127118   1.620   3.926   3.386 -0.4732  0.1349  0.5192
 1901TIP3    H227119   1.573   3.787   3.423  2.8084 -1.5460 -1.3439
 1902TIP3   OH227120   5.992   5.258   1.423 -0.4974  0.0662 -0.0862
 1902TIP3    H127121   6.034   5.246   1.337 -1.4346  0.9463 -0.6731
 1902TIP3    H227122   6.014   5.348   1.448  2.5663 -1.2136  2.1513
 1903TIP3   OH227123   2.334   0.953   1.000 -0.3195 -0.3520  0.7442
 1903TIP3    H127124   2.249   0.963   1.043 -1.0666 -3.4339  0.0822
 1903TIP3    H227125   2.375   0.878   1.044  0.6124 -1.0216 -1.1910
 1904TIP3   OH227126   3.396   3.984  12.794 -0.4214 -0.0004  0.6001
 1904TIP3    H127127   3.344   4.009  12.717 -1.2122  0.5812  1.3112
 1904TIP3    H227128   3.471   3.938  12.758 -1.0914 -0.2623 -0.4942
 1905TIP3   OH227129   5.507   3.609   2.429  0.0567  0.4163  0.4178
 1905TIP3    H127130   5.602   3.614   2.413 -0.4019  0.6501 -2.6007
 1905TIP3    H227131   5.480   3.701   2.437 -0.3564  0.5629 -2.0537
 1906TIP3   OH227132   3.311   3.591   4.821  0.3462 -0.5042 -0.0901
 1906TIP3    H127133   3.357   3.514   4.785  1.8807 -0.1959  1.1170
 1906TIP3    H227134   3.349   3.601   4.909  0.7200  2.0901 -0.5292
 1907TIP3   OH227135   0.619   3.922  14.507 -0.1748 -0.0668 -0.3644
 1907TIP3    H127136   0.587   4.005  14.471 -0.0188  0.6062  1.0499
 1907TIP3    H227137   0.703   3.943  14.546  0.1576 -1.0305 -0.5542
 1908TIP3   OH227138   2.095   3.105  13.267  0.4882  0.0337 -0.0020
 1908TIP3    H127139   2.044   3.135  13.192 -1.1900  0.8194  1.4079
 1908TIP3    H227140   2.126   3.018  13.242 -1.0857 -0.2209 -1.1075
 1909TIP3   OH227141   1.604   5.917   1.027 -0.7621  0.5149 -0.0723
 1909TIP3    H127142   1.531   5.979   1.030  1.0729  2.7371 -0.4090
 1909TIP3    H227143   1.593   5.871   0.944 -1.4067  1.2727 -0.4085
 1910TIP3   OH227144   4.129   3.050   3.004 -0.2363  0.2982 -0.0687
 1910TIP3    H127145   4.074   3.107   3.059  1.2369  1.0391  0.6489
 1910TIP3    H227146   4.215   3.091   3.004  0.8065 -1.7966  0.2519
 1911TIP3   OH227147   6.439   3.372  15.292 -0.3124 -0.0144 -0.1567
 1911TIP3    H127148   6.384   3.303  15.331  0.5138 -0.7415 -0.2621
 1911TIP3    H227149   6.526   3.333  15.286 -0.1431  0.5352 -1.5296
 1912TIP3   OH227150   6.276   6.365   2.800  0.3863  0.7696  0.1671
 1912TIP3    H127151   6.291   6.303   2.729 -2.4293  1.0992 -0.7874
 1912TIP3    H227152   6.340   6.435   2.784  0.5952  0.2649 -1.3391
 1913TIP3   OH227153   5.012   4.504   0.157  0.2159  0.0260  0.2415
 1913TIP3    H127154   5.085   4.442   0.161  0.5130  0.2261 -1.4916
 1913TIP3    H227155   5.053   4.587   0.132 -0.3631  0.5833  1.1406
 1914TIP3   OH227156   1.566   5.310  15.512  0.4943  0.6431  0.5883
 1914TIP3    H127157   1.490   5.253  15.503 -0.5500  2.2743 -1.3621
 1914TIP3    H227158   1.574   5.326  15.606 -0.7288 -0.6453  0.9208
 1915TIP3   OH227159   3.063   1.343  15.151  0.4150 -0.2145  0.4544
 1915TIP3    H127160   3.037   1.346  15.059  2.0641 -0.5646 -0.0443
 1915TIP3    H227161   3.021   1.420  15.190 -0.3603 -0.1099 -0.5742
 1916TIP3   OH227162   5.162   3.453   1.120 -0.1217  0.2857 -0.2840
 1916TIP3    H127163   5.238   3.397   1.111 -1.4786 -1.4391 -1.4334
 1916TIP3    H227164   5.094   3.397   1.158 -1.4771  1.1257 -1.3767
 1917TIP3   OH227165   5.346   6.033  13.527 -0.2081  0.0919 -0.5141
 1917TIP3    H127166   5.367   6.113  13.575  0.4747 -0.4032  0.0255
 1917TIP3    H227167   5.431   5.994  13.507 -0.5968 -2.0996  1.9391
 1918TIP3   OH227168   4.394   2.382   4.252  0.0953  0.2482  0.8149
 1918TIP3    H127169   4.385   2.306   4.194  0.2625  1.0254 -0.2454
 1918TIP3    H227170   4.486   2.383   4.277  0.4524  1.0025 -0.4537
 1919TIP3   OH227171   0.662   2.147   6.688 -0.5735  0.6664 -0.3528
 1919TIP3    H127172   0.679   2.181   6.776 -1.7078 -3.1053  1.4600
 1919TIP3    H227173   0.568   2.128   6.687 -0.4473 -0.0108 -2.1107
 1920TIP3   OH227174   4.733   2.319  16.239 -0.2837  0.4272 -0.3174
 1920TIP3    H127175   4.774   2.391  16.192 -0.9370  0.0142 -1.5380
 1920TIP3    H227176   4.684   2.271  16.172  0.7506 -1.5849  0.3260
 1921TIP3   OH227177   4.278   1.619  16.167  0.0010 -0.1449  0.2777
 1921TIP3    H127178   4.298   1.713  16.166 -1.6390  0.2097  0.7552
 1921TIP3    H227179   4.293   1.591  16.077  2.3741  0.1517  0.5311
 1922TIP3   OH227180   1.465   6.065  13.830  0.0334  0.0952 -0.4627
 1922TIP3    H127181   1.480   6.048  13.923 -2.6676 -0.6529 -0.1371
 1922TIP3    H227182   1.413   5.990  13.800  0.5847  0.4953 -2.5141
 1923TIP3   OH227183   3.342   4.317   2.319 -0.2753  0.1455 -0.3439
 1923TIP3    H127184   3.316   4.399   2.360 -2.8223 -0.8458  0.1175
 1923TIP3    H227185   3.267   4.259   2.332  0.3083 -1.3282 -3.2479
 1924TIP3   OH227186   4.894   1.472  14.427 -0.2697 -0.0877 -0.1201
 1924TIP3    H127187   4.947   1.406  14.471  0.8484 -0.1015 -1.4541
 1924TIP3    H227188   4.828   1.497  14.492  0.0059 -1.6601  0.8006
 1925TIP3   OH227189   3.493   6.621   2.533 -0.0191  0.4224  0.2031
 1925TIP3    H127190   3.462   6.618   2.623  0.1812 -1.0922  0.2418
 1925TIP3    H227191   3.437   6.685   2.490 -2.8372 -1.8306  0.4033
 1926TIP3   OH227192   4.838   4.333  13.311  0.0198  0.0597  0.0554
 1926TIP3    H127193   4.906   4.266  13.309  1.1214  1.1052  1.6025
 1926TIP3    H227194   4.803   4.334  13.222  0.3571 -2.1758 -0.1230
 1927TIP3   OH227195   5.126   1.671   3.174 -0.2046  0.2317 -0.2398
 1927TIP3    H127196   5.190   1.608   3.208 -1.4636 -0.5187  0.7852
 1927TIP3    H227197   5.048   1.618   3.157 -0.7270  1.2319 -0.9831
 1928TIP3   OH227198   3.725   6.067  15.766  0.0453 -0.6593 -0.0852
 1928TIP3    H127199   3.774   6.139  15.805 -0.6815  0.3200 -0.9690
 1928TIP3    H227200   3.640   6.070  15.810 -0.2651 -0.4731 -0.6980
 1929TIP3   OH227201   4.882   2.261  11.575 -0.3530 -0.5582  0.1424
 1929TIP3    H127202   4.825   2.227  11.644 -1.3329  0.3914 -0.1745
 1929TIP3    H227203   4.858   2.354  11.568  1.7443  0.0240  0.4794
 1930TIP3   OH227204   5.304   5.467  12.740  0.0284  0.6570  0.2070
 1930TIP3    H127205   5.393   5.476  12.707  0.4920  0.5195  1.3911
 1930TIP3    H227206   5.275   5.557  12.755  0.2749  0.6741  0.5985
 1931TIP3   OH227207   6.507   2.686  14.942 -0.1820 -0.5824 -0.6423
 1931TIP3    H127208   6.419   2.722  14.932 -0.2614 -0.4377  0.5706
 1931TIP3    H227209   6.555   2.719  14.865  0.0404  3.0267  0.9211
 1932TIP3   OH227210   6.403   5.780   3.220 -0.0370  0.0643 -0.2664
 1932TIP3    H127211   6.417   5.789   3.314  0.3407 -2.3717 -0.0561
 1932TIP3    H227212   6.457   5.849   3.181  2.5542 -1.0715  1.1680
 1933TIP3   OH227213   0.118   6.330   2.714 -0.0475  0.1110  0.2484
 1933TIP3    H127214   0.109   6.237   2.693 -1.1548  0.1759  0.4050
 1933TIP3    H227215   0.169   6.331   2.795 -1.9035 -0.4830  1.4658
 1934TIP3   OH227216   1.916   4.403   0.450  0.0996 -0.0566 -0.0967
 1934TIP3    H127217   2.008   4.395   0.474  0.1353 -0.3721 -0.3358
 1934TIP3    H227218   1.873   4.330   0.496  0.0494 -0.2147 -0.3960
 1935TIP3   OH227219   0.680   0.085   1.287 -0.2250  0.2042  0.2947
 1935TIP3    H127220   0.745   0.020   1.316 -1.7364 -2.0838 -1.3107
 1935TIP3    H227221   0.685   0.154   1.353  2.4744 -0.8132  1.2591
 1936TIP3   OH227222   4.982   2.691   3.419 -0.5329  0.2575 -0.1716
 1936TIP3    H127223   4.973   2.698   3.324 -2.4608 -2.6007 -0.2266
 1936TIP3    H227224   4.894   2.670   3.451 -0.1989  2.4604  2.4120
 1937TIP3   OH227225   4.316   1.426  15.045  0.7008  0.0118 -0.3670
 1937TIP3    H127226   4.249   1.362  15.020  1.3363 -0.5162 -0.7135
 1937TIP3    H227227   4.318   1.422  15.141 -0.0981  0.3774 -0.3275
 1938TIP3   OH227228   0.790   3.888   3.959 -0.5343 -0.0417 -0.3447
 1938TIP3    H127229   0.830   3.905   4.044  0.4427  0.1281 -0.8306
 1938TIP3    H227230   0.864   3.870   3.901 -1.1440  0.6295 -1.3390
 1939TIP3   OH227231   3.988   3.431  12.985  0.6176  0.5663  0.3147
 1939TIP3    H127232   4.037   3.494  12.933 -0.8644  0.9521 -0.6331
 1939TIP3    H227233   3.900   3.469  12.992 -1.1009 -2.6276 -2.5664
 1940TIP3   OH227234   1.229   2.043  14.534 -0.2902  0.0805 -0.4627
 1940TIP3    H127235   1.246   2.092  14.614 -0.6089  1.0189 -0.9595
 1940TIP3    H227236   1.221   2.110  14.466  2.0005 -0.7942 -1.6505
 1941TIP3   OH227237   1.422   5.078  15.122 -0.3405 -0.0241  0.3187
 1941TIP3    H127238   1.461   5.142  15.181 -0.5628  0.2774  0.1431
 1941TIP3    H227239   1.451   5.105  15.035  0.5997 -0.9052  0.3493
 1942TIP3   OH227240   0.490   4.153   2.925  0.0912  0.0348 -0.5033
 1942TIP3    H127241   0.469   4.187   3.012  0.6536 -0.6708 -0.0811
 1942TIP3    H227242   0.425   4.084   2.910  0.2558 -0.1312 -0.4580
 1943TIP3   OH227243   1.132   5.238  17.031 -0.1859  0.2612 -0.1193
 1943TIP3    H127244   1.188   5.182  16.977  0.3649  0.3401  0.3584
 1943TIP3    H227245   1.102   5.181  17.102 -0.6441  0.2418 -0.3284
 1944TIP3   OH227246   0.700   2.112  15.705 -0.1238 -0.1096  0.1032
 1944TIP3    H127247   0.732   2.087  15.792  2.4985 -0.3375 -0.8755
 1944TIP3    H227248   0.645   2.188  15.721  1.6313  0.8487  1.8125
 1945TIP3   OH227249   2.265   4.351   2.351  0.8081  0.0407  0.0443
 1945TIP3    H127250   2.337   4.388   2.401  0.6740  0.5479 -0.1290
 1945TIP3    H227251   2.216   4.427   2.320 -0.9604 -0.3447  1.8471
 1946TIP3   OH227252   3.095   4.758   3.447  0.1139  0.4447  0.1081
 1946TIP3    H127253   3.104   4.849   3.421  0.5202  0.5159  0.4833
 1946TIP3    H227254   3.185   4.726   3.455  0.0955  1.1660  3.9534
 1947TIP3   OH227255   1.978   1.273   0.953 -0.8847 -0.2984  0.5606
 1947TIP3    H127256   2.040   1.325   1.005  1.0470 -3.0020  1.0563
 1947TIP3    H227257   1.925   1.227   1.018 -1.7956  0.1327  0.1268
 1948TIP3   OH227258   2.108   5.299   0.499  0.4689 -0.1693 -0.1828
 1948TIP3    H127259   2.034   5.243   0.476  0.2520 -0.5508  1.3321
 1948TIP3    H227260   2.076   5.352   0.572  1.4282  0.2411 -0.0438
 1949TIP3   OH227261   3.670   6.431   2.437 -0.2285  0.4273 -0.2515
 1949TIP3    H127262   3.592   6.475   2.468 -0.5798  1.1094 -2.0263
 1949TIP3    H227263   3.742   6.474   2.483 -0.7859  0.7337  0.3451
 1950TIP3   OH227264   6.386   4.588   0.708 -0.1940  1.1548 -0.0193
 1950TIP3    H127265   6.446   4.527   0.665  1.1331  2.1631  0.3553
 1950TIP3    H227266   6.337   4.534   0.770 -1.9189 -0.2589 -2.5267
 1951TIP3   OH227267   6.072   6.303  14.626 -0.8618  0.5552 -0.0196
 1951TIP3    H127268   6.115   6.318  14.711 -0.0330  1.3930 -0.5857
 1951TIP3    H227269   6.142   6.267  14.571 -1.1390  0.9957 -0.6541
 1952TIP3   OH227270   4.459   2.658  11.310  0.3443 -0.3230  0.1280
 1952TIP3    H127271   4.428   2.720  11.377  0.4163 -0.2198  0.0659
 1952TIP3    H227272   4.553   2.675  11.303  0.5348 -1.0727  0.7672
 1953TIP3   OH227273   2.729   2.590   4.982  0.4702  0.5072 -0.6415
 1953TIP3    H127274   2.786   2.561   4.911 -0.5730  1.2881 -1.8336
 1953TIP3    H227275   2.776   2.567   5.062  1.2250 -1.2864 -1.5646
 1954TIP3   OH227276   2.611   4.939   0.954  0.6693 -0.1990  0.0762
 1954TIP3    H127277   2.654   4.869   0.905  1.1904 -0.3313  0.7118
 1954TIP3    H227278   2.517   4.920   0.945  0.8266 -1.4208  0.8593
 1955TIP3   OH227279   0.998   5.321   4.945 -0.3617  0.5055 -0.0293
 1955TIP3    H127280   1.048   5.321   4.863  0.3699  2.3504  0.3955
 1955TIP3    H227281   0.925   5.380   4.928  0.2634  1.5641  0.9025
 1956TIP3   OH227282   4.839   4.587  11.535  0.4496 -0.0992  0.6497
 1956TIP3    H127283   4.779   4.636  11.591 -1.1705  1.2919 -2.1831
 1956TIP3    H227284   4.787   4.563  11.459  2.5494 -2.0212 -0.2483
 1957TIP3   OH227285   3.009   6.468   5.413 -0.1123  0.1977  0.1020
 1957TIP3    H127286   2.952   6.393   5.432 -0.7231  0.2176 -1.5983
 1957TIP3    H227287   2.952   6.544   5.418 -0.0937  0.2838 -0.9244
 1958TIP3   OH227288   1.572   6.280   0.196  0.4092 -0.7802  0.1877
 1958TIP3    H127289   1.653   6.300   0.241  0.7593  2.3350 -1.6961
 1958TIP3    H227290   1.573   6.184   0.187  3.8159 -0.8228  0.2789
 1959TIP3   OH227291   2.163   4.809   5.517  0.3350 -0.0740  0.1483
 1959TIP3    H127292   2.141   4.839   5.429  2.8913  0.7684 -0.2450
 1959TIP3    H227293   2.129   4.720   5.521 -1.4009  0.5186 -1.0472
 1960TIP3   OH227294   6.458   1.726   1.519 -0.1725 -0.0869  0.2441
 1960TIP3    H127295   6.532   1.699   1.573 -0.5623  0.9494  1.3375
 1960TIP3    H227296   6.389   1.662   1.538 -0.0310 -0.2122  0.3361
 1961TIP3   OH227297   4.382   5.892  16.488  0.1867  0.0541  0.0906
 1961TIP3    H127298   4.371   5.869  16.580  0.2205 -0.3690 -0.0098
 1961TIP3    H227299   4.296   5.925  16.461 -0.4500 -1.8279 -0.2785
 1962TIP3   OH227300   2.695   0.146   5.821  0.5558  0.1852  0.4546
 1962TIP3    H127301   2.631   0.171   5.888 -0.5542 -0.8576 -0.1850
 1962TIP3    H227302   2.754   0.085   5.866 -0.1869 -0.5116  0.5092
 1963TIP3   OH227303   2.294   5.456  12.059 -0.1503  0.0105 -0.0903
 1963TIP3    H127304   2.326   5.499  12.138  1.5085 -1.0143 -0.1904
 1963TIP3    H227305   2.341   5.373  12.056 -0.4064 -0.0816 -2.0058
 1964TIP3   OH227306   6.725   2.084   1.297  0.1454 -0.1907 -0.4931
 1964TIP3    H127307   6.653   2.020   1.295 -1.8393  1.9915 -1.5994
 1964TIP3    H227308   6.720   2.122   1.384  0.1791 -0.2737 -0.4543
 1965TIP3   OH227309   6.348   5.678  11.989  0.0628  0.4095  0.0892
 1965TIP3    H127310   6.357   5.601  11.934 -3.6145 -2.1710  2.9171
 1965TIP3    H227311   6.432   5.684  12.036  1.1768 -0.5315 -1.7449
 1966TIP3   OH227312   2.615   5.934   1.862 -0.0072  0.2009  0.0006
 1966TIP3    H127313   2.665   5.860   1.897 -0.9592 -1.6750 -2.4315
 1966TIP3    H227314   2.524   5.913   1.881 -0.3891  0.0788 -1.7945
 1967TIP3   OH227315   0.877   2.834  15.590  0.3953  0.5695  0.1044
 1967TIP3    H127316   0.898   2.841  15.683 -0.0090 -0.0765  0.2406
 1967TIP3    H227317   0.795   2.883  15.580  0.2788  0.3825  0.1417
 1968TIP3   OH227318   5.072   3.059  11.530  0.2038  0.0328  0.3562
 1968TIP3    H127319   5.037   3.147  11.519  0.6834  0.1466 -0.2771
 1968TIP3    H227320   5.037   3.010  11.456 -0.3687 -0.4127  0.9121
 1969TIP3   OH227321   0.063   2.000   3.626 -0.3522 -0.1263  0.2173
 1969TIP3    H127322  -0.020   2.022   3.584 -0.8533 -1.6162  0.4072
 1969TIP3    H227323   0.085   1.914   3.592  2.3370  1.2445 -1.6462
 1970TIP3   OH227324   4.967   6.399  13.059 -0.8456  0.2525 -0.7242
 1970TIP3    H127325   5.054   6.381  13.094 -1.2902  0.2468  0.3863
 1970TIP3    H227326   4.913   6.328  13.092 -1.5040  0.8257 -0.5610
 1971TIP3   OH227327   1.661   3.983  15.519  0.4409  0.5904  0.1692
 1971TIP3    H127328   1.615   3.911  15.476 -1.8892  2.5124 -0.6943
 1971TIP3    H227329   1.717   4.020  15.451 -0.2541  1.1461 -0.1065
 1972TIP3   OH227330   3.400   6.054  13.288 -0.0609 -0.3818 -0.4212
 1972TIP3    H127331   3.437   6.039  13.201  0.8183 -0.9589  0.0379
 1972TIP3    H227332   3.419   6.145  13.307  0.2483 -0.4090 -0.6031
 1973TIP3   OH227333   0.114   5.190   2.698  0.7001  0.5702  0.0427
 1973TIP3    H127334   0.102   5.276   2.739 -1.5073 -0.4648  1.6140
 1973TIP3    H227335   0.025   5.156   2.687  1.5526 -1.4657 -0.6933
 1974TIP3   OH227336   3.071   1.931  17.002 -0.4109 -0.1252 -0.3606
 1974TIP3    H127337   3.004   1.991  17.034  0.0043  0.6912 -0.9879
 1974TIP3    H227338   3.147   1.948  17.058  0.0405  0.6891 -1.2143
 1975TIP3   OH227339   5.919   3.846  16.187 -0.1232  0.2577 -0.4368
 1975TIP3    H127340   5.870   3.871  16.108 -1.6206 -0.5074  0.2241
 1975TIP3    H227341   5.889   3.757  16.206  0.6279  0.2400  0.6854
 1976TIP3   OH227342   6.054   4.134   0.260 -0.3332 -0.2325  0.3484
 1976TIP3    H127343   6.101   4.172   0.185  1.7364  0.7042  2.0621
 1976TIP3    H227344   6.044   4.041   0.237 -0.9006  0.3132 -1.6658
 1977TIP3   OH227345   6.083   3.384   2.642  0.1130 -0.6619  0.3179
 1977TIP3    H127346   6.023   3.402   2.570 -0.2683  1.0326  1.0374
 1977TIP3    H227347   6.043   3.311   2.689 -0.6930 -0.4251  0.0123
 1978TIP3   OH227348   1.849   3.619  15.206  0.5226 -0.6242  0.2201
 1978TIP3    H127349   1.836   3.533  15.164 -2.7754  1.9004 -4.4030
 1978TIP3    H227350   1.763   3.660  15.201  1.6760  2.4424  3.7651
 1979TIP3   OH227351   0.745   0.573  15.548 -0.3235 -0.2676 -0.1113
 1979TIP3    H127352   0.695   0.525  15.482 -0.9238  1.7299 -1.1353
 1979TIP3    H227353   0.835   0.541  15.539 -1.0340 -2.5252  0.4858
 1980TIP3   OH227354   6.101   4.853  13.347 -0.1811 -0.2974  0.1425
 1980TIP3    H127355   6.014   4.832  13.314  0.3638 -0.9272 -0.9013
 1980TIP3    H227356   6.087   4.878  13.438 -1.4819 -0.1730 -0.0904
 1981TIP3   OH227357   4.096   1.634   1.968 -0.0386 -0.0466 -0.3164
 1981TIP3    H127358   4.086   1.685   1.888  0.0632  1.5191  0.6549
 1981TIP3    H227359   4.007   1.623   2.001  0.0884  1.0072  0.3934
 1982TIP3   OH227360   3.716   4.403  15.708 -0.2716  0.0686 -0.4338
 1982TIP3    H127361   3.767   4.484  15.713  0.1707 -0.2321  0.0258
 1982TIP3    H227362   3.688   4.387  15.798  0.4023 -0.7639 -0.3655
 1983TIP3   OH227363   5.511   1.369   3.997  0.3265 -0.0833 -0.1586
 1983TIP3    H127364   5.477   1.453   3.967  1.9114 -0.0651 -1.9492
 1983TIP3    H227365   5.458   1.349   4.075  0.5471  2.9819  0.8501
 1984TIP3   OH227366   4.157   1.320  10.501  0.2197  0.4540 -0.3507
 1984TIP3    H127367   4.127   1.229  10.498 -0.0790  0.5594 -0.5986
 1984TIP3    H227368   4.226   1.320  10.567 -0.7727  0.3383  0.7062
 1985TIP3   OH227369   2.012   6.143   2.277  0.0933 -0.0358 -0.1803
 1985TIP3    H127370   2.100   6.168   2.249  0.1584  1.0248  0.9203
 1985TIP3    H227371   1.965   6.124   2.196  0.5042  2.2284 -0.9870
 1986TIP3   OH227372   1.421   3.437   0.546  0.1702 -0.3962  0.3679
 1986TIP3    H127373   1.377   3.382   0.481  0.2108 -0.0173  0.0136
 1986TIP3    H227374   1.351   3.487   0.587  0.4974  2.3110 -2.1805
 1987TIP3   OH227375   4.342   5.533   4.590  0.3635  0.3282  0.2103
 1987TIP3    H127376   4.353   5.508   4.681  0.6679 -0.5991 -0.0786
 1987TIP3    H227377   4.252   5.565   4.584 -1.0989 -3.6267 -0.0828
 1988TIP3   OH227378   0.970   1.382  14.065 -0.2846  0.2869 -0.1824
 1988TIP3    H127379   0.977   1.431  13.982  2.5280 -0.0892 -0.2169
 1988TIP3    H227380   0.991   1.447  14.132  1.4058 -0.3452 -0.0811
 1989TIP3   OH227381   4.166   6.193  13.571 -0.2482  0.2925  0.2647
 1989TIP3    H127382   4.071   6.194  13.570 -0.2450  0.2927 -1.3216
 1989TIP3    H227383   4.192   6.224  13.484  1.2260  2.6232  1.4503
 1990TIP3   OH227384   6.198   2.169  11.332 -0.0770  0.0466 -0.8870
 1990TIP3    H127385   6.134   2.114  11.377  0.8754 -0.1147  0.2955
 1990TIP3    H227386   6.233   2.112  11.263  0.5732 -0.6824  0.0375
 1991TIP3   OH227387   2.039   2.170   1.971 -0.2346  0.5443 -0.1021
 1991TIP3    H127388   2.135   2.181   1.970 -0.2808  1.2427  1.2963
 1991TIP3    H227389   2.019   2.128   1.888  1.5219 -1.5860  0.4922
 1992TIP3   OH227390   0.867   4.774   3.264 -0.4555 -0.5467  0.0355
 1992TIP3    H127391   0.961   4.759   3.264 -0.4839 -0.7555  1.0682
 1992TIP3    H227392   0.855   4.850   3.321 -0.7326  0.6424 -1.6051
 1993TIP3   OH227393   6.354   2.536  12.684 -0.7020  0.1290  0.0086
 1993TIP3    H127394   6.334   2.447  12.714 -0.3031  0.0610  0.0673
 1993TIP3    H227395   6.330   2.592  12.758  1.3149 -0.1227  0.8839
 1994TIP3   OH227396   3.694   0.957  13.636  0.1337 -0.1968  0.0341
 1994TIP3    H127397   3.642   1.037  13.629  1.1146  0.6905  2.4334
 1994TIP3    H227398   3.743   0.953  13.554  0.1156  1.6898 -0.0836
 1995TIP3   OH227399   2.254   2.664  16.591  0.2601  0.1664  0.1657
 1995TIP3    H127400   2.262   2.571  16.613  0.2041  0.1328  0.0454
 1995TIP3    H227401   2.293   2.671  16.504  1.2835  0.4595  0.6425
 1996TIP3   OH227402   6.030   3.871  15.381 -0.0814 -0.0180 -0.8431
 1996TIP3    H127403   6.027   3.963  15.408 -0.5430  0.1241 -1.3753
 1996TIP3    H227404   5.942   3.838  15.399 -0.1256 -0.1650 -1.3179
 1997TIP3   OH227405   1.483   1.078  15.667 -0.4016 -0.5670 -0.1415
 1997TIP3    H127406   1.453   1.036  15.586  3.1147 -1.4056 -1.1031
 1997TIP3    H227407   1.500   1.006  15.727 -0.4929 -0.0957  0.4625
 1998TIP3   OH227408   1.334   3.615  12.346  0.6047  0.1865 -0.6214
 1998TIP3    H127409   1.413   3.597  12.296  0.2751 -0.2797 -0.9770
 1998TIP3    H227410   1.316   3.708  12.331  1.9606  0.6878  0.7261
 1999TIP3   OH227411   4.098   5.518   3.075 -0.6767 -0.1928  0.1147
 1999TIP3    H127412   4.011   5.479   3.083  0.1187 -1.9341  0.4951
 1999TIP3    H227413   4.123   5.503   2.983  0.3133 -2.1378  0.6632
 2000TIP3   OH227414   6.289   1.900   5.581 -0.6321  0.1452 -0.6082
 2000TIP3    H127415   6.315   1.909   5.673 -2.7817 -0.2178  0.0552
 2000TIP3    H227416   6.314   1.983   5.540 -0.1492  0.5030  0.4057
 2001TIP3   OH227417   4.568   3.316   5.315  0.3048  0.1259 -0.2363
 2001TIP3    H127418   4.514   3.391   5.338  0.4170 -0.1799  1.0217
 2001TIP3    H227419   4.653   3.354   5.292  0.0494  0.4626 -0.6388
 2002TIP3   OH227420   1.662   0.186  15.183 -0.2792  0.0991 -0.2271
 2002TIP3    H127421   1.647   0.161  15.092  0.5902  1.3267 -0.7146
 2002TIP3    H227422   1.743   0.142  15.207  0.4816  1.2590 -0.6347
 2003TIP3   OH227423   2.191   3.503  10.266 -0.3337  0.1145 -0.2648
 2003TIP3    H127424   2.285   3.510  10.283  0.3603 -2.4663 -2.7009
 2003TIP3    H227425   2.161   3.435  10.327 -0.4274  0.2065 -0.2082
 2004TIP3   OH227426   5.816   1.641   2.872  0.2239 -0.0433  0.3877
 2004TIP3    H127427   5.866   1.687   2.938 -2.3123  0.7209  1.8444
 2004TIP3    H227428   5.745   1.701   2.848  0.4645 -0.7321 -2.2524
 2005TIP3   OH227429   2.812   0.575  11.076 -0.4680 -0.4260  0.2154
 2005TIP3    H127430   2.726   0.540  11.054 -0.5175  1.2399 -2.5103
 2005TIP3    H227431   2.827   0.644  11.011  3.0858 -0.9410  0.3848
 2006TIP3   OH227432   1.871   3.444  12.494  0.0050  0.1832  0.2271
 2006TIP3    H127433   1.818   3.517  12.527  0.2122  0.1979  0.5394
 2006TIP3    H227434   1.899   3.472  12.407  1.8491  1.4117  1.1855
 2007TIP3   OH227435   0.120   0.324  15.940 -0.6654 -0.2424 -0.5193
 2007TIP3    H127436   0.178   0.251  15.963 -1.4620 -0.4574  0.8902
 2007TIP3    H227437   0.121   0.381  16.018 -0.2703  1.1065 -1.4939
 2008TIP3   OH227438   2.482   5.692  12.915  0.3014  0.4569 -0.2410
 2008TIP3    H127439   2.416   5.674  12.981 -0.2080 -0.1650 -0.9162
 2008TIP3    H227440   2.552   5.628  12.931  0.0706  0.1514 -0.4518
 2009TIP3   OH227441   2.686   0.820  12.528  0.5530 -0.0593  0.5147
 2009TIP3    H127442   2.617   0.886  12.532 -0.0725 -0.7718  1.6076
 2009TIP3    H227443   2.721   0.817  12.617 -1.6974 -3.5778  1.3655
 2010TIP3   OH227444   4.648   6.667   1.549  0.6037  0.4717 -0.6042
 2010TIP3    H127445   4.646   6.572   1.560 -0.6378  0.5437 -0.0930
 2010TIP3    H227446   4.738   6.691   1.567  0.3605 -0.3244  1.8377
 2011TIP3   OH227447   5.988   1.875  11.884  0.3298  0.5906 -0.0566
 2011TIP3    H127448   6.005   1.904  11.974  0.8693  0.3818 -0.0914
 2011TIP3    H227449   5.902   1.833  11.889  0.2809  0.7315  0.3297
 2012TIP3   OH227450   5.014   2.787  14.793 -0.4604  0.1866  0.2101
 2012TIP3    H127451   5.006   2.864  14.849  1.2977 -0.1285  0.9381
 2012TIP3    H227452   4.926   2.751  14.788 -0.8531  0.8984  1.8289
 2013TIP3   OH227453   6.409   1.681   3.766 -0.0723  0.0097 -0.2467
 2013TIP3    H127454   6.337   1.618   3.765 -1.0411  1.1153 -0.7080
 2013TIP3    H227455   6.487   1.628   3.749 -0.9994 -0.9047 -1.7457
 2014TIP3   OH227456   2.862   4.444  14.538  0.1800  0.0367 -0.5046
 2014TIP3    H127457   2.932   4.402  14.587  0.8572  1.6500 -0.0869
 2014TIP3    H227458   2.869   4.407  14.450  0.2103 -1.3804  0.0815
 2015TIP3   OH227459   3.932   3.426   2.462  0.2425  0.0667  0.1371
 2015TIP3    H127460   3.859   3.366   2.481  0.9415 -0.9139 -0.2209
 2015TIP3    H227461   4.004   3.393   2.516  0.7479  0.3516 -0.3604
 2016TIP3   OH227462   3.316   6.464  14.257  0.0736  0.3889 -0.2296
 2016TIP3    H127463   3.277   6.552  14.256 -2.0581 -0.4529  2.2236
 2016TIP3    H227464   3.409   6.479  14.241 -0.6810  2.7971 -2.8378
 2017TIP3   OH227465   0.465   2.461   0.807  0.4084  0.3493  0.2568
 2017TIP3    H127466   0.508   2.383   0.771 -1.2852  0.0264 -1.1413
 2017TIP3    H227467   0.436   2.434   0.894 -0.5543 -0.7370 -0.3902
 2018TIP3   OH227468   3.582   2.598  10.539  0.6848  0.3977  0.0645
 2018TIP3    H127469   3.520   2.667  10.564  1.8268  0.7202  2.1133
 2018TIP3    H227470   3.614   2.625  10.453 -0.8043  1.0633 -0.3040
 2019TIP3   OH227471   1.760   1.759   4.398 -0.0279 -0.2858 -0.5895
 2019TIP3    H127472   1.802   1.823   4.341  1.8465 -0.6266  0.3470
 2019TIP3    H227473   1.693   1.808   4.445 -0.9254  0.2039 -2.3686
 2020TIP3   OH227474   5.810   0.757   2.539 -1.0377  0.3240  0.2277
 2020TIP3    H127475   5.804   0.849   2.566 -1.6307  0.4928 -0.4880
 2020TIP3    H227476   5.728   0.718   2.569 -0.5691 -0.1046  0.9926
 2021TIP3   OH227477   3.401   3.436  11.658 -0.0717  0.4104  0.0904
 2021TIP3    H127478   3.482   3.459  11.612 -0.0929  0.1419 -0.0804
 2021TIP3    H227479   3.377   3.351  11.624 -1.0627  1.0042 -0.7118
 2022TIP3   OH227480   5.631   0.042   0.981  0.4914  0.5896  0.0620
 2022TIP3    H127481   5.704  -0.018   0.964  2.2053  2.6782 -0.0835
 2022TIP3    H227482   5.598   0.015   1.067  0.6564 -1.1055 -0.3816
 2023TIP3   OH227483   0.014   6.249  13.377 -0.1570 -0.5289 -0.3270
 2023TIP3    H127484  -0.000   6.191  13.302 -1.5703 -1.4445  0.6133
 2023TIP3    H227485  -0.065   6.303  13.381  0.0671 -0.2367  0.2810
 2024TIP3   OH227486   5.698   1.713   1.781  0.8244 -0.0611  0.7763
 2024TIP3    H127487   5.683   1.638   1.723  1.7936  1.3637 -1.3938
 2024TIP3    H227488   5.617   1.763   1.776  0.5656 -0.4228  1.3834
 2025TIP3   OH227489   1.151   6.527   6.289  1.2347 -0.3009  0.0267
 2025TIP3    H127490   1.147   6.506   6.382  0.1346 -0.9314 -0.1571
 2025TIP3    H227491   1.232   6.486   6.259  1.9626  0.5266  0.8559
 2026TIP3   OH227492   6.239   3.370  14.378 -0.0064  0.0123  0.4589
 2026TIP3    H127493   6.169   3.424  14.342 -0.3356  0.4841  1.7973
 2026TIP3    H227494   6.313   3.430  14.386  0.3741 -0.3348 -0.3459
 2027TIP3   OH227495   2.470   0.993  13.149 -0.3732  0.0718  0.1426
 2027TIP3    H127496   2.456   1.075  13.101  0.1882 -0.0892 -0.3123
 2027TIP3    H227497   2.442   0.924  13.088  0.2526 -0.1321  0.0834
 2028TIP3   OH227498   4.513   4.078  11.988  0.0224  0.4223 -0.4632
 2028TIP3    H127499   4.425   4.053  11.958  0.2798  1.3895 -2.0574
 2028TIP3    H227500   4.553   3.996  12.017 -1.3623 -0.0409  0.1881
 2029TIP3   OH227501   5.988   2.598   0.469  0.3039  0.2505  0.1336
 2029TIP3    H127502   5.958   2.673   0.418  0.4812  1.0895  1.2559
 2029TIP3    H227503   6.032   2.542   0.405 -0.5727  0.6867 -0.8636
 2030TIP3   OH227504   5.829   0.476   1.270  0.1831  0.2473  0.0231
 2030TIP3    H127505   5.801   0.401   1.218  0.7300  0.4764 -0.6151
 2030TIP3    H227506   5.749   0.523   1.291  0.0866  0.9480 -1.8525
 2031TIP3   OH227507   1.255   0.597   6.562  0.7551  0.4086 -0.1825
 2031TIP3    H127508   1.234   0.678   6.607  1.2170  0.3973  0.0621
 2031TIP3    H227509   1.351   0.591   6.567  0.8284  0.5500 -1.4148
 2032TIP3   OH227510   1.438   5.750   2.025  0.4702 -0.3796  0.7757
 2032TIP3    H127511   1.422   5.770   1.933  0.9526 -0.0249  0.7664
 2032TIP3    H227512   1.375   5.681   2.046 -0.1940  0.1124  0.4068
 2033TIP3   OH227513   4.025   4.036   3.114 -0.1452  0.3870  0.5209
 2033TIP3    H127514   4.011   4.071   3.202 -0.4226  0.6613  0.3658
 2033TIP3    H227515   4.025   4.113   3.057  0.7782  0.2819  0.3698
 2034TIP3   OH227516   3.581   5.523  14.365 -0.6969  0.1631  0.8731
 2034TIP3    H127517   3.608   5.439  14.400 -1.8037  0.3808  2.2881
 2034TIP3    H227518   3.594   5.585  14.437 -3.5060  0.5178  1.1317
 2035TIP3   OH227519   2.756   0.966   1.063 -0.0628 -0.0264 -0.0687
 2035TIP3    H127520   2.800   0.986   0.981 -1.5450 -0.9203 -1.0994
 2035TIP3    H227521   2.741   1.051   1.104  1.0517  0.3936 -0.5166
 2036TIP3   OH227522   4.475   6.603  16.782 -0.8775  0.0549 -0.0693
 2036TIP3    H127523   4.539   6.674  16.776  2.4421 -2.9787 -2.4550
 2036TIP3    H227524   4.436   6.598  16.695  0.2019 -2.1773 -0.4420
 2037TIP3   OH227525   1.805   6.327   5.095  0.6836  0.1877  0.1171
 2037TIP3    H127526   1.857   6.380   5.034 -1.3352 -0.1515 -1.9418
 2037TIP3    H227527   1.714   6.354   5.079 -0.1087 -1.8057  1.1238
 2038TIP3   OH227528   2.422   4.945  15.000  0.0325 -0.2542  0.3195
 2038TIP3    H127529   2.342   4.980  15.040 -0.2118 -0.4663  0.0200
 2038TIP3    H227530   2.462   4.892  15.069 -0.1600 -0.2675  0.4194
 2039TIP3   OH227531   6.474   5.498   5.676  0.1828 -0.2563  0.3367
 2039TIP3    H127532   6.473   5.515   5.582 -0.8836  1.2846  0.6106
 2039TIP3    H227533   6.508   5.409   5.684 -1.1877 -0.9914 -1.6087
 2040TIP3   OH227534   1.922   2.561  16.870  0.6351  0.0810  0.1209
 2040TIP3    H127535   1.961   2.614  16.800  2.3242  0.7361  1.5335
 2040TIP3    H227536   1.994   2.506  16.901 -0.9430 -2.6739 -0.9180
 2041TIP3   OH227537   3.637   1.126   2.878 -0.2964  0.4051  0.6169
 2041TIP3    H127538   3.621   1.070   2.954  0.1375  0.5716  0.8345
 2041TIP3    H227539   3.619   1.070   2.803 -1.4928  0.4709  0.8475
 2042TIP3   OH227540   1.688   4.461  11.972 -0.5616 -0.0183 -0.4317
 2042TIP3    H127541   1.621   4.448  11.905 -0.7601  1.3128 -0.4988
 2042TIP3    H227542   1.642   4.449  12.055 -0.8843  0.8615 -0.4785
 2043TIP3   OH227543   5.710   0.635  12.477 -0.3554 -0.4472  0.0089
 2043TIP3    H127544   5.734   0.556  12.526  0.6058 -0.1875 -0.0486
 2043TIP3    H227545   5.738   0.617  12.388  0.5058  0.2463  0.1378
 2044TIP3   OH227546   5.470   1.689   2.916 -0.1775 -0.6622  0.9145
 2044TIP3    H127547   5.491   1.715   3.006 -0.7157 -1.0966  1.1731
 2044TIP3    H227548   5.525   1.744   2.861  0.7146 -0.9187  1.5357
 2045TIP3   OH227549   2.568   0.465  14.539  0.5387 -0.2720 -0.1334
 2045TIP3    H127550   2.648   0.447  14.491  1.3663  0.1976  1.0505
 2045TIP3    H227551   2.567   0.560  14.551 -0.0716 -0.2957  0.0616
 2046TIP3   OH227552   4.555   0.531  12.907  0.1126  0.1919  0.1239
 2046TIP3    H127553   4.597   0.535  12.993  1.3143  1.4474 -0.5039
 2046TIP3    H227554   4.493   0.603  12.907  2.5759  2.3846 -1.2999
 2047TIP3   OH227555   4.822   5.174   0.860  0.2080  0.0762  0.4605
 2047TIP3    H127556   4.738   5.174   0.905 -0.2883  2.3726 -0.4040
 2047TIP3    H227557   4.831   5.263   0.825  1.6469 -0.9518 -1.9450
 2048TIP3   OH227558   0.515   0.636   3.212  0.0582 -0.4594  0.4851
 2048TIP3    H127559   0.598   0.676   3.188  0.0248 -1.5369 -1.5233
 2048TIP3    H227560   0.488   0.682   3.291  1.1447  1.8496 -0.4548
 2049TIP3   OH227561   3.425   6.460   6.478 -0.8888 -0.2196 -0.2751
 2049TIP3    H127562   3.494   6.420   6.531 -0.3451  0.9018 -0.1154
 2049TIP3    H227563   3.356   6.482   6.541 -1.1324 -0.8036 -0.3439
 2050TIP3   OH227564   3.736   0.475   6.054 -0.3504  0.4526 -0.0976
 2050TIP3    H127565   3.656   0.422   6.047  0.3028 -0.4898 -0.5089
 2050TIP3    H227566   3.776   0.469   5.967  1.4422 -1.1227  0.8022
 2051TIP3   OH227567   4.929   3.900  14.231  0.1895 -0.4761  0.0923
 2051TIP3    H127568   5.015   3.923  14.267 -0.1438  0.9867  0.0075
 2051TIP3    H227569   4.867   3.934  14.295 -0.3530 -0.1406 -0.6020
 2052TIP3   OH227570   4.447   5.468   5.079  0.0010 -0.1744  0.1537
 2052TIP3    H127571   4.359   5.483   5.113  0.4633 -0.3192  1.4557
 2052TIP3    H227572   4.505   5.510   5.144  0.8099  1.6666 -1.6772
 2053TIP3   OH227573   5.792   3.362  13.500  0.2583  0.3523 -0.4783
 2053TIP3    H127574   5.710   3.367  13.548 -0.7630  2.2030 -2.3584
 2053TIP3    H227575   5.789   3.277  13.456  0.5936 -0.7570  1.5730
 2054TIP3   OH227576   3.712   3.159   5.309 -0.2058 -0.4054 -0.4216
 2054TIP3    H127577   3.802   3.128   5.295  0.4432  1.1882  0.1092
 2054TIP3    H227578   3.722   3.241   5.356 -1.9912 -0.5716  0.2828
 2055TIP3   OH227579   1.248   6.178  11.417 -0.0478  0.0517 -0.2318
 2055TIP3    H127580   1.225   6.086  11.404 -3.9401  1.4205 -4.3518
 2055TIP3    H227581   1.333   6.188  11.375 -0.5138 -1.2775 -1.5239
 2056TIP3   OH227582   5.168   4.676  16.698  0.0393 -0.5476  0.2989
 2056TIP3    H127583   5.154   4.597  16.645  0.6368 -0.7934  0.4979
 2056TIP3    H227584   5.263   4.681  16.709  0.0389  0.5197 -0.1832
 2057TIP3   OH227585   5.597   5.076   5.649  0.0948  0.0104 -0.0729
 2057TIP3    H127586   5.505   5.099   5.659 -0.4439 -1.7033 -0.9307
 2057TIP3    H227587   5.607   4.995   5.700  1.0421  0.0078 -0.2519
 2058TIP3   OH227588   6.625   5.624   5.396  0.3864 -0.3700  0.1367
 2058TIP3    H127589   6.686   5.589   5.461 -0.5430  0.0472  1.2550
 2058TIP3    H227590   6.599   5.709   5.431 -0.3597 -0.2735 -0.6322
 2059TIP3   OH227591   5.030   0.886  11.078  0.2932 -0.1321  0.0176
 2059TIP3    H127592   4.956   0.842  11.037  1.4419  0.1568 -2.4731
 2059TIP3    H227593   5.087   0.910  11.005  2.3505  0.5640  1.7958
 2060TIP3   OH227594   0.939   4.444   5.559 -0.1173  0.3844  0.4872
 2060TIP3    H127595   0.887   4.385   5.615  2.1427 -2.3854 -0.2076
 2060TIP3    H227596   0.894   4.443   5.475  0.1206 -0.6979  0.3638
 2061TIP3   OH227597   2.690   3.189  15.965  0.2930 -0.0823 -0.2443
 2061TIP3    H127598   2.647   3.190  15.880 -0.1317 -1.7267 -0.0677
 2061TIP3    H227599   2.672   3.276  16.002  0.4362  0.6249 -1.7930
 2062TIP3   OH227600   2.177   0.330   3.346 -0.0991 -0.0865 -0.3740
 2062TIP3    H127601   2.187   0.318   3.252 -1.3370 -1.2990 -0.3682
 2062TIP3    H227602   2.086   0.306   3.364  0.3657 -0.7007  1.2673
 2063TIP3   OH227603   2.328   6.008   3.128 -0.4941 -0.1550 -0.4031
 2063TIP3    H127604   2.399   6.024   3.190 -0.5036  0.5991 -0.5876
 2063TIP3    H227605   2.367   6.024   3.042 -0.7499 -0.2293 -0.5323
 2064TIP3   OH227606   2.436   0.705  17.168 -0.7148  0.1381  0.0364
 2064TIP3    H127607   2.432   0.772  17.099 -1.2759 -0.2720 -0.3263
 2064TIP3    H227608   2.349   0.704  17.207 -0.8648 -0.7460 -0.3047
 2065TIP3   OH227609   3.589   3.661  12.241  0.9641 -0.0463 -0.4189
 2065TIP3    H127610   3.547   3.732  12.290 -1.4560 -2.2601  0.8526
 2065TIP3    H227611   3.567   3.680  12.149 -1.8506 -0.4591  0.1130
 2066TIP3   OH227612   6.722   6.037   6.238  0.3706 -0.0398 -0.1541
 2066TIP3    H127613   6.729   6.115   6.293 -1.0138  0.1094 -0.1693
 2066TIP3    H227614   6.711   5.965   6.300 -0.7608  0.0768 -0.2071
 2067TIP3   OH227615   6.133   4.023   3.648  0.9270  0.2112  0.2224
 2067TIP3    H127616   6.067   3.983   3.703  0.0882  1.7716  0.3937
 2067TIP3    H227617   6.084   4.080   3.589  2.1277  1.7415  0.6536
 2068TIP3   OH227618   2.404   5.389   2.239 -0.3386  0.1202 -0.4400
 2068TIP3    H127619   2.466   5.417   2.305  0.2039 -1.8966 -0.0532
 2068TIP3    H227620   2.331   5.351   2.288  0.1425 -1.5366 -0.9756
 2069TIP3   OH227621   2.984   1.175  13.517  0.6714  0.2390 -0.1387
 2069TIP3    H127622   2.901   1.128  13.527  0.4847  0.8381  1.2818
 2069TIP3    H227623   3.016   1.150  13.430 -1.4087  0.6465 -1.0609
 2070TIP3   OH227624   5.739   6.326   4.631  0.6678  0.0769 -0.2088
 2070TIP3    H127625   5.795   6.274   4.575  0.5588  0.8333 -1.0393
 2070TIP3    H227626   5.652   6.288   4.620  0.4495  0.9087 -1.4141
 2071TIP3   OH227627   3.006   4.629  16.593  0.2474 -0.6924  0.7400
 2071TIP3    H127628   3.093   4.609  16.558  1.1707 -0.4759  2.8242
 2071TIP3    H227629   3.022   4.699  16.657 -1.8883  1.4886 -1.0281
 2072TIP3   OH227630   0.176   5.011  16.839  0.9568 -0.3463  0.4655
 2072TIP3    H127631   0.189   4.978  16.750 -0.8387  1.1637 -0.3996
 2072TIP3    H227632   0.147   4.934  16.888 -0.7532 -0.6544 -0.9372
 2073TIP3   OH227633   0.273   3.766  13.360 -0.0311 -0.3766 -0.3440
 2073TIP3    H127634   0.298   3.688  13.409 -0.7070 -0.2766  0.1647
 2073TIP3    H227635   0.335   3.833  13.389 -2.3145  0.5370  2.7495
 2074TIP3   OH227636   4.567   5.114   0.975  0.1759 -0.0996  0.8327
 2074TIP3    H127637   4.565   5.127   1.070  0.0770  2.3398  0.5502
 2074TIP3    H227638   4.496   5.052   0.957 -1.3396  1.2155  2.1403
 2075TIP3   OH227639   5.572   4.365   4.110 -0.3139  0.2038 -0.0214
 2075TIP3    H127640   5.610   4.448   4.137 -0.8702 -0.1094  1.7451
 2075TIP3    H227641   5.479   4.372   4.132 -0.2167 -1.1885  0.8878
 2076TIP3   OH227642   3.167   5.001  11.154 -0.1169  0.3572  0.3038
 2076TIP3    H127643   3.121   5.030  11.233 -0.8438  0.4564 -0.1562
 2076TIP3    H227644   3.143   5.066  11.087 -1.5784 -1.1574 -0.6733
 2077TIP3   OH227645   4.036   3.244  14.188 -0.3357 -0.6745  0.2110
 2077TIP3    H127646   4.089   3.316  14.155 -1.5305  0.6123  1.0622
 2077TIP3    H227647   4.099   3.183  14.226  0.5097  1.2516  1.9973
 2078TIP3   OH227648   5.994   1.403  15.609  0.3722  0.1889 -0.2852
 2078TIP3    H127649   6.029   1.319  15.639  0.6384  0.0333 -1.0183
 2078TIP3    H227650   5.949   1.439  15.686  0.9925 -0.2267  0.2838
 2079TIP3   OH227651   5.195   6.573  12.156  0.4480 -0.8056  0.2350
 2079TIP3    H127652   5.203   6.532  12.070  0.5167  0.7519 -0.5234
 2079TIP3    H227653   5.246   6.654  12.149 -0.9550  0.1865  1.1988
 2080TIP3   OH227654   3.815   5.043  15.410  0.3982 -0.3955  0.0544
 2080TIP3    H127655   3.841   4.978  15.475  2.3054  0.7904  0.5279
 2080TIP3    H227656   3.792   5.121  15.462  0.6192  0.1296 -0.6229
 2081TIP3   OH227657   4.828   5.615  15.468 -0.0551 -0.3901  0.3515
 2081TIP3    H127658   4.908   5.626  15.519 -0.3479 -0.4664  0.8342
 2081TIP3    H227659   4.838   5.675  15.394  1.0721 -1.4353 -0.3620
 2082TIP3   OH227660   2.094   5.726  12.514 -0.1421 -0.7856 -0.0144
 2082TIP3    H127661   2.057   5.798  12.566 -0.0909 -0.7984  0.0399
 2082TIP3    H227662   2.148   5.770  12.448  0.0905 -0.7844  0.1763
 2083TIP3   OH227663   1.202   1.981   0.921  0.3784 -0.1563  0.3370
 2083TIP3    H127664   1.114   1.956   0.894 -0.2197  3.0090 -0.7720
 2083TIP3    H227665   1.191   2.016   1.009  0.6278 -0.3608  0.4492
 2084TIP3   OH227666   4.626   4.871   0.799  0.8153 -0.4682 -0.2400
 2084TIP3    H127667   4.707   4.868   0.849 -1.0519 -0.8875  2.9295
 2084TIP3    H227668   4.614   4.964   0.778  0.8067 -0.0381  1.5876
 2085TIP3   OH227669   5.350   0.118  17.181 -0.3575  0.6054 -0.0964
 2085TIP3    H127670   5.297   0.194  17.157 -0.8324  0.3045  0.0073
 2085TIP3    H227671   5.287   0.048  17.197  0.2002 -0.4610 -2.4543
 2086TIP3   OH227672   6.192   3.808   3.241  0.2879 -0.2287  0.0437
 2086TIP3    H127673   6.284   3.835   3.240 -0.0861  1.1945  1.4113
 2086TIP3    H227674   6.185   3.748   3.315 -0.0759  0.4082  0.5290
 2087TIP3   OH227675   5.562   3.676  15.944 -0.6906  0.8930 -0.3792
 2087TIP3    H127676   5.512   3.602  15.979  0.1139  1.5225  2.1739
 2087TIP3    H227677   5.605   3.640  15.866 -0.0530 -1.4306  0.9997
 2088TIP3   OH227678   3.127   1.405  14.284 -0.1414 -0.1861  0.5067
 2088TIP3    H127679   3.207   1.427  14.235 -0.6487  1.4864  0.4230
 2088TIP3    H227680   3.160   1.360  14.362  0.9076  0.7789  0.6359
 2089TIP3   OH227681   5.133   4.641   0.529  0.6214 -0.0089 -0.4263
 2089TIP3    H127682   5.135   4.648   0.625  0.9010  1.3300 -0.5166
 2089TIP3    H227683   5.191   4.711   0.499  0.2297 -0.1753 -1.5932
 2090TIP3   OH227684   4.024   0.417  15.960  0.3654  0.1470 -0.3941
 2090TIP3    H127685   3.953   0.481  15.951  1.0598  1.0495  0.4375
 2090TIP3    H227686   4.055   0.428  16.050  0.2042 -1.6768 -0.1000
 2091TIP3   OH227687   5.266   1.676   2.566  0.1363  0.2526 -0.5852
 2091TIP3    H127688   5.275   1.662   2.660 -0.4227  1.0389 -0.4081
 2091TIP3    H227689   5.356   1.687   2.535  0.3209  0.0232 -0.1402
 2092TIP3   OH227690   5.066   5.356  15.469  0.2903  0.7436  0.3586
 2092TIP3    H127691   5.017   5.297  15.527 -1.3510  0.3338 -1.3724
 2092TIP3    H227692   5.046   5.444  15.501  1.1649  0.4459  1.7505
 2093TIP3   OH227693   3.403   3.472  10.787  0.5874  0.2943 -0.4247
 2093TIP3    H127694   3.496   3.489  10.797  0.5290  0.3029  0.1229
 2093TIP3    H227695   3.381   3.413  10.859  0.3666 -0.4847 -1.1231
 2094TIP3   OH227696   6.663   5.082  11.177  0.3817  0.0526  0.2554
 2094TIP3    H127697   6.726   5.012  11.194  0.8561  0.8182  1.7639
 2094TIP3    H227698   6.600   5.074  11.249 -0.9588 -0.3544 -0.9266
 2095TIP3   OH227699   5.845   6.420  11.721  0.4654 -0.2645 -0.3392
 2095TIP3    H127700   5.940   6.408  11.722  0.5982  0.6622 -0.9637
 2095TIP3    H227701   5.826   6.464  11.804  0.6725  0.1621 -0.5141
 2096TIP3   OH227702   2.795   6.415  14.034 -0.4848  0.0751  0.0293
 2096TIP3    H127703   2.839   6.494  14.002 -3.1066  0.7924 -1.9025
 2096TIP3    H227704   2.834   6.343  13.984 -2.2417  0.8283 -2.4845
 2097TIP3   OH227705   1.476   4.703   1.493  0.2051  0.3732 -0.2501
 2097TIP3    H127706   1.420   4.764   1.540  0.2417  1.7142 -1.9194
 2097TIP3    H227707   1.432   4.618   1.503 -0.9632  1.0245  0.2850
 2098TIP3   OH227708   2.343   1.605  16.246 -0.7432  0.3120  0.0809
 2098TIP3    H127709   2.363   1.660  16.170 -0.2779 -0.7278 -0.5666
 2098TIP3    H227710   2.248   1.594  16.242 -0.5176 -1.5083 -1.6543
 2099TIP3   OH227711   0.597   6.739   0.261 -0.0966 -0.0177 -0.1431
 2099TIP3    H127712   0.511   6.702   0.282 -0.4075  0.7286 -0.0979
 2099TIP3    H227713   0.635   6.677   0.199 -1.1791  0.3056 -1.1366
 2100TIP3   OH227714   2.056   4.947   1.231 -0.2949 -0.3354  0.1111
 2100TIP3    H127715   2.061   4.943   1.327  1.0132 -2.9363 -0.0085
 2100TIP3    H227716   2.008   4.867   1.207 -1.3600  0.7296 -1.3730
 2101TIP3   OH227717   5.452   6.332  12.823  0.4694  0.5335 -0.3581
 2101TIP3    H127718   5.492   6.360  12.741  0.0715  1.2887 -0.2891
 2101TIP3    H227719   5.517   6.354  12.890  2.0024 -2.5417 -0.7130
 2102TIP3   OH227720   3.429   2.149  14.344  0.5737  0.1237  0.6581
 2102TIP3    H127721   3.433   2.113  14.255  0.9570  0.6772  0.4464
 2102TIP3    H227722   3.342   2.124  14.376 -0.7637  2.4538 -0.9694
 2103TIP3   OH227723   1.485   3.506  15.204 -0.4735 -0.0465  0.1729
 2103TIP3    H127724   1.397   3.476  15.183 -0.4444 -0.4618  0.6402
 2103TIP3    H227725   1.516   3.445  15.271  1.2042 -1.6037 -1.9094
 2104TIP3   OH227726   0.633   5.911  16.378  0.4314 -0.1831  0.2046
 2104TIP3    H127727   0.661   5.951  16.295 -0.7291  0.0569 -0.0886
 2104TIP3    H227728   0.634   5.817  16.361 -0.5424 -0.1040 -0.3334
 2105TIP3   OH227729   5.822   0.186  12.821  0.1790 -0.5159 -0.1615
 2105TIP3    H127730   5.781   0.100  12.818  0.7635 -0.7699 -1.1280
 2105TIP3    H227731   5.915   0.169  12.839 -0.1915  0.0844  2.5849
 2106TIP3   OH227732   1.442   2.576   5.304 -0.6500 -0.8999 -0.1249
 2106TIP3    H127733   1.510   2.567   5.238 -0.7686  0.9290 -0.5189
 2106TIP3    H227734   1.363   2.598   5.254 -1.0664 -0.9228  0.5152
 2107TIP3   OH227735   2.126   1.927   4.402  0.2259  0.5378  0.1614
 2107TIP3    H127736   2.094   1.879   4.478  1.0485  0.0784  0.2211
 2107TIP3    H227737   2.188   1.991   4.438  1.4779 -0.4305 -0.2110
 2108TIP3   OH227738   3.091   2.721   2.986 -0.0258  0.3770 -0.3569
 2108TIP3    H127739   3.061   2.783   2.920 -0.9310 -0.6383 -0.9330
 2108TIP3    H227740   3.062   2.758   3.069 -1.1026  0.4389 -0.7456
 2109TIP3   OH227741   0.494   5.140   4.725 -0.5223 -0.0315 -0.1983
 2109TIP3    H127742   0.493   5.099   4.639  0.8289 -1.9576  0.6533
 2109TIP3    H227743   0.460   5.228   4.711 -1.1678 -0.6315 -2.5267
 2110TIP3   OH227744   5.839   2.069  15.930  0.5939  0.2160 -0.5867
 2110TIP3    H127745   5.851   2.098  15.839 -1.5724 -1.6649 -1.5567
 2110TIP3    H227746   5.889   1.987  15.936 -0.9398 -0.7708 -0.7708
 2111TIP3   OH227747   4.126   5.405   3.681 -0.7829 -0.0732  0.7380
 2111TIP3    H127748   4.187   5.391   3.609  0.9641  0.1636  2.1569
 2111TIP3    H227749   4.145   5.335   3.743  0.8228  2.3004  3.0282
 2112TIP3   OH227750   2.684   3.288  16.317 -0.5897  0.0509  0.8363
 2112TIP3    H127751   2.691   3.383  16.314 -1.9805  0.1396  0.2263
 2112TIP3    H227752   2.591   3.271  16.334 -0.6595 -1.2171 -0.7182
 2113TIP3   OH227753   3.317   4.252  15.658  0.3786 -0.3057  0.0524
 2113TIP3    H127754   3.234   4.288  15.688  0.0567 -1.9070  1.1467
 2113TIP3    H227755   3.383   4.293  15.714  0.1179 -0.5868  0.5696
 2114TIP3   OH227756   1.862   3.221   0.680 -0.3173  0.1353 -0.0483
 2114TIP3    H127757   1.804   3.297   0.682  1.7741  1.7621  0.3009
 2114TIP3    H227758   1.829   3.169   0.606 -1.2218  1.8205 -0.8789
 2115TIP3   OH227759   6.051   1.110  12.150 -0.1782  0.0607  0.0893
 2115TIP3    H127760   6.011   1.130  12.065 -2.5529  1.5891  1.5309
 2115TIP3    H227761   6.070   1.195  12.188  1.0096 -0.6238  1.0600
 2116TIP3   OH227762   1.037   6.493   0.413  0.1834  0.5264 -0.1700
 2116TIP3    H127763   1.030   6.421   0.476 -1.1592  0.9058  0.1340
 2116TIP3    H227764   1.123   6.481   0.372  0.0272 -1.1710 -0.0312
 2117TIP3   OH227765   1.199   0.053   5.890  0.1227 -0.4882 -0.6786
 2117TIP3    H127766   1.275   0.037   5.835 -0.6723 -2.7690 -1.1710
 2117TIP3    H227767   1.218   0.006   5.971  0.4875  1.3465  0.3397
 2118TIP3   OH227768   1.112   4.889  16.836 -0.0419 -0.7829 -0.4579
 2118TIP3    H127769   1.042   4.892  16.901 -0.2510  1.4174 -0.7468
 2118TIP3    H227770   1.193   4.893  16.888 -0.1960 -0.0146 -0.2722
 2119TIP3   OH227771   3.760   4.969  12.740  0.0817  0.3448 -0.1898
 2119TIP3    H127772   3.717   5.022  12.807  1.5373 -0.3311  1.3319
 2119TIP3    H227773   3.795   5.032  12.678  0.1918  1.0840  0.6073
 2120TIP3   OH227774   1.640   4.946   0.389 -0.2323 -0.1901 -0.0766
 2120TIP3    H127775   1.605   4.880   0.449 -0.7841  0.4533  0.3133
 2120TIP3    H227776   1.715   4.983   0.436  1.7146 -2.3670 -1.3808
 2121TIP3   OH227777   4.713   6.504   0.413 -0.0632  0.1381  0.1617
 2121TIP3    H127778   4.724   6.471   0.502  0.9939 -0.8092 -0.3061
 2121TIP3    H227779   4.689   6.596   0.424  0.1018  0.0376  1.4209
 2122TIP3   OH227780   6.617   5.917  11.803 -0.4578  0.1604 -0.2629
 2122TIP3    H127781   6.595   5.974  11.730 -1.5594  1.0700  0.7650
 2122TIP3    H227782   6.700   5.877  11.778 -1.2141 -0.1505 -2.3481
 2123TIP3   OH227783   3.242   4.885   4.654  0.5768  0.2470  0.1904
 2123TIP3    H127784   3.155   4.912   4.686 -0.0133 -2.0309  0.5683
 2123TIP3    H227785   3.226   4.853   4.566  0.8179 -1.2899  0.6939
 2124TIP3   OH227786   3.246   6.339   2.562 -0.0371  0.1161  0.1199
 2124TIP3    H127787   3.308   6.297   2.622  1.1793  0.2307 -1.0444
 2124TIP3    H227788   3.198   6.402   2.617  0.4777 -0.3761  1.1458
 2125TIP3   OH227789   3.273   5.000  13.674 -0.4628 -0.3804 -0.7374
 2125TIP3    H127790   3.239   5.012  13.762  1.0960  1.1453 -0.3066
 2125TIP3    H227791   3.206   5.037  13.617 -0.5439  0.5620 -0.0476
 2126TIP3   OH227792   1.135   4.179   3.918  0.0506  0.1427 -0.4577
 2126TIP3    H127793   1.171   4.238   3.984 -0.2211  0.1542 -0.3182
 2126TIP3    H227794   1.066   4.130   3.964  0.6002 -0.6268 -0.4532
 2127TIP3   OH227795   2.979   2.103   3.939 -0.1041  0.2446  0.0566
 2127TIP3    H127796   2.984   2.008   3.938 -0.0658  0.2140  1.4275
 2127TIP3    H227797   2.887   2.122   3.921 -0.6640 -0.1619  2.2892
 2128TIP3   OH227798   0.587   2.850  16.635  0.1204  0.5850 -0.4829
 2128TIP3    H127799   0.550   2.867  16.548 -0.4740 -1.5079 -0.6786
 2128TIP3    H227800   0.659   2.789  16.619  0.7347  1.0675  0.3851
 2129TIP3   OH227801   4.343   4.296   5.899  0.4956  0.7733 -0.6182
 2129TIP3    H127802   4.437   4.295   5.914 -0.0671 -2.2689  3.8922
 2129TIP3    H227803   4.313   4.377   5.941  1.0350  1.4025 -1.4548
 2130TIP3   OH227804   3.363   2.742  15.098 -0.2381 -0.0134  0.0747
 2130TIP3    H127805   3.346   2.809  15.031 -0.0678 -0.0695 -0.0262
 2130TIP3    H227806   3.278   2.703  15.116 -0.1379 -0.6385 -0.7902
 2131TIP3   OH227807   4.869   6.527  15.915 -0.0429  0.1439  1.0052
 2131TIP3    H127808   4.868   6.435  15.944  0.0196  0.7551  3.0497
 2131TIP3    H227809   4.948   6.564  15.954 -0.2902  1.1859  0.5447
 2132TIP3   OH227810   1.098   3.088  17.204  0.1743 -0.2781 -0.0898
 2132TIP3    H127811   1.153   3.124  17.134  0.7302  0.0386  0.5041
 2132TIP3    H227812   1.160   3.044  17.262 -0.6647 -4.0748 -1.8858
 2133TIP3   OH227813   5.168   1.156  14.947  0.4086 -0.1249  0.1814
 2133TIP3    H127814   5.128   1.154  15.034 -0.1780  0.3055 -0.0817
 2133TIP3    H227815   5.257   1.189  14.963 -0.2531  1.5838  0.4017
 2134TIP3   OH227816   3.084   4.779  16.234  0.5319  0.1908  0.4925
 2134TIP3    H127817   3.050   4.867  16.248 -0.1184  0.1054 -0.5023
 2134TIP3    H227818   3.138   4.787  16.155  0.0420 -0.4111  0.0894
 2135TIP3   OH227819   2.373   4.389   2.755 -0.3996  0.1232  0.2450
 2135TIP3    H127820   2.369   4.433   2.670 -3.2070  0.3231  0.4225
 2135TIP3    H227821   2.400   4.458   2.816  0.6410  0.2188 -0.3102
 2136TIP3   OH227822   1.041   3.150  13.008  0.3559  0.2560 -0.1401
 2136TIP3    H127823   1.094   3.229  12.998 -0.3494  0.6330 -0.8959
 2136TIP3    H227824   1.083   3.086  12.950  2.1081 -0.5431  1.9632
 2137TIP3   OH227825   5.468   5.556  11.904  0.5781  0.6763 -0.8720
 2137TIP3    H127826   5.435   5.468  11.923  0.7527  0.7726 -0.0635
 2137TIP3    H227827   5.405   5.593  11.842  0.7136 -0.1550 -1.5168
 2138TIP3   OH227828   6.311   2.469   4.628  0.4784  0.6479  0.1431
 2138TIP3    H127829   6.230   2.420   4.616  1.0773 -0.2986 -0.0597
 2138TIP3    H227830   6.321   2.518   4.546  1.2862 -0.9879 -0.7658
 2139TIP3   OH227831   4.686   4.879  11.525 -0.3138  0.6135 -0.7764
 2139TIP3    H127832   4.723   4.838  11.447  0.5258  0.5750 -0.3664
 2139TIP3    H227833   4.711   4.971  11.517  2.6939  0.0251  1.0928
 2140TIP3   OH227834   2.054   4.281   5.875 -0.5818 -0.5148 -0.1980
 2140TIP3    H127835   2.139   4.236   5.881 -0.2647  0.1960  0.8569
 2140TIP3    H227836   2.004   4.248   5.950 -1.5059 -1.4743 -1.2396
 2141TIP3   OH227837   4.848   4.935  12.319 -0.1156 -0.1080  0.2471
 2141TIP3    H127838   4.828   4.891  12.402  0.9802  1.3324  1.3026
 2141TIP3    H227839   4.906   5.007  12.343  1.5227 -0.6251 -1.9819
 2142TIP3   OH227840   0.986   4.117   2.941 -0.5221 -0.1141  0.3972
 2142TIP3    H127841   0.967   4.168   2.862  0.6465  1.2629  0.9806
 2142TIP3    H227842   0.983   4.181   3.012  1.6593 -0.7228  1.0679
 2143TIP3   OH227843   5.115   6.134  12.935  0.3091  0.2463  0.1952
 2143TIP3    H127844   5.046   6.136  13.002  0.1272 -3.1093  0.2125
 2143TIP3    H227845   5.071   6.155  12.854 -0.4793 -0.4922  0.4239
 2144TIP3   OH227846   2.666   4.732  14.268  0.0672  0.3595  0.1501
 2144TIP3    H127847   2.689   4.787  14.193 -0.2782  0.3031 -0.0029
 2144TIP3    H227848   2.609   4.665  14.230  0.3403  0.0051  0.3675
 2145TIP3   OH227849   0.405   6.370  12.490  0.0391  0.1475 -0.5462
 2145TIP3    H127850   0.439   6.352  12.577 -1.1003  0.1473 -0.0927
 2145TIP3    H227851   0.348   6.446  12.501  0.0152  0.2557 -1.3229
 2146TIP3   OH227852   5.113   0.234   5.258  0.1089  0.0050  0.6171
 2146TIP3    H127853   5.175   0.180   5.209 -3.2537 -1.4945 -2.2165
 2146TIP3    H227854   5.089   0.180   5.333 -0.3575 -0.9171 -0.1697
 2147TIP3   OH227855   5.999   3.833   1.278  0.1245  0.6019  0.5020
 2147TIP3    H127856   6.067   3.884   1.321  0.9906  0.6699 -0.9157
 2147TIP3    H227857   6.042   3.750   1.256 -0.5824  0.1992  0.6282
 2148TIP3   OH227858   6.557   0.166  13.846  0.0760 -0.2823 -0.6153
 2148TIP3    H127859   6.511   0.147  13.764 -0.7759 -0.3222 -0.1360
 2148TIP3    H227860   6.547   0.086  13.897  0.9485 -0.4016 -0.6217
 2149TIP3   OH227861   2.822   0.830   0.052 -0.2251  0.3862  0.2106
 2149TIP3    H127862   2.814   0.817   0.147  0.4720 -0.5043  0.1572
 2149TIP3    H227863   2.748   0.886   0.029 -0.0802  1.0606  1.3654
 2150TIP3   OH227864   6.302   3.218  16.327  0.0907  0.2318 -0.0033
 2150TIP3    H127865   6.271   3.130  16.345  1.6606 -0.4868 -0.7491
 2150TIP3    H227866   6.367   3.236  16.395  0.9781  0.1530 -0.8034
 2151TIP3   OH227867   5.563   4.221  15.542 -0.3173  0.1214 -0.2525
 2151TIP3    H127868   5.506   4.273  15.599 -1.0160  0.6492 -1.4113
 2151TIP3    H227869   5.557   4.264  15.456  0.0778 -1.1405 -0.9179
 2152TIP3   OH227870   2.987   1.541  13.818  0.1813  0.2018  0.2799
 2152TIP3    H127871   3.049   1.595  13.769  0.9522 -0.8923  0.0419
 2152TIP3    H227872   3.023   1.453  13.814  0.0584  0.0257  2.5119
 2153TIP3   OH227873   1.114   0.882   2.910  0.0995  0.3120  0.1360
 2153TIP3    H127874   1.204   0.906   2.933  0.2712 -0.5877  0.4033
 2153TIP3    H227875   1.100   0.923   2.824  0.8610  0.2161 -0.0417
 2154TIP3   OH227876   3.678   0.422   3.795 -0.1587 -0.0750  0.3030
 2154TIP3    H127877   3.754   0.432   3.737 -1.3293  2.0789 -0.9243
 2154TIP3    H227878   3.603   0.416   3.736 -1.1921  0.3420  1.5414
 2155TIP3   OH227879   4.349   6.374   1.557 -0.2879  0.2336  0.0130
 2155TIP3    H127880   4.328   6.383   1.649  0.0940 -1.0067  0.2292
 2155TIP3    H227881   4.293   6.302   1.526 -1.1307  1.2881 -0.9566
 2156TIP3   OH227882   4.705   5.314   3.015  0.1933 -0.3379  0.0298
 2156TIP3    H127883   4.677   5.396   3.056 -1.3592 -0.2554 -1.1798
 2156TIP3    H227884   4.765   5.340   2.946  1.7456 -0.3984  1.3222
 2157TIP3   OH227885   5.311   5.832  14.889 -0.2815 -0.7142  0.0275
 2157TIP3    H127886   5.309   5.828  14.793  0.0013 -0.2706  0.0018
 2157TIP3    H227887   5.383   5.775  14.914 -1.5362 -2.3140  0.0674
 2158TIP3   OH227888   4.294   4.660   2.261 -0.3380  0.0125 -0.3861
 2158TIP3    H127889   4.253   4.733   2.215 -0.6329  0.6616  0.8866
 2158TIP3    H227890   4.358   4.701   2.319 -1.0732 -0.6773  0.9406
 2159TIP3   OH227891   1.704   2.311   3.724  0.2820  0.3934  0.0711
 2159TIP3    H127892   1.777   2.323   3.662  1.0855 -1.0907  0.6951
 2159TIP3    H227893   1.641   2.256   3.676  0.0890  0.7308 -0.0628
 2160TIP3   OH227894   6.268   3.928  10.580  0.2626 -0.4351 -0.0486
 2160TIP3    H127895   6.343   3.870  10.592 -1.3308 -2.3702  0.8716
 2160TIP3    H227896   6.207   3.878  10.526 -0.5668  0.9531 -0.4446
 2161TIP3   OH227897   1.356   2.630  14.281 -0.1444 -0.4772  0.1182
 2161TIP3    H127898   1.352   2.649  14.187 -0.8709  0.3247  0.3076
 2161TIP3    H227899   1.265   2.616  14.306 -0.1108  0.8221  1.0092
 2162TIP3   OH227900   6.741   0.775   5.535  0.4287 -0.2472  0.1388
 2162TIP3    H127901   6.828   0.810   5.554 -0.8761  3.2087  0.1084
 2162TIP3    H227902   6.755   0.713   5.464  3.1097 -1.1328  1.3824
 2163TIP3   OH227903   4.742   5.145  11.339 -0.2298 -0.3148 -0.0193
 2163TIP3    H127904   4.808   5.209  11.310  0.7877 -1.0962  0.5341
 2163TIP3    H227905   4.749   5.074  11.275  0.5003 -1.0571  0.8642
 2164TIP3   OH227906   2.974   4.740  13.759 -0.1587  0.1652  0.0047
 2164TIP3    H127907   2.923   4.803  13.708 -1.9723 -1.5110 -0.3242
 2164TIP3    H227908   2.911   4.672  13.782  1.7598 -1.5462  0.3015
 2165TIP3   OH227909   3.952   6.270   1.717 -0.1883 -0.3031 -0.5427
 2165TIP3    H127910   3.863   6.239   1.700 -0.2524  0.0553 -0.8488
 2165TIP3    H227911   3.950   6.302   1.807 -0.3649 -0.3064 -0.5453
 2166TIP3   OH227912   0.055   0.762  13.130  0.1210  0.4420  0.0613
 2166TIP3    H127913   0.080   0.692  13.070 -0.5266  0.2401  0.0265
 2166TIP3    H227914   0.096   0.737  13.213  0.2340  0.2388 -0.0541
 2167TIP3   OH227915   4.385   4.678  17.066 -0.5166 -0.2143  0.3545
 2167TIP3    H127916   4.387   4.649  17.158 -0.7413 -0.4143  0.3003
 2167TIP3    H227917   4.467   4.646  17.029 -0.4898 -0.2570  0.4500
 2168TIP3   OH227918   2.132   1.614   2.077 -0.4699  0.1396 -0.1924
 2168TIP3    H127919   2.159   1.576   1.994 -0.9460 -0.8950  0.1161
 2168TIP3    H227920   2.187   1.691   2.088  0.5840 -0.5227 -0.7828
 2169TIP3   OH227921   0.096   3.505   1.722  0.2360  0.2896 -0.5392
 2169TIP3    H127922   0.130   3.591   1.695  0.9941 -0.5077 -2.1699
 2169TIP3    H227923   0.154   3.477   1.793 -1.2606  2.0210  1.4419
 2170TIP3   OH227924   0.675   5.320  11.790  0.5054  0.1088 -0.1005
 2170TIP3    H127925   0.674   5.277  11.875  0.5472 -1.0635 -0.6891
 2170TIP3    H227926   0.692   5.412  11.810  0.4735 -0.1555  1.1592
 2171TIP3   OH227927   6.491   3.288  11.770 -0.2023 -0.4602  0.3262
 2171TIP3    H127928   6.482   3.259  11.861  0.3644 -1.2594  0.1331
 2171TIP3    H227929   6.462   3.213  11.719  0.5325 -0.3970 -0.1767
 2172TIP3   OH227930   0.426   0.986   3.072 -0.1709 -0.0782 -0.1663
 2172TIP3    H127931   0.373   0.923   3.022  0.8236  0.3587 -1.8148
 2172TIP3    H227932   0.366   1.020   3.138 -1.7952 -0.0433 -1.6066
 2173TIP3   OH227933   2.540   2.321  17.094  0.1827 -0.6499 -0.1466
 2173TIP3    H127934   2.579   2.288  17.175 -0.3047  0.9539  0.7749
 2173TIP3    H227935   2.483   2.392  17.123  1.7093  1.4367 -2.1078
 2174TIP3   OH227936   4.285   0.409  14.787 -0.5036  0.0516  0.5481
 2174TIP3    H127937   4.195   0.412  14.818 -0.7732 -2.1533  0.0993
 2174TIP3    H227938   4.313   0.319  14.803  1.5648  0.6437  0.4944
 2175TIP3   OH227939   0.353   4.935   4.235 -0.0459  0.4253 -0.0429
 2175TIP3    H127940   0.376   4.843   4.225  0.7302  0.7938 -2.0196
 2175TIP3    H227941   0.405   4.980   4.168  0.3766  2.4339  1.5810
 2176TIP3   OH227942   1.478   4.883   5.013  0.0483  0.0106 -0.2458
 2176TIP3    H127943   1.436   4.948   4.956  0.1411 -1.1980 -1.7320
 2176TIP3    H227944   1.427   4.803   4.999 -0.1507 -0.1989  1.6642
 2177TIP3   OH227945   3.501   6.228   0.531 -0.1358 -0.7302 -0.6688
 2177TIP3    H127946   3.449   6.275   0.466  0.1169 -0.0287 -0.3791
 2177TIP3    H227947   3.569   6.184   0.481  0.5323  0.4532 -0.8109
 2178TIP3   OH227948   6.195   1.662  15.563  0.1729  0.3840  0.7213
 2178TIP3    H127949   6.122   1.604  15.585  0.2722 -0.6632 -1.5644
 2178TIP3    H227950   6.153   1.747  15.546 -0.4425 -0.0218  0.1588
 2179TIP3   OH227951   5.023   0.372   1.642  0.2010  0.2442  0.3517
 2179TIP3    H127952   5.096   0.340   1.694 -0.5992 -0.8945  0.8000
 2179TIP3    H227953   4.947   0.326   1.677 -0.5026  0.2610 -1.1373
 2180TIP3   OH227954   3.822   0.480  16.454 -0.4413  0.1353 -0.4704
 2180TIP3    H127955   3.855   0.418  16.388  2.6769  0.7274  0.4171
 2180TIP3    H227956   3.846   0.566  16.420 -1.5054  0.6284  0.0126
 2181TIP3   OH227957   3.762   6.681   4.697  0.1409 -0.3154  0.2506
 2181TIP3    H127958   3.792   6.639   4.777  0.1147 -1.2110 -0.2087
 2181TIP3    H227959   3.745   6.609   4.636  0.0720  0.3502 -0.5293
 2182TIP3   OH227960   1.542   0.336  10.936  0.0655  0.1146  0.3438
 2182TIP3    H127961   1.636   0.338  10.957  0.0812  1.3337  0.2050
 2182TIP3    H227962   1.536   0.279  10.859  0.7297  0.2480  0.1849
 2183TIP3   OH227963   1.763   0.011  15.754  0.0240 -0.1170 -0.7519
 2183TIP3    H127964   1.780  -0.055  15.688  0.5750  1.2217 -1.9811
 2183TIP3    H227965   1.787   0.094  15.712 -0.2535  0.8219  0.8869
 2184TIP3   OH227966   6.112   2.159   6.758  0.5331 -0.5274 -0.5886
 2184TIP3    H127967   6.081   2.214   6.686  0.2090  0.9861  0.6877
 2184TIP3    H227968   6.207   2.173   6.760  0.6276 -1.0519 -1.0953
 2185TIP3   OH227969   6.442   4.558   1.159  0.1484 -0.0924  0.2264
 2185TIP3    H127970   6.505   4.582   1.090 -1.0364 -0.8320 -1.1245
 2185TIP3    H227971   6.435   4.463   1.153 -1.1791 -0.0073  0.2846
 2186TIP3   OH227972   6.545   3.483  16.508 -0.7371  0.1836 -0.0898
 2186TIP3    H127973   6.595   3.534  16.572 -0.1502 -1.2100  0.5920
 2186TIP3    H227974   6.566   3.523  16.424  0.9849  0.0718  0.2602
 2187TIP3   OH227975   4.136   2.751   3.789  0.4188  0.5056  0.5090
 2187TIP3    H127976   4.129   2.842   3.761  1.6049  0.4613  0.0663
 2187TIP3    H227977   4.185   2.754   3.871  1.6255  0.1508 -0.1912
 2188TIP3   OH227978   6.034   3.565  13.614  0.1591 -0.2934  0.3610
 2188TIP3    H127979   5.966   3.502  13.591  1.3936 -1.0904 -1.2462
 2188TIP3    H227980   6.049   3.551  13.708 -0.6205 -1.3611  0.3424
 2189TIP3   OH227981   5.212   1.281   5.979  0.0280  0.3107  0.3646
 2189TIP3    H127982   5.125   1.241   5.976  0.3554 -0.3234 -1.6932
 2189TIP3    H227983   5.199   1.364   6.025 -1.8424  0.6049 -0.6402
 2190TIP3   OH227984   0.988   2.392   3.166 -0.1063  0.2035  0.3930
 2190TIP3    H127985   1.007   2.338   3.242 -0.8270  1.4891  1.5030
 2190TIP3    H227986   0.900   2.426   3.182 -0.0260  0.9680 -0.7286
 2191TIP3   OH227987   2.813   1.894  16.449  0.4329  0.1436  0.0853
 2191TIP3    H127988   2.790   1.862  16.536 -0.8894  0.9979  0.0610
 2191TIP3    H227989   2.748   1.962  16.430  0.4505 -0.2992 -1.7205
 2192TIP3   OH227990   4.505   1.415   3.924  0.3170 -0.1335  0.0784
 2192TIP3    H127991   4.483   1.375   3.840  0.4538  0.2068 -0.1217
 2192TIP3    H227992   4.551   1.347   3.973  0.2174 -0.3370 -0.1161
 2193TIP3   OH227993   1.882   3.123   1.669 -0.0545 -0.3335 -0.0828
 2193TIP3    H127994   1.916   3.164   1.590  0.0261  2.4896  1.3753
 2193TIP3    H227995   1.787   3.133   1.662 -0.2472 -2.4713 -1.0509
 2194TIP3   OH227996   5.915   0.336   1.840  0.6590 -0.5567  0.4522
 2194TIP3    H127997   5.833   0.320   1.887  0.9158  1.0737  1.4744
 2194TIP3    H227998   5.916   0.431   1.826  2.2043 -0.6171  0.1294
 2195TIP3   OH227999   2.328   3.791   2.446  0.4439  0.3368  0.3130
 2195TIP3    H128000   2.354   3.875   2.486  0.7034  0.3218  0.1781
 2195TIP3    H228001   2.236   3.781   2.469  0.2554  0.9397 -0.1436
 2196TIP3   OH228002   4.551   1.187   2.788 -0.0428 -0.5113  0.1878
 2196TIP3    H128003   4.559   1.181   2.883  0.2117  1.0422  0.2790
 2196TIP3    H228004   4.601   1.265   2.764 -2.2355  0.6013 -0.9417
 2197TIP3   OH228005   5.403   2.779  13.633 -0.6220  0.0169 -0.1918
 2197TIP3    H128006   5.393   2.801  13.541 -0.4654 -1.2391 -0.5172
 2197TIP3    H228007   5.437   2.689  13.633  2.6666  1.1844  0.9940
 2198TIP3   OH228008   1.991   2.892   0.826  0.3692  0.4399  0.0834
 2198TIP3    H128009   2.010   2.984   0.804 -0.1354  1.0151  2.0101
 2198TIP3    H228010   1.910   2.895   0.877  0.2434 -1.1063  0.0005
 2199TIP3   OH228011   0.646   3.364  11.929  0.0393 -0.5833 -0.2285
 2199TIP3    H128012   0.671   3.314  11.851  0.4814 -0.3666 -0.2226
 2199TIP3    H228013   0.695   3.323  12.000  0.9134  0.2743 -0.3229
 2200TIP3   OH228014   5.868   3.742   5.449 -0.1489  0.6208 -0.4361
 2200TIP3    H128015   5.799   3.701   5.501 -0.0503  1.3207  0.2542
 2200TIP3    H228016   5.944   3.686   5.460 -0.6262 -0.1861 -1.2460
 2201TIP3   OH228017   6.748   2.909   2.596  0.0430  0.5774  0.1653
 2201TIP3    H128018   6.836   2.917   2.560  0.1008  1.0840  0.4213
 2201TIP3    H228019   6.708   2.995   2.583 -0.4855  0.2920 -0.1360
 2202TIP3   OH228020   1.880   1.030   2.126 -0.4364 -0.5211 -0.3830
 2202TIP3    H128021   1.873   1.114   2.171 -3.3748 -0.4444 -0.9245
 2202TIP3    H228022   1.860   0.965   2.194  1.4460 -0.8183 -0.0645
 2203TIP3   OH228023   2.965   3.553  11.034 -0.3732 -0.4632  0.1298
 2203TIP3    H128024   2.893   3.604  11.071 -0.2209 -0.7021  0.7554
 2203TIP3    H228025   2.929   3.465  11.022 -0.2972 -0.4904  0.0976
 2204TIP3   OH228026   3.754   5.258  13.713  0.2856 -0.1798 -0.2892
 2204TIP3    H128027   3.676   5.205  13.725  0.5405 -0.5191 -0.1215
 2204TIP3    H228028   3.806   5.212  13.648 -0.4459  0.9408 -1.6897
 2205TIP3   OH228029   6.605   6.322  16.124  0.0549  0.1986  0.8187
 2205TIP3    H128030   6.675   6.374  16.085 -0.7874  0.7229 -0.0370
 2205TIP3    H228031   6.524   6.364  16.093 -0.6340 -0.2986  1.9141
 2206TIP3   OH228032   1.346   0.640  14.097 -0.2159  0.6883 -0.4999
 2206TIP3    H128033   1.259   0.671  14.122  0.2572  1.9546 -0.3781
 2206TIP3    H228034   1.391   0.718  14.065  1.2188  0.2582  0.4074
 2207TIP3   OH228035   4.924   1.105   3.182  0.0693 -0.6992 -0.6329
 2207TIP3    H128036   4.911   1.184   3.235  1.9110  0.3035 -1.5996
 2207TIP3    H228037   4.972   1.045   3.240  0.2219 -0.4269 -0.4797
 2208TIP3   OH228038   6.578   4.290   1.964 -1.1690 -0.8395  0.4146
 2208TIP3    H128039   6.648   4.329   1.912 -0.1974 -1.3530  1.3337
 2208TIP3    H228040   6.501   4.342   1.942  0.4627  3.0022  3.1035
 2209TIP3   OH228041   4.807   3.478   3.832 -0.0815 -0.0777  0.5659
 2209TIP3    H128042   4.862   3.556   3.819 -0.1167 -0.4176 -1.7966
 2209TIP3    H228043   4.848   3.411   3.778 -0.6438 -1.4270  1.8054
 2210TIP3   OH228044   4.697   0.886   0.000  0.0898  0.3880  0.1186
 2210TIP3    H128045   4.678   0.833   0.077  0.2328  2.0038  1.3091
 2210TIP3    H228046   4.612   0.923  -0.025 -0.2808 -1.5673 -1.6387
 2211TIP3   OH228047   1.802   4.072  13.923  0.3412  0.7553 -0.7121
 2211TIP3    H128048   1.815   3.977  13.922 -1.4693  0.4972 -0.9052
 2211TIP3    H228049   1.860   4.102  13.993 -2.7994 -1.1226  2.8806
 2212TIP3   OH228050   4.317   0.436   1.237 -0.4972  0.0068  0.3527
 2212TIP3    H128051   4.299   0.440   1.143 -0.7204 -1.7669  0.3042
 2212TIP3    H228052   4.308   0.343   1.259 -0.9829  0.4856  2.2343
 2213TIP3   OH228053   5.247   0.243   1.945 -0.1758 -0.5755 -0.7188
 2213TIP3    H128054   5.293   0.263   2.027 -0.0157  0.2223 -1.0005
 2213TIP3    H228055   5.290   0.296   1.879 -0.6857 -0.7749 -1.2233
 2214TIP3   OH228056   0.861   3.748   5.937 -0.1396  0.0499 -0.7446
 2214TIP3    H128057   0.767   3.766   5.932 -0.0458  0.6150 -0.4109
 2214TIP3    H228058   0.886   3.767   6.027  0.2296 -0.4496 -0.7329
 2215TIP3   OH228059   1.390   3.799   1.341 -0.4883 -0.3074  0.0819
 2215TIP3    H128060   1.434   3.875   1.304 -0.0325 -0.9756 -0.7907
 2215TIP3    H228061   1.311   3.833   1.382  0.1844  0.7481  0.5348
 2216TIP3   OH228062   6.301   3.684   1.159 -0.1119  0.0682  0.8061
 2216TIP3    H128063   6.307   3.721   1.247 -0.1530 -0.6107  1.0964
 2216TIP3    H228064   6.306   3.760   1.101  0.4432  0.4730  1.3746
 2217TIP3   OH228065   6.301   0.709   0.483  0.3098  0.1887  0.4066
 2217TIP3    H128066   6.344   0.794   0.483 -0.5082  0.6111  0.8882
 2217TIP3    H228067   6.294   0.686   0.576  0.4835 -0.3821  0.2784
 2218TIP3   OH228068   2.758   4.170  15.269 -0.2447 -0.3063 -0.2296
 2218TIP3    H128069   2.675   4.139  15.234 -0.3590  0.9374 -1.0774
 2218TIP3    H228070   2.768   4.258  15.233  1.3722 -0.3944 -0.0310
 2219TIP3   OH228071   3.110   6.036   2.130 -0.0014 -0.5159 -0.4949
 2219TIP3    H128072   3.186   6.091   2.149  1.1905 -1.6814 -1.7374
 2219TIP3    H228073   3.094   5.988   2.211 -0.1127  0.5470  0.1190
 2220TIP3   OH228074   2.133   5.360  13.018  0.0914 -0.0487 -0.1490
 2220TIP3    H128075   2.073   5.418  12.972 -1.5809 -0.5652  1.2999
 2220TIP3    H228076   2.199   5.418  13.056 -1.4174  0.9076  1.0648
 2221TIP3   OH228077   3.476   1.839   3.438 -0.5774  0.5011 -0.4059
 2221TIP3    H128078   3.413   1.775   3.405 -1.7616  2.2222 -1.5999
 2221TIP3    H228079   3.537   1.851   3.365  1.3337 -1.3576  0.8426
 2222TIP3   OH228080   2.575   3.469   0.383 -0.0098 -0.0018  0.6372
 2222TIP3    H128081   2.647   3.487   0.324  0.5580 -0.1477  1.2756
 2222TIP3    H228082   2.514   3.416   0.332  1.2133 -1.4786  0.6623
 2223TIP3   OH228083   5.114   6.740   0.495  0.7029  0.3889 -0.4166
 2223TIP3    H128084   5.120   6.829   0.532  0.8648  0.9218 -1.6996
 2223TIP3    H228085   5.203   6.705   0.503  0.6447  0.3461  0.0695
 2224TIP3   OH228086   2.646   5.758  15.964  0.1359  0.5334 -0.4126
 2224TIP3    H128087   2.717   5.699  15.941 -1.5030 -1.5769 -0.2756
 2224TIP3    H228088   2.619   5.797  15.881  0.1950 -0.1202 -0.7417
 2225TIP3   OH228089   4.348   0.104   3.690  0.2757  0.1271 -0.3229
 2225TIP3    H128090   4.298   0.120   3.770 -1.0327  0.6743 -1.2157
 2225TIP3    H228091   4.284   0.065   3.630  1.2951 -0.4936 -1.0115
 2226TIP3   OH228092   2.187   5.863  11.471  0.5489  0.3857 -0.2507
 2226TIP3    H128093   2.246   5.819  11.409  0.3800 -0.2648  0.0426
 2226TIP3    H228094   2.104   5.869  11.424  0.3301 -0.4019  0.0280
 2227TIP3   OH228095   5.496   5.453   4.030  0.0703 -0.2865  0.5006
 2227TIP3    H128096   5.418   5.508   4.035  0.8918  1.0056 -0.7958
 2227TIP3    H228097   5.462   5.363   4.027 -1.4144  0.3205 -1.4730
 2228TIP3   OH228098   6.758   5.664   6.725  0.0460  0.0821 -0.5919
 2228TIP3    H128099   6.692   5.704   6.669 -1.0267  0.8086  1.1496
 2228TIP3    H228100   6.713   5.649   6.808  1.5602 -1.0982  0.0397
 2229TIP3   OH228101   0.999   0.658  13.306  0.3224 -0.2903  0.1469
 2229TIP3    H128102   0.967   0.747  13.317  0.8175  0.1617 -1.9772
 2229TIP3    H228103   1.059   0.645  13.379 -0.6002  0.7198  1.0998
 2230TIP3   OH228104   3.556   1.820  12.408  0.0395  0.2584  0.4379
 2230TIP3    H128105   3.628   1.770  12.446  0.6383  0.0423 -0.9651
 2230TIP3    H228106   3.490   1.754  12.386 -0.3173  0.3859  1.1079
 2231TIP3   OH228107   5.245   5.961  14.341 -0.1446  0.0033  0.4690
 2231TIP3    H128108   5.266   5.890  14.402  1.2040 -0.3865 -0.4314
 2231TIP3    H228109   5.237   6.038  14.397  2.8696  0.0043  1.0080
 2232TIP3   OH228110   2.771   1.713  12.133  0.5726  0.1372  0.0562
 2232TIP3    H128111   2.753   1.740  12.223  3.4467 -2.4789  1.5368
 2232TIP3    H228112   2.840   1.772  12.103 -0.1731  0.8175 -0.3091
 2233TIP3   OH228113   0.516   4.413  10.690 -0.1709 -0.5818 -0.5098
 2233TIP3    H128114   0.436   4.385  10.735 -0.4739  0.1678 -0.5811
 2233TIP3    H228115   0.575   4.338  10.698 -1.5167 -1.8505 -2.0356
 2234TIP3   OH228116   1.671   0.287   3.720  0.4279  0.6417  0.3658
 2234TIP3    H128117   1.743   0.260   3.778  0.9026  1.2661  0.0714
 2234TIP3    H228118   1.592   0.274   3.773  0.3434 -4.0755 -0.7236
 2235TIP3   OH228119   4.588   0.639   3.431  0.5299 -0.3900  0.3583
 2235TIP3    H128120   4.526   0.711   3.438 -0.3281 -1.1881  1.2571
 2235TIP3    H228121   4.569   0.584   3.508  1.6258 -1.1980  0.0628
 2236TIP3   OH228122   2.376   1.300  11.852  0.4765 -0.1413 -0.3071
 2236TIP3    H128123   2.432   1.276  11.778  2.0694 -2.0511  1.4161
 2236TIP3    H228124   2.298   1.245  11.842 -0.2339  1.0970 -1.6556
 2237TIP3   OH228125   3.114   4.149   1.448 -0.3124 -1.1418  0.3897
 2237TIP3    H128126   3.114   4.117   1.539 -0.5688  0.0241  0.8130
 2237TIP3    H228127   3.204   4.177   1.432 -1.2006  2.8448  1.8334
 2238TIP3   OH228128   2.804   3.629   2.121  0.3131 -0.2762  0.0899
 2238TIP3    H128129   2.799   3.724   2.119  0.2510 -0.1743  2.8933
 2238TIP3    H228130   2.891   3.609   2.087 -0.1626  0.7005 -1.7286
 2239TIP3   OH228131   2.782   1.551   5.505  0.0968  0.2806  0.4454
 2239TIP3    H128132   2.783   1.559   5.410 -0.2602 -1.5497  0.2613
 2239TIP3    H228133   2.820   1.465   5.522 -0.7118  0.1938  1.8996
 2240TIP3   OH228134   3.790   4.243   3.747  0.3131 -0.4261 -0.6235
 2240TIP3    H128135   3.803   4.150   3.733  1.6320 -0.5375  1.1522
 2240TIP3    H228136   3.780   4.280   3.659  1.9103 -1.9500 -1.4638
 2241TIP3   OH228137   5.676   5.110   1.450  0.1151  0.2368 -0.2256
 2241TIP3    H128138   5.641   5.114   1.362 -0.3305  1.0458 -0.0180
 2241TIP3    H228139   5.659   5.197   1.487  0.3933 -0.0574  0.6149
 2242TIP3   OH228140   1.094   6.335   0.119  0.6558 -0.0710  0.1198
 2242TIP3    H128141   1.009   6.302   0.148 -0.9624  1.4287 -2.7113
 2242TIP3    H228142   1.146   6.257   0.102 -0.9474 -1.0673 -0.2923
 2243TIP3   OH228143   3.434   5.072   4.569  0.0327  0.1950  0.5433
 2243TIP3    H128144   3.400   5.097   4.483 -1.3089 -2.3231  0.2852
 2243TIP3    H228145   3.370   5.010   4.603  1.6886 -0.5567  2.4108
 2244TIP3   OH228146   3.581   2.277  15.542 -0.3197 -0.0295 -0.3681
 2244TIP3    H128147   3.671   2.304  15.523 -0.3611 -1.2051 -2.3304
 2244TIP3    H228148   3.583   2.250  15.634  0.7591  2.2404  0.3186
 2245TIP3   OH228149   5.846   2.337   4.510  0.1291  0.0821 -0.3623
 2245TIP3    H128150   5.901   2.412   4.532 -0.3427  0.2829  0.1410
 2245TIP3    H228151   5.907   2.264   4.500  0.6686  0.6883 -1.6275
 2246TIP3   OH228152   4.360   1.411  11.115  0.2413  0.2487  0.4095
 2246TIP3    H128153   4.377   1.453  11.031 -1.1628  1.0322  0.5118
 2246TIP3    H228154   4.339   1.320  11.092  1.1872  0.1196  0.0305
 2247TIP3   OH228155   4.366   1.357  13.279 -0.5214 -0.1624 -0.1958
 2247TIP3    H128156   4.386   1.384  13.369 -1.1564  2.5278 -0.8289
 2247TIP3    H228157   4.450   1.329  13.243  0.2884  1.5149  0.3356
 2248TIP3   OH228158   1.216   0.248  15.215  0.2554 -0.2088 -0.0626
 2248TIP3    H128159   1.277   0.202  15.157 -1.0653 -2.1555  0.0543
 2248TIP3    H228160   1.207   0.190  15.291 -1.4799  0.2109  0.0583
 2249TIP3   OH228161   1.568   3.980   6.561 -0.1377 -0.5405 -0.2643
 2249TIP3    H128162   1.641   4.013   6.509 -1.7042  0.3021 -1.9843
 2249TIP3    H228163   1.560   3.888   6.534 -0.0091 -0.5089 -0.4134
 2250TIP3   OH228164   5.768   2.467   4.027  0.1243  0.6260  0.3545
 2250TIP3    H128165   5.686   2.424   4.052  1.6351 -1.7297  1.4836
 2250TIP3    H228166   5.836   2.410   4.062  2.2743  1.8424 -1.7225
 2251TIP3   OH228167   4.380   1.042  14.052 -0.2477 -0.3624  0.0021
 2251TIP3    H128168   4.445   0.994  14.103  0.1301 -0.3341 -0.4520
 2251TIP3    H228169   4.403   1.134  14.064  0.6597 -0.4129 -1.3103
 2252TIP3   OH228170   0.083   1.192  16.329 -0.0722 -0.0228  0.1192
 2252TIP3    H128171   0.019   1.260  16.349  1.8476  2.0849 -0.5805
 2252TIP3    H228172   0.069   1.171  16.237 -1.3181 -1.3047  0.5989
 2253TIP3   OH228173   1.853   6.200  11.314 -0.2701  0.3600  0.5076
 2253TIP3    H128174   1.759   6.188  11.301 -0.2689  1.8961 -1.1407
 2253TIP3    H228175   1.886   6.224  11.228  1.6342 -0.1206  1.0914
 2254TIP3   OH228176   3.064   4.439  12.657  0.1497 -0.7815 -0.1851
 2254TIP3    H128177   3.039   4.406  12.571  2.0138 -0.1973 -0.9805
 2254TIP3    H228178   3.021   4.525  12.664 -1.0327 -1.3817  0.0129
 2255TIP3   OH228179   0.875   0.187  12.548 -0.1698 -0.4489  0.0440
 2255TIP3    H128180   0.865   0.161  12.639  0.9140 -3.7518 -0.6916
 2255TIP3    H228181   0.943   0.128  12.514 -0.8962  0.3845 -2.9831
 2256TIP3   OH228182   5.438   3.677  16.531 -0.1325 -0.2015  0.1716
 2256TIP3    H128183   5.520   3.646  16.571 -0.0389  0.0596  0.1807
 2256TIP3    H228184   5.447   3.654  16.439  0.0868  0.1150  0.1131
 2257TIP3   OH228185   3.660   5.969   5.420 -0.4747 -0.0321 -0.3949
 2257TIP3    H128186   3.574   6.003   5.445 -0.5132 -0.4712  0.0673
 2257TIP3    H228187   3.722   6.025   5.468 -0.4687  0.8611 -1.4171
 2258TIP3   OH228188   2.908   5.183   0.497  0.1921  0.5026 -0.2802
 2258TIP3    H128189   2.938   5.251   0.558 -1.2106  0.6441  0.2640
 2258TIP3    H228190   2.849   5.229   0.438 -0.3642 -0.1307 -0.2236
 2259TIP3   OH228191   4.735   6.497  16.282  0.0539  0.0450 -0.2133
 2259TIP3    H128192   4.669   6.477  16.348 -0.5978  2.0766 -0.2087
 2259TIP3    H228193   4.788   6.417  16.276 -1.5305 -1.1224  0.7949
 2260TIP3   OH228194   0.102   5.632   4.899  0.2389  0.1280  0.1813
 2260TIP3    H128195   0.072   5.686   4.973 -0.4136  0.1139 -0.0686
 2260TIP3    H228196   0.093   5.690   4.823 -1.9364 -0.8330 -0.3116
 2261TIP3   OH228197   1.466   4.134   0.999 -0.2444 -0.3889  0.6135
 2261TIP3    H128198   1.410   4.076   0.947 -0.0625  0.7471 -0.8707
 2261TIP3    H228199   1.551   4.131   0.956  0.2303 -0.3250  1.5308
 2262TIP3   OH228200   5.185   5.073   3.413 -0.0330  0.2393 -0.3636
 2262TIP3    H128201   5.217   5.159   3.386 -0.0198 -0.0547 -1.3200
 2262TIP3    H228202   5.260   5.014   3.401  0.7085  0.5227  2.6637
 2263TIP3   OH228203   4.994   0.430   1.114 -0.5698 -0.8023 -0.2216
 2263TIP3    H128204   4.967   0.517   1.143 -0.0433 -0.3838 -0.9615
 2263TIP3    H228205   5.006   0.380   1.194  2.2997  0.7648  0.3629
 2264TIP3   OH228206   1.417   2.280   0.076 -0.4413 -0.4654  0.2551
 2264TIP3    H128207   1.357   2.345   0.040 -0.7469  0.7155  2.7849
 2264TIP3    H228208   1.367   2.199   0.079 -0.3777 -0.6035 -1.9964
 2265TIP3   OH228209   6.385   0.994  12.615 -0.0848  0.1236 -0.1257
 2265TIP3    H128210   6.456   1.044  12.577  1.8861 -2.4953 -0.0051
 2265TIP3    H228211   6.405   0.903  12.594 -3.2467 -0.7158  0.1592
 2266TIP3   OH228212   0.855   4.357  14.511  0.0166 -0.0956 -0.0325
 2266TIP3    H128213   0.762   4.351  14.490  0.1609 -0.9517 -0.4345
 2266TIP3    H228214   0.865   4.443  14.553 -0.8620  0.1971 -0.4255
 2267TIP3   OH228215   4.993   3.944  17.107 -0.8725  0.1505 -0.0444
 2267TIP3    H128216   5.017   3.861  17.067  0.7468  0.8932 -0.6577
 2267TIP3    H228217   5.048   3.950  17.185 -3.7567 -1.1277  2.2022
 2268TIP3   OH228218   4.176   6.394   5.364  0.0936  0.3199  0.5823
 2268TIP3    H128219   4.170   6.304   5.331 -1.4736 -0.0410  1.7721
 2268TIP3    H228220   4.176   6.448   5.285  1.1485 -0.7226 -0.1504
 2269TIP3   OH228221   1.367   2.614   4.599  0.4102  0.2053  0.1070
 2269TIP3    H128222   1.381   2.538   4.655  0.7439 -0.3584 -0.7271
 2269TIP3    H228223   1.294   2.590   4.542 -0.4127  1.0545  0.7890
 2270TIP3   OH228224   0.935   5.274  12.962 -0.1852  0.0480  0.0034
 2270TIP3    H128225   0.856   5.281  12.908 -0.1941 -0.8661 -0.1172
 2270TIP3    H228226   0.935   5.353  13.016 -2.9240 -1.4709  2.3442
 2271TIP3   OH228227   4.245   6.115   2.959 -0.5742  0.8534  0.0982
 2271TIP3    H128228   4.312   6.048   2.946 -0.4616  1.3072 -1.7966
 2271TIP3    H228229   4.165   6.075   2.926 -0.8466  1.0512  0.5111
 2272TIP3   OH228230   3.401   4.910   2.283  0.0472 -0.5047  0.8861
 2272TIP3    H128231   3.468   4.875   2.341 -0.0881  0.0921  1.4077
 2272TIP3    H228232   3.397   4.848   2.210  0.6514 -0.9246  1.2101
 2273TIP3   OH228233   0.351   0.174   1.625 -0.1561  0.7275 -0.6000
 2273TIP3    H128234   0.260   0.191   1.600  0.4484  2.1109 -1.9061
 2273TIP3    H228235   0.390   0.135   1.547  0.4927  0.5571 -0.1958
 2274TIP3   OH228236   4.701   2.087  14.800 -0.0103 -0.2212  0.1426
 2274TIP3    H128237   4.789   2.079  14.837  0.8508  0.6346 -1.6546
 2274TIP3    H228238   4.667   1.998  14.799  1.0389 -0.6291  0.3743
 2275TIP3   OH228239   2.076   1.943  11.117  0.3072  0.3173 -0.8881
 2275TIP3    H128240   2.036   1.989  11.191  1.0375  0.8158 -0.7868
 2275TIP3    H228241   2.023   1.865  11.105 -0.6954  0.9674 -0.7715
 2276TIP3   OH228242   2.933   4.639  16.008  0.4728 -0.2331 -0.1829
 2276TIP3    H128243   3.018   4.606  16.037  1.5650  0.0170 -2.9186
 2276TIP3    H228244   2.934   4.732  16.030 -1.2041 -1.1606  4.3694
 2277TIP3   OH228245   2.207   1.728   0.241  0.0593 -0.0170  0.7771
 2277TIP3    H128246   2.174   1.811   0.208 -0.6925  0.0143  1.5823
 2277TIP3    H228247   2.212   1.740   0.336  1.7330 -0.2555  0.7396
 2278TIP3   OH228248   2.878   4.352   4.875  0.5346 -0.0121  0.3921
 2278TIP3    H128249   2.792   4.393   4.870  0.1347 -0.8001  0.6631
 2278TIP3    H228250   2.911   4.378   4.961  0.8902  0.9135 -0.0227
 2279TIP3   OH228251   5.227   5.680  16.072  0.3134  0.1269 -0.5962
 2279TIP3    H128252   5.148   5.733  16.075  0.3686  0.1768 -0.0197
 2279TIP3    H228253   5.197   5.593  16.049  0.2925  0.5458 -2.2106
 2280TIP3   OH228254   1.993   5.161   5.706 -0.6530 -0.1353 -0.3871
 2280TIP3    H128255   2.066   5.106   5.736 -0.3063  0.1617 -0.6865
 2280TIP3    H228256   2.024   5.200   5.625 -0.4688  1.3981  0.3984
 2281TIP3   OH228257   6.678   0.978   1.035 -0.3223  0.4794  0.1786
 2281TIP3    H128258   6.701   1.001   1.125 -1.3605 -0.5979  0.7356
 2281TIP3    H228259   6.604   1.034   1.014  0.0807  0.9082 -0.0875
 2282TIP3   OH228260   3.002   0.740   1.412 -0.0840 -0.5260 -0.4135
 2282TIP3    H128261   3.091   0.762   1.442 -0.1402 -1.1631  0.2139
 2282TIP3    H228262   2.944   0.783   1.475 -0.2064 -1.2186 -0.0490
 2283TIP3   OH228263   6.192   1.151   1.728  0.1062 -0.3554  0.8850
 2283TIP3    H128264   6.155   1.063   1.723  1.3954 -1.0303  2.5706
 2283TIP3    H228265   6.280   1.137   1.763 -0.3719  1.7530  3.0586
 2284TIP3   OH228266   0.750   5.468   1.420 -0.4315 -0.5010  0.4910
 2284TIP3    H128267   0.769   5.473   1.513 -0.8950  2.0107  0.5009
 2284TIP3    H228268   0.835   5.481   1.377 -0.4178 -0.3707  0.5580
 2285TIP3   OH228269   4.312   6.662  11.058  0.2621  0.3556  0.2941
 2285TIP3    H128270   4.343   6.592  11.001  0.1740  2.1824 -2.0641
 2285TIP3    H228271   4.341   6.743  11.015 -1.3370  1.8361  1.9288
 2286TIP3   OH228272   5.526   1.248  15.948 -0.5971  0.0593 -0.0696
 2286TIP3    H128273   5.490   1.183  16.009 -0.4884  0.2060  0.1499
 2286TIP3    H228274   5.615   1.264  15.980 -0.0607 -0.8716 -1.0469
 2287TIP3   OH228275   4.079   5.345   5.369 -0.3829  0.4397 -0.5117
 2287TIP3    H128276   4.015   5.414   5.385  0.7570  1.3057  0.4404
 2287TIP3    H228277   4.060   5.313   5.281 -2.3647  0.4070 -0.0864
 2288TIP3   OH228278   5.361   5.702  16.671  0.4311 -0.3659  0.2010
 2288TIP3    H128279   5.313   5.681  16.751  0.9669 -1.4176  0.2506
 2288TIP3    H228280   5.326   5.641  16.605 -0.3069  0.7734 -0.4844
 2289TIP3   OH228281   2.224   0.449  16.217 -0.2544  0.3297  0.6044
 2289TIP3    H128282   2.297   0.470  16.159 -0.6700 -1.0559 -0.4754
 2289TIP3    H228283   2.257   0.465  16.305  1.4468 -0.5376  0.1493
 2290TIP3   OH228284   3.182   2.005   1.023  0.1433  0.0850 -0.8483
 2290TIP3    H128285   3.242   2.071   1.059 -0.0412  1.5994 -3.1821
 2290TIP3    H228286   3.236   1.954   0.963 -0.4231  0.0908 -1.3639
 2291TIP3   OH228287   5.768   5.018   5.430 -0.1763 -0.0483 -0.0341
 2291TIP3    H128288   5.698   5.035   5.493  0.7558  0.0283  0.9844
 2291TIP3    H228289   5.827   4.958   5.474  0.7978  0.4698 -0.6095
 2292TIP3   OH228290   5.125   5.848  12.949 -0.3885 -0.4254  0.3205
 2292TIP3    H128291   5.169   5.787  12.890 -1.5127 -1.2255  0.2970
 2292TIP3    H228292   5.130   5.932  12.904  2.4480 -0.1935  1.0114
 2293TIP3   OH228293   3.892   6.340   5.796  0.3600 -0.0104  0.0950
 2293TIP3    H128294   3.908   6.365   5.705  1.0433 -0.7853 -0.0078
 2293TIP3    H228295   3.854   6.418   5.836 -0.2751  0.2227 -0.9453
 2294TIP3   OH228296   1.114   3.986  14.091  0.0455 -0.0480  0.4534
 2294TIP3    H128297   1.034   4.007  14.138  0.9712  1.1567  1.5326
 2294TIP3    H228298   1.123   4.056  14.026 -0.7561 -1.2152 -0.9455
 2295TIP3   OH228299   2.436   1.121  12.790 -0.6739  0.3434  0.0195
 2295TIP3    H128300   2.350   1.156  12.765 -0.9636 -1.2058 -1.2190
 2295TIP3    H228301   2.422   1.027  12.798  0.2877  0.3726  2.5410
 2296TIP3   OH228302   2.842   5.423   0.369 -0.4575 -0.2119 -0.1080
 2296TIP3    H128303   2.817   5.493   0.430 -1.5653  0.0500 -0.8519
 2296TIP3    H228304   2.839   5.465   0.283 -1.9907 -1.4182 -0.6495
 2297TIP3   OH228305   0.573   2.410   0.240 -0.3285  0.4190 -0.2793
 2297TIP3    H128306   0.572   2.336   0.179 -0.0891  0.3770 -0.2316
 2297TIP3    H228307   0.492   2.458   0.221 -0.4178  0.2183 -0.4004
 2298TIP3   OH228308   6.668   6.267  16.926  0.0512  0.1030  0.2836
 2298TIP3    H128309   6.743   6.222  16.966 -0.0240 -0.8758 -0.6364
 2298TIP3    H228310   6.704   6.306  16.846 -0.7677 -1.8441 -1.0712
 2299TIP3   OH228311   0.537   0.672  14.752 -0.3535  0.2547 -0.3711
 2299TIP3    H128312   0.590   0.595  14.732  0.8858  1.4067 -1.5846
 2299TIP3    H228313   0.514   0.709  14.666  2.6842  3.6757  0.1694
 2300TIP3   OH228314   4.060   4.123   5.241  0.1004 -0.2323  0.3944
 2300TIP3    H128315   4.090   4.199   5.292  0.7452 -0.8807  1.0020
 2300TIP3    H228316   3.981   4.153   5.197  0.9481  1.1293 -0.2253
 2301TIP3   OH228317   0.442   0.415   1.712 -0.2518 -0.2133  0.0765
 2301TIP3    H128318   0.381   0.341   1.711 -0.2454 -0.2021 -0.8887
 2301TIP3    H228319   0.467   0.428   1.621  1.8024 -0.7133  0.5324
 2302TIP3   OH228320   1.841   5.904   0.222  0.1052  0.4542 -0.4935
 2302TIP3    H128321   1.913   5.865   0.271  0.2062  0.7750 -0.3868
 2302TIP3    H228322   1.858   5.880   0.131 -0.2648 -0.4285 -0.3386
 2303TIP3   OH228323   2.796   5.858  16.483 -0.1777 -0.2521 -0.1681
 2303TIP3    H128324   2.824   5.773  16.517 -1.1381 -0.2840  0.5577
 2303TIP3    H228325   2.793   5.846  16.388  3.3200  0.0667 -0.3962
 2304TIP3   OH228326   0.892   6.696   4.781 -0.6203  0.2192 -0.4203
 2304TIP3    H128327   0.913   6.693   4.875 -0.7785 -0.4043 -0.4060
 2304TIP3    H228328   0.821   6.633   4.770  1.5170 -2.0651 -1.5164
 2305TIP3   OH228329   5.803   6.032   2.862 -0.4740 -0.3919 -0.1632
 2305TIP3    H128330   5.836   6.117   2.835 -0.5842  0.4537  2.2242
 2305TIP3    H228331   5.723   6.020   2.812 -1.8450  2.1106  1.3431
 2306TIP3   OH228332   4.770   2.859  15.546 -0.0518 -0.4357 -0.2055
 2306TIP3    H128333   4.735   2.934  15.499 -0.3446  0.0646  0.8030
 2306TIP3    H228334   4.812   2.805  15.478  0.5492  0.8476 -0.8687
 2307TIP3   OH228335   6.044   6.326  16.708  0.1528 -0.0349  0.2857
 2307TIP3    H128336   6.101   6.392  16.669  2.5188 -1.6266  0.9705
 2307TIP3    H228337   6.043   6.254  16.646  0.8762 -1.0118  1.3799
 2308TIP3   OH228338   0.139   3.911  14.329  0.3733  0.1202 -0.4279
 2308TIP3    H128339   0.068   3.850  14.306  0.0948  0.4321 -0.4009
 2308TIP3    H228340   0.218   3.856  14.330  0.1194 -0.2499 -0.3670
 2309TIP3   OH228341   5.371   3.935   4.336 -0.0097 -0.8305  0.4136
 2309TIP3    H128342   5.301   3.872   4.323 -0.2800 -0.3124 -0.6879
 2309TIP3    H228343   5.429   3.893   4.399 -0.5524 -1.8730  0.2380
 2310TIP3   OH228344   1.161   3.687  16.478 -0.0206  0.2660  0.0891
 2310TIP3    H128345   1.118   3.767  16.448  0.0338  0.2196 -0.1093
 2310TIP3    H228346   1.151   3.625  16.405  0.0248  0.1230  0.2046
 2311TIP3   OH228347   5.268   3.198   1.080 -0.0486 -0.4717 -0.0507
 2311TIP3    H128348   5.287   3.215   0.988 -0.3169  0.0520 -0.0123
 2311TIP3    H228349   5.175   3.174   1.082 -0.6235  1.6900  0.3471
 2312TIP3   OH228350   5.691   1.086  16.716 -0.2088  0.0047  0.4602
 2312TIP3    H128351   5.666   1.003  16.756  1.5847 -1.8072 -2.0238
 2312TIP3    H228352   5.786   1.089  16.722 -0.1534  1.2429 -0.6751
 2313TIP3   OH228353   2.377   2.128   5.894  0.4255 -0.5578  0.6119
 2313TIP3    H128354   2.432   2.077   5.953  0.3960  0.6749  1.7261
 2313TIP3    H228355   2.385   2.218   5.925 -0.7957 -0.1036 -0.3317
 2314TIP3   OH228356   1.981   5.105   2.205  0.3798  0.2961 -0.2650
 2314TIP3    H128357   1.898   5.112   2.251  0.8192 -1.5634  0.8458
 2314TIP3    H228358   1.970   5.161   2.127 -1.8123  0.2341 -0.0284
 2315TIP3   OH228359   1.993   5.338   0.049 -0.1267 -0.3693  0.0712
 2315TIP3    H128360   2.086   5.344   0.069  0.2348 -0.6678 -1.4390
 2315TIP3    H228361   1.977   5.244   0.035 -0.5245 -0.2491 -0.2872
 2316TIP3   OH228362   0.794   4.490  12.656 -0.1069 -0.5689 -0.2502
 2316TIP3    H128363   0.821   4.406  12.619  0.6634 -0.0430 -0.9234
 2316TIP3    H228364   0.823   4.555  12.591  0.6944  0.3272  0.9682
 2317TIP3   OH228365   3.705   4.659  15.882 -0.0148  0.3764 -0.0052
 2317TIP3    H128366   3.621   4.649  15.927 -0.7791 -0.6048 -1.6510
 2317TIP3    H228367   3.709   4.753  15.862 -0.7522  0.4178  0.0079
 2318TIP3   OH228368   4.969   3.921   0.274  0.9047 -0.1133  0.0625
 2318TIP3    H128369   4.895   3.869   0.243  0.5564  1.3353 -1.5844
 2318TIP3    H228370   5.027   3.857   0.316  0.4048 -1.8016 -1.7727
 2319TIP3   OH228371   1.251   0.909  17.197 -0.2413 -0.0475  0.1605
 2319TIP3    H128372   1.230   1.002  17.184  1.2692  0.2683 -0.0801
 2319TIP3    H228373   1.259   0.900  17.292  0.7279  0.3211  0.1157
 2320TIP3   OH228374   2.714   6.289  12.243  0.2202  0.7671  0.3049
 2320TIP3    H128375   2.716   6.339  12.162 -0.9981  1.5491  0.7519
 2320TIP3    H228376   2.662   6.342  12.304  1.0422  0.1567  1.5738
 2321TIP3   OH228377   4.199   6.392   3.066 -0.5214  0.7352 -0.5310
 2321TIP3    H128378   4.205   6.303   3.031  0.7278  1.1151 -1.3167
 2321TIP3    H228379   4.218   6.383   3.159  0.5650  0.2988 -0.7908
 2322TIP3   OH228380   5.965   3.493  13.312  0.3994 -0.0238 -0.1661
 2322TIP3    H128381   5.896   3.517  13.250  0.9562  1.6724 -0.1390
 2322TIP3    H228382   5.919   3.446  13.382 -0.6704  0.8216 -0.2961
 2323TIP3   OH228383   5.763   6.313   1.320  0.3777  0.6536  0.0739
 2323TIP3    H128384   5.844   6.315   1.371 -0.8062  2.5949  1.9639
 2323TIP3    H228385   5.743   6.219   1.311  3.1662  0.1194 -1.0445
 2324TIP3   OH228386   2.362   0.638   3.154  0.3976  0.1600  0.1710
 2324TIP3    H128387   2.371   0.621   3.247  1.6008  0.3989  0.1076
 2324TIP3    H228388   2.326   0.727   3.149  0.6571  0.2764  0.4000
 2325TIP3   OH228389   4.268   2.236  13.671 -0.1715  0.0354 -0.1416
 2325TIP3    H128390   4.246   2.215  13.762 -2.0528 -1.6375 -0.9268
 2325TIP3    H228391   4.328   2.310  13.677 -0.3659  0.0340  2.4597
 2326TIP3   OH228392   5.015   5.652   4.819  1.1153 -0.2988 -0.4935
 2326TIP3    H128393   4.937   5.610   4.782 -0.2865  0.6296  1.2949
 2326TIP3    H228394   5.035   5.723   4.757  0.0222 -0.0199 -0.5484
 2327TIP3   OH228395   3.046   4.407  11.628  0.3603 -0.0267  0.5992
 2327TIP3    H128396   3.063   4.314  11.639  0.6420 -0.2241 -1.2951
 2327TIP3    H228397   2.951   4.417  11.642  0.1800 -0.7392 -0.1419
 2328TIP3   OH228398   4.791   5.549  13.415  0.2309  0.8464 -0.1059
 2328TIP3    H128399   4.769   5.627  13.466 -1.3733  0.7529 -0.6455
 2328TIP3    H228400   4.841   5.494  13.476 -0.7487  1.2150  1.0539
 2329TIP3   OH228401   1.415   1.633  14.824  0.1770  0.1361  0.3456
 2329TIP3    H128402   1.376   1.606  14.907 -1.3226 -2.4190 -1.1397
 2329TIP3    H228403   1.509   1.629  14.840 -0.0810 -0.9391  1.7263
 2330TIP3   OH228404   4.403   1.444  17.106 -0.1410 -0.3740  0.1519
 2330TIP3    H128405   4.368   1.479  17.188  1.6349 -1.4957  1.4415
 2330TIP3    H228406   4.422   1.521  17.053  0.5467  0.4728  1.6044
 2331TIP3   OH228407   4.824   0.006  14.549  0.3983  0.4448  0.1485
 2331TIP3    H128408   4.807   0.072  14.482  0.5991 -0.9622 -1.3070
 2331TIP3    H228409   4.782   0.041  14.628 -0.0302  2.0135 -0.7473
 2332TIP3   OH228410   0.290   5.434  11.425  1.0643 -0.4187 -0.2130
 2332TIP3    H128411   0.357   5.485  11.470  1.1697  0.6062 -1.5163
 2332TIP3    H228412   0.246   5.497  11.368 -0.3906 -1.2760 -0.0749
 2333TIP3   OH228413   1.415   0.959   1.486  0.6642  0.2406 -0.3747
 2333TIP3    H128414   1.397   0.964   1.392 -0.3791 -1.2326 -0.2731
 2333TIP3    H228415   1.332   0.985   1.527  0.5691 -0.8544  0.1286
 2334TIP3   OH228416   6.428   5.190   5.836 -0.1650  0.7805 -0.0530
 2334TIP3    H128417   6.409   5.163   5.746  3.1592  0.7659 -0.8105
 2334TIP3    H228418   6.377   5.130   5.890  1.3094 -2.2426 -1.8555
 2335TIP3   OH228419   4.380   2.683   0.947 -0.1933  0.5875  0.3842
 2335TIP3    H128420   4.424   2.646   1.023 -1.8074  0.0475  1.0951
 2335TIP3    H228421   4.436   2.661   0.873  0.3427 -0.7272  1.1627
 2336TIP3   OH228422   5.538   2.594   4.796  0.1159 -0.0952  0.1619
 2336TIP3    H128423   5.489   2.577   4.716 -2.1720 -0.0141  1.5210
 2336TIP3    H228424   5.500   2.535   4.861  0.6348  1.2180  1.6886
 2337TIP3   OH228425   2.819   3.343  12.147 -0.0117  0.1510 -0.3777
 2337TIP3    H128426   2.766   3.307  12.218  1.7602 -1.0372  0.3693
 2337TIP3    H228427   2.801   3.287  12.072 -0.1727  0.0390 -0.2558
 2338TIP3   OH228428   6.761   5.974  11.078 -0.2820  0.0245 -0.2861
 2338TIP3    H128429   6.671   5.946  11.061 -0.8662  1.2271  0.7132
 2338TIP3    H228430   6.774   6.050  11.021 -0.1866  0.3710  0.1964
 2339TIP3   OH228431   0.796   4.463  15.915  0.1576  0.4666 -0.2516
 2339TIP3    H128432   0.704   4.463  15.890 -0.1903 -0.3100  0.9722
 2339TIP3    H228433   0.821   4.555  15.912 -0.7178  0.7095 -0.3853
 2340TIP3   OH228434   4.002   4.252   6.428 -0.2212  0.3837  0.0707
 2340TIP3    H128435   4.062   4.315   6.388 -0.4440 -0.7297 -2.0776
 2340TIP3    H228436   4.040   4.166   6.406 -1.6542 -0.2941  0.2175
 2341TIP3   OH228437   6.704   3.872   3.349  0.5543 -0.2448  0.3006
 2341TIP3    H128438   6.743   3.951   3.311 -1.1755  0.3051 -0.4060
 2341TIP3    H228439   6.773   3.806   3.344  0.8608  0.2265 -2.4775
 2342TIP3   OH228440   2.360   3.414   5.455 -0.2606  0.3329 -0.0204
 2342TIP3    H128441   2.425   3.380   5.516  1.7596  0.8497 -1.8408
 2342TIP3    H228442   2.375   3.509   5.455 -1.1254  0.4789 -0.3769
 2343TIP3   OH228443   2.288   1.018   1.786 -0.1610 -0.3432  0.7023
 2343TIP3    H128444   2.349   1.089   1.806 -1.1471  0.7914 -0.1858
 2343TIP3    H228445   2.210   1.037   1.840 -0.3623 -0.8496  0.5944
 2344TIP3   OH228446   1.821   2.618  13.584 -0.4773 -0.2637  0.1361
 2344TIP3    H128447   1.783   2.583  13.503  0.6729 -1.4125  0.0744
 2344TIP3    H228448   1.783   2.564  13.653 -2.6510  1.7031  0.5445
 2345TIP3   OH228449   1.743   0.141   5.334  0.4689 -0.3905  0.4378
 2345TIP3    H128450   1.651   0.120   5.351  0.5185  0.6513  2.0245
 2345TIP3    H228451   1.790   0.111   5.412  1.3240  0.1756  0.1441
 2346TIP3   OH228452   0.174   0.517   4.324 -0.0651 -0.3499 -0.4805
 2346TIP3    H128453   0.099   0.487   4.273  0.0025  0.8770 -1.3059
 2346TIP3    H228454   0.250   0.500   4.268  0.0561  0.5576 -0.5880
 2347TIP3   OH228455   4.669   0.981  16.429  0.0675 -0.0185 -0.5346
 2347TIP3    H128456   4.598   0.916  16.423 -0.1207 -0.1204  2.3342
 2347TIP3    H228457   4.624   1.065  16.427  0.0252 -0.0398 -0.4731
 2348TIP3   OH228458   5.903   4.971  13.558  0.3816 -0.2252  0.6209
 2348TIP3    H128459   5.949   4.982  13.641  1.3704  0.7647 -0.0363
 2348TIP3    H228460   5.857   5.054  13.545  0.0561 -0.4586  0.2881
 2349TIP3   OH228461   3.035   4.199   0.911  0.3503 -0.5353 -0.0247
 2349TIP3    H128462   3.074   4.283   0.887 -0.1254 -0.2185  0.2906
 2349TIP3    H228463   3.054   4.191   1.005 -0.5650 -0.2548  0.1885
 2350TIP3   OH228464   4.689   1.883   5.428  0.6041 -0.1971  0.0808
 2350TIP3    H128465   4.599   1.850   5.429  0.9818 -1.2339  0.8683
 2350TIP3    H228466   4.728   1.844   5.349  0.3597  0.2913 -0.2868
 2351TIP3   OH228467   2.894   3.347   2.014  0.1586 -0.5038 -0.3141
 2351TIP3    H128468   2.959   3.389   2.071  1.2686 -2.2090 -0.3119
 2351TIP3    H228469   2.816   3.339   2.069  0.7144 -0.6667  0.4611
 2352TIP3   OH228470   3.756   6.188   3.579 -0.1067  0.5942  0.0110
 2352TIP3    H128471   3.728   6.240   3.503  0.1889 -0.1878 -0.6366
 2352TIP3    H228472   3.695   6.115   3.581 -0.1553  0.6520  0.5749
 2353TIP3   OH228473   3.295   6.366  17.229 -0.4349 -0.6973  0.3971
 2353TIP3    H128474   3.350   6.322  17.293 -0.3016 -0.5082  0.4151
 2353TIP3    H228475   3.305   6.459  17.249  0.2882 -0.5883 -0.4458
 2354TIP3   OH228476   1.911   1.587  13.981  0.3661 -0.5421 -0.3337
 2354TIP3    H128477   1.877   1.615  14.067 -1.1882  0.2832 -1.1948
 2354TIP3    H228478   1.851   1.517  13.954 -0.6727  0.8802 -1.8418
 2355TIP3   OH228479   2.647   0.375  12.319  0.1439 -0.4036 -0.4220
 2355TIP3    H128480   2.693   0.364  12.403  0.4729 -0.2697 -0.5858
 2355TIP3    H228481   2.595   0.454  12.332 -1.2547 -1.4154  0.3125
 2356TIP3   OH228482   6.364   1.248  11.583  0.3002  0.0377  0.1854
 2356TIP3    H128483   6.359   1.323  11.524 -3.4268 -1.0105 -1.0044
 2356TIP3    H228484   6.377   1.172  11.525  1.2128 -0.5393  1.1268
 2357TIP3   OH228485   3.035   3.103  13.915 -0.0591  0.3366 -0.7984
 2357TIP3    H128486   3.053   3.136  13.827  0.2702  1.8791 -0.1802
 2357TIP3    H228487   3.109   3.134  13.967  0.3701 -1.6064 -0.2177
 2358TIP3   OH228488   6.030   0.455   0.984  0.8515  0.4020 -0.4732
 2358TIP3    H128489   6.119   0.420   0.990  0.1749 -1.2114  0.7056
 2358TIP3    H228490   5.997   0.424   0.900  0.1502 -2.1919  0.6911
 2359TIP3   OH228491   2.391   3.116  14.626 -0.6840 -0.4681 -0.3900
 2359TIP3    H128492   2.439   3.042  14.664 -3.2624 -1.8663  0.2999
 2359TIP3    H228493   2.309   3.119  14.676 -0.6878  2.7961 -0.5299
 2360TIP3   OH228494   5.219   1.773   0.505  0.1346  0.1855  0.2976
 2360TIP3    H128495   5.128   1.757   0.528 -0.2564  1.9379  0.0525
 2360TIP3    H228496   5.215   1.835   0.432  1.4717 -1.4826 -1.2544
 2361TIP3   OH228497   4.727   6.051   4.345 -0.6837  0.3928 -0.0769
 2361TIP3    H128498   4.702   6.034   4.436  0.5257  3.1409  0.8182
 2361TIP3    H228499   4.649   6.089   4.306 -0.2120  2.2394  0.7340
 2362TIP3   OH228500   5.533   6.041  16.222 -0.7390  0.0117  0.4087
 2362TIP3    H128501   5.466   6.088  16.271  1.6105  2.9835  0.8737
 2362TIP3    H228502   5.584   5.995  16.289 -1.1788 -0.7536  0.2185
 2363TIP3   OH228503   0.854   0.738   2.525 -0.2997 -0.5548  0.0242
 2363TIP3    H128504   0.874   0.820   2.480 -1.8300 -0.3296 -0.2551
 2363TIP3    H228505   0.870   0.670   2.460 -2.4727 -0.2320 -0.8961
 2364TIP3   OH228506   0.296   4.538   3.827 -0.2155  0.5748 -0.0683
 2364TIP3    H128507   0.302   4.495   3.912  0.8657 -0.3914 -0.6173
 2364TIP3    H228508   0.331   4.626   3.843  0.1045  0.3561  0.4512
 2365TIP3   OH228509   2.622   2.590  12.293  0.4166 -0.2845  1.0419
 2365TIP3    H128510   2.566   2.515  12.316 -1.2418  0.6673  0.2048
 2365TIP3    H228511   2.617   2.648  12.369 -0.0974  0.0041  0.7890
 2366TIP3   OH228512   3.014   5.727  15.898 -0.2553  0.7097 -0.6771
 2366TIP3    H128513   3.091   5.738  15.842 -0.5968 -1.2442 -1.5631
 2366TIP3    H228514   2.992   5.816  15.925 -0.7870  1.9021 -4.6205
 2367TIP3   OH228515   5.289   5.492   2.812  0.8987 -0.3094 -0.0541
 2367TIP3    H128516   5.268   5.415   2.864  0.5981 -0.9360 -1.0889
 2367TIP3    H228517   5.315   5.558   2.876 -0.1499 -0.8456  0.9300
 2368TIP3   OH228518   6.622   1.091   6.137  0.6258 -0.1386 -0.4444
 2368TIP3    H128519   6.568   1.117   6.063 -0.1147 -0.9848 -0.2247
 2368TIP3    H228520   6.561   1.044   6.195  1.0028  1.2513  1.0940
 2369TIP3   OH228521   5.642   4.115  12.009  0.0096 -0.1232 -0.3112
 2369TIP3    H128522   5.666   4.092  11.919 -2.0824 -3.2886 -0.1366
 2369TIP3    H228523   5.581   4.188  11.999 -1.2474 -1.3034 -1.5984
 2370TIP3   OH228524   0.627   4.492  15.600 -0.5289 -0.1350  0.2787
 2370TIP3    H128525   0.602   4.579  15.631  0.1337  0.2614 -0.2975
 2370TIP3    H228526   0.607   4.492  15.507  0.7356 -0.1268 -0.0087
 2371TIP3   OH228527   4.098   1.134  13.546 -0.3870 -0.3620 -0.3476
 2371TIP3    H128528   4.090   1.213  13.492 -0.8318 -0.0450  0.1779
 2371TIP3    H228529   4.188   1.138  13.579 -0.3729 -0.1288 -0.4109
 2372TIP3   OH228530   4.100   0.819  12.928 -0.2281 -0.2455  0.0503
 2372TIP3    H128531   4.116   0.761  12.854 -1.0110  1.5786 -1.5659
 2372TIP3    H228532   4.162   0.891  12.916  0.0860 -0.2491  1.5317
 2373TIP3   OH228533   0.429   1.676   6.879 -0.1487 -0.0405 -0.4819
 2373TIP3    H128534   0.486   1.732   6.826  0.9353  0.2812  0.9974
 2373TIP3    H228535   0.469   1.589   6.874 -2.6269 -1.0953 -3.9653
 2374TIP3   OH228536   2.952   0.561   0.571 -0.4081  0.2973 -0.0470
 2374TIP3    H128537   2.962   0.466   0.557 -0.5537  0.2026  0.4739
 2374TIP3    H228538   3.031   0.585   0.619 -0.6886  0.3179  0.4055
 2375TIP3   OH228539   2.020   6.715   1.595  0.0411 -0.3099 -0.7359
 2375TIP3    H128540   2.056   6.653   1.659  2.0315  0.2920 -1.2518
 2375TIP3    H228541   1.999   6.662   1.519  0.2646 -0.5918 -0.6025
 2376TIP3   OH228542   3.616   6.320  15.193 -0.5403 -0.2923 -0.2278
 2376TIP3    H128543   3.609   6.260  15.268 -0.4444  0.6247  0.5225
 2376TIP3    H228544   3.707   6.311  15.164 -0.3080  0.0851  0.3833
 2377TIP3   OH228545   2.435   0.995  16.746 -0.4827 -0.2378  0.0389
 2377TIP3    H128546   2.414   1.041  16.664 -2.4624 -2.6722 -0.9169
 2377TIP3    H228547   2.450   1.064  16.809 -0.2857  1.7206 -2.0748
 2378TIP3   OH228548   5.774   5.077  12.789  0.1288  0.2194  0.1471
 2378TIP3    H128549   5.787   5.035  12.704  2.8140 -0.1773  0.7265
 2378TIP3    H228550   5.726   5.013  12.841 -0.7535  0.1239 -0.7593
 2379TIP3   OH228551   2.455   1.910   0.678  0.2590  0.5071 -0.3371
 2379TIP3    H128552   2.530   1.969   0.681  0.1812  0.5667  1.1222
 2379TIP3    H228553   2.416   1.917   0.765 -1.2863  0.2775 -0.9940
 2380TIP3   OH228554   5.709   4.780   2.078 -0.8922 -0.3263  0.3426
 2380TIP3    H128555   5.722   4.865   2.035 -0.0335  0.2806  1.7638
 2380TIP3    H228556   5.646   4.734   2.022 -0.0476  0.5667 -1.3790
 2381TIP3   OH228557   5.489   4.293  14.526  0.7156  0.4742 -0.4968
 2381TIP3    H128558   5.557   4.226  14.524 -0.5970 -1.0429  2.4534
 2381TIP3    H228559   5.495   4.331  14.613 -1.7851  0.7339 -0.3993
 2382TIP3   OH228560   2.986   3.919   2.320  0.0474  0.0026  0.9321
 2382TIP3    H128561   2.897   3.948   2.300 -0.1100 -1.0662  0.0657
 2382TIP3    H228562   2.974   3.850   2.386  0.4096  1.6968  2.8411
 2383TIP3   OH228563   2.509   2.311  15.626 -0.1044  0.5778 -0.4209
 2383TIP3    H128564   2.424   2.287  15.590 -0.0912 -0.7694  0.4062
 2383TIP3    H228565   2.570   2.246  15.590  0.0523 -0.2642  1.3206
 2384TIP3   OH228566   1.967   1.415   3.781  0.1023 -0.0452  0.0856
 2384TIP3    H128567   1.899   1.385   3.721 -0.5218 -2.0576  1.7142
 2384TIP3    H228568   2.041   1.356   3.765  0.7394  0.8501 -0.2742
 2385TIP3   OH228569   4.856   3.435  17.027 -0.1705  0.2767 -0.0816
 2385TIP3    H128570   4.924   3.466  17.087  0.9874  0.0483 -1.2736
 2385TIP3    H228571   4.864   3.492  16.950 -1.3092  0.2298 -0.2447
 2386TIP3   OH228572   2.688   3.173  14.525 -0.2829 -0.6825 -0.0390
 2386TIP3    H128573   2.597   3.197  14.541  0.5112  1.7337  1.0500
 2386TIP3    H228574   2.724   3.153  14.612  0.2395 -1.6693 -0.4634
 2387TIP3   OH228575   1.097   5.156   2.099 -0.1731  0.0530 -0.1839
 2387TIP3    H128576   1.062   5.090   2.159 -0.6732 -1.0333 -1.6476
 2387TIP3    H228577   1.126   5.227   2.157 -2.1859 -0.2293  1.2566
 2388TIP3   OH228578   5.841   1.395   5.916 -0.0234  0.6142 -0.8746
 2388TIP3    H128579   5.803   1.374   5.830 -0.4309 -1.8978 -0.1411
 2388TIP3    H228580   5.776   1.450   5.958 -1.3934 -0.9231 -0.9165
 2389TIP3   OH228581   3.343   1.233  16.943  0.4165  0.0112  0.5796
 2389TIP3    H128582   3.288   1.155  16.941 -0.8873  0.9493 -1.7207
 2389TIP3    H228583   3.342   1.260  17.035  0.0446 -2.0716  1.2222
 2390TIP3   OH228584   3.127   0.629  11.244  0.2851 -0.4608 -0.3081
 2390TIP3    H128585   3.180   0.679  11.307 -0.1976 -0.1272 -0.1659
 2390TIP3    H228586   3.186   0.561  11.212  0.0995 -1.5787  1.6205
 2391TIP3   OH228587   4.918   1.644   3.432  0.0949  0.3249  0.6660
 2391TIP3    H128588   4.919   1.738   3.450  0.6238  0.2170  1.2241
 2391TIP3    H228589   5.007   1.615   3.453 -0.4845 -0.5724  1.8905
 2392TIP3   OH228590   0.218   3.498  13.757 -0.0756  0.9138 -0.0866
 2392TIP3    H128591   0.217   3.516  13.663 -2.2879  0.4412 -0.1699
 2392TIP3    H228592   0.168   3.417  13.766 -0.5316  1.3783  1.5930
 2393TIP3   OH228593   2.768   2.182   5.361  0.1912  0.3824 -0.7715
 2393TIP3    H128594   2.774   2.208   5.453  0.6017  0.5723 -0.8495
 2393TIP3    H228595   2.684   2.137   5.354  0.8616 -1.0720  0.0751
 2394TIP3   OH228596   3.683   0.011   1.267 -0.4667  0.4489  0.3546
 2394TIP3    H128597   3.742   0.085   1.262  1.5810 -0.9636  2.6700
 2394TIP3    H228598   3.731  -0.061   1.225 -0.5245 -0.6886  2.1854
 2395TIP3   OH228599   6.613   3.417  13.160 -0.3199  0.1887 -0.4394
 2395TIP3    H128600   6.670   3.404  13.236 -1.3631 -0.4466  0.2372
 2395TIP3    H228601   6.549   3.481  13.189 -1.0292 -0.4400 -0.6198
 2396TIP3   OH228602   6.424   5.759  13.800 -0.3942 -0.3965  0.4373
 2396TIP3    H128603   6.430   5.743  13.706  1.4315 -0.8118  0.6115
 2396TIP3    H228604   6.334   5.789  13.814  0.6943  4.5741 -2.2138
 2397TIP3   OH228605   2.347   5.924   4.966  0.3930  0.2220 -0.4059
 2397TIP3    H128606   2.268   5.909   5.017 -0.0745 -1.3203 -1.5271
 2397TIP3    H228607   2.418   5.922   5.030 -0.2905 -0.3970  0.3404
 2398TIP3   OH228608   3.468   4.039  17.164 -0.1548  0.2330  0.1611
 2398TIP3    H128609   3.539   4.005  17.109 -0.1182 -1.7311  1.3738
 2398TIP3    H228610   3.513   4.071  17.243 -0.5453 -0.3177  0.6064
 2399TIP3   OH228611   5.365   5.376  17.102 -0.5535 -0.7654  0.7708
 2399TIP3    H128612   5.433   5.395  17.167 -0.9677 -0.3998  1.1002
 2399TIP3    H228613   5.407   5.393  17.018  0.0872 -1.5610  0.9227
 2400TIP3   OH228614   4.475   5.950  14.117 -0.0177  0.2811 -0.4779
 2400TIP3    H128615   4.450   5.930  14.027 -1.2621 -3.0236  0.5072
 2400TIP3    H228616   4.392   5.948  14.166  0.6080  2.2355  0.7405
 2401TIP3   OH228617   0.104   5.543  12.337 -0.0713 -0.1764 -0.2475
 2401TIP3    H128618   0.092   5.521  12.429  0.1151  0.4842 -0.0640
 2401TIP3    H228619   0.193   5.578  12.332 -0.0818 -0.2084 -0.6754
 2402TIP3   OH228620   1.401   6.256   1.120  0.3025  0.3525 -0.3265
 2402TIP3    H128621   1.465   6.287   1.183  0.3420 -0.0753 -0.1565
 2402TIP3    H228622   1.356   6.335   1.090  1.7952  0.8085 -1.4114
 2403TIP3   OH228623   4.960   4.876   0.230  0.2201  0.2126 -0.8735
 2403TIP3    H128624   4.988   4.963   0.257  0.0982 -0.2482  0.7822
 2403TIP3    H228625   4.939   4.831   0.312 -0.1606 -1.2186 -1.7416
 2404TIP3   OH228626   5.381   6.256   6.074 -0.0772 -0.2122 -0.1066
 2404TIP3    H128627   5.428   6.291   5.999 -0.5066  0.3130 -0.1363
 2404TIP3    H228628   5.435   6.280   6.149  0.5245 -1.0346 -0.2764
 2405TIP3   OH228629   0.782   3.418  15.902 -0.1065 -0.8427 -0.4780
 2405TIP3    H128630   0.750   3.411  15.992  0.4632 -2.6568 -0.3953
 2405TIP3    H228631   0.872   3.452  15.911  0.0810 -1.3759 -0.3371
 2406TIP3   OH228632   1.983   3.652  13.649  0.1100 -0.2134 -0.5666
 2406TIP3    H128633   2.041   3.587  13.690  1.5325  0.8245 -0.9111
 2406TIP3    H228634   2.029   3.735  13.658 -1.9554  0.8733  0.3650
 2407TIP3   OH228635   5.760   5.481  16.527 -0.2755 -0.2515  0.2520
 2407TIP3    H128636   5.813   5.402  16.539 -2.3141 -1.4730  1.7358
 2407TIP3    H228637   5.695   5.456  16.461  0.0387  0.7086 -0.4207
 2408TIP3   OH228638   5.533   5.270  14.621 -0.3404  0.1308 -0.6279
 2408TIP3    H128639   5.456   5.222  14.651  0.7322 -0.4616  1.2320
 2408TIP3    H228640   5.602   5.244  14.681  1.4456  0.2933 -2.5507
 2409TIP3   OH228641   1.727   1.040   1.392 -0.1331 -0.2612  0.0708
 2409TIP3    H128642   1.654   0.991   1.354  0.2024 -0.0722 -0.8255
 2409TIP3    H228643   1.690   1.126   1.412 -0.4708 -0.5610  0.7506
 2410TIP3   OH228644   1.465   3.466   3.802 -0.0889  0.9343 -0.2712
 2410TIP3    H128645   1.512   3.466   3.886  1.1520  1.8294 -0.9474
 2410TIP3    H228646   1.407   3.542   3.808 -1.6825 -0.3218  0.6685
 2411TIP3   OH228647   6.102   2.817   1.948  0.1597  0.3923 -0.6890
 2411TIP3    H128648   6.171   2.767   1.992 -0.6553 -1.2128 -1.2080
 2411TIP3    H228649   6.086   2.892   2.006  0.8760 -0.3252  0.4519
 2412TIP3   OH228650   2.738   3.176  10.297 -0.3104 -0.1439  0.1250
 2412TIP3    H128651   2.713   3.168  10.205  0.5133 -0.9634 -0.0344
 2412TIP3    H228652   2.701   3.099  10.339 -0.5185  0.1276  0.4453
 2413TIP3   OH228653   5.066   1.948   3.253  0.2618  0.0382  0.5277
 2413TIP3    H128654   5.113   1.867   3.232  0.5824  0.6907 -1.3312
 2413TIP3    H228655   5.034   1.979   3.169  1.8413  2.8784  0.9223
 2414TIP3   OH228656   1.497   4.679  16.747  0.1237  0.3619  0.6381
 2414TIP3    H128657   1.449   4.630  16.680 -0.4015  0.6204  0.8228
 2414TIP3    H228658   1.459   4.649  16.830 -0.3273  1.2115  0.7439
 2415TIP3   OH228659   1.864   5.413   2.266 -0.1836  0.0232 -0.3024
 2415TIP3    H128660   1.788   5.357   2.253  0.9889 -1.4888 -0.8106
 2415TIP3    H228661   1.923   5.391   2.194  0.8941  0.8962  0.2943
 2416TIP3   OH228662   3.874   5.101   4.236 -0.4086  0.5753 -0.3219
 2416TIP3    H128663   3.780   5.115   4.232 -0.4882  0.5238  0.9987
 2416TIP3    H228664   3.884   5.007   4.249 -0.2545  0.8136  1.3982
 2417TIP3   OH228665   0.494   3.197   1.014 -0.5907 -0.2373  0.3479
 2417TIP3    H128666   0.484   3.292   1.013 -1.2785 -0.2267  3.2327
 2417TIP3    H228667   0.411   3.164   0.978 -0.3468  0.2380 -0.6699
 2418TIP3   OH228668   4.481   0.847  12.336 -0.1112  0.3851  0.3122
 2418TIP3    H128669   4.468   0.800  12.253  0.1955 -0.3840  0.6898
 2418TIP3    H228670   4.427   0.926  12.327 -1.6646 -0.6547  0.1640
 2419TIP3   OH228671   0.184   2.538  14.670  0.2536 -0.2665  0.0305
 2419TIP3    H128672   0.179   2.630  14.642  1.6647 -0.3037 -0.3680
 2419TIP3    H228673   0.108   2.497  14.628 -1.0702  0.9480  1.1691
 2420TIP3   OH228674   5.081   5.432  15.929 -0.7985 -0.3432  0.3138
 2420TIP3    H128675   5.103   5.353  15.880  3.2620  0.8298  0.0821
 2420TIP3    H228676   5.064   5.498  15.862 -3.2362 -0.6932  0.5212
 2421TIP3   OH228677   3.167   4.450  15.167  0.5116  0.3197  0.5936
 2421TIP3    H128678   3.107   4.395  15.118  0.7372  0.4725  0.1414
 2421TIP3    H228679   3.227   4.485  15.101  0.0468  1.5233  0.8017
 2422TIP3   OH228680   3.378   0.887  17.135  0.2545  0.3200  0.0137
 2422TIP3    H128681   3.458   0.938  17.144 -0.1359  1.0708 -0.6984
 2422TIP3    H228682   3.313   0.949  17.101 -0.2133 -0.6409 -0.9039
 2423TIP3   OH228683   1.202   4.608   5.297  0.3916 -0.4008  0.2103
 2423TIP3    H128684   1.167   4.633   5.383  0.3537 -3.0195  1.0195
 2423TIP3    H228685   1.158   4.665   5.235  1.1785  2.2517  2.0087
 2424TIP3   OH228686   5.319   1.854  12.571  0.2822  0.0933  0.2369
 2424TIP3    H128687   5.356   1.780  12.619  0.8551  0.4266  0.3137
 2424TIP3    H228688   5.336   1.930  12.626 -0.1768  0.3018  0.0943
 2425TIP3   OH228689   2.470   1.782   5.758  0.1192 -0.2980  0.5728
 2425TIP3    H128690   2.517   1.834   5.824 -0.5774 -1.3620  1.9467
 2425TIP3    H228691   2.424   1.715   5.809  0.2919 -1.7136 -1.0844
 2426TIP3   OH228692   1.188   3.950   4.569 -0.2556  0.0039  0.1838
 2426TIP3    H128693   1.265   3.929   4.623 -0.2297 -0.6807 -0.1152
 2426TIP3    H228694   1.189   4.046   4.563  1.2302 -0.0547 -0.7729
 2427TIP3   OH228695   3.629   1.332  14.600 -0.9551  0.4438 -0.0958
 2427TIP3    H128696   3.663   1.307  14.686 -2.5938 -1.4083  0.0570
 2427TIP3    H228697   3.706   1.360  14.551  0.0884  0.8970  1.7642
 2428TIP3   OH228698   3.074   3.880   2.068  0.6376  0.3365  0.1031
 2428TIP3    H128699   3.052   3.890   2.161  1.4534  1.0980  0.2220
 2428TIP3    H228700   2.998   3.916   2.022  0.6360  0.8376  0.4881
 2429TIP3   OH228701   0.843   5.533   3.711 -0.2542  0.6425  0.1104
 2429TIP3    H128702   0.900   5.608   3.694 -0.6544  0.7468 -0.7725
 2429TIP3    H228703   0.847   5.522   3.806 -0.6449  2.1508  0.3285
 2430TIP3   OH228704   3.055   5.002   4.463  0.2473  0.2308 -0.2507
 2430TIP3    H128705   3.005   4.922   4.478  0.1045  0.7235  2.1047
 2430TIP3    H228706   3.041   5.022   4.371 -1.9649 -0.9513 -0.2053
 2431TIP3   OH228707   2.225   3.363   2.419  0.4055  0.1091  0.3215
 2431TIP3    H128708   2.310   3.402   2.438  0.0143  0.7551  0.7396
 2431TIP3    H228709   2.167   3.393   2.489 -0.4806  0.7037 -0.6377
 2432TIP3   OH228710   1.361   1.973   3.305 -0.5044  0.2610 -0.4722
 2432TIP3    H128711   1.394   2.063   3.296 -0.1602  0.0972 -0.8082
 2432TIP3    H228712   1.389   1.946   3.392  1.0380 -0.2072 -1.1101
 2433TIP3   OH228713   2.644   1.894   3.653  0.1866  0.2703 -0.5159
 2433TIP3    H128714   2.657   1.938   3.737 -2.2852  0.8472 -0.3854
 2433TIP3    H228715   2.568   1.938   3.615  0.8276 -0.4807 -2.7372
 2434TIP3   OH228716   5.842   1.079  12.973 -0.3559  0.4802  0.3443
 2434TIP3    H128717   5.904   1.094  12.901 -0.8337 -0.5165 -0.2787
 2434TIP3    H228718   5.879   1.005  13.021 -1.4953 -0.6711 -0.5305
 2435TIP3   OH228719   6.553   4.742  14.088 -0.1857  0.5462 -0.5379
 2435TIP3    H128720   6.590   4.753  14.175 -0.2553  2.2108 -0.6995
 2435TIP3    H228721   6.623   4.767  14.028  0.6389 -2.7993 -1.0630
 2436TIP3   OH228722   5.255   6.550   5.004 -0.1478 -0.0037  0.6604
 2436TIP3    H128723   5.274   6.462   5.036  2.4776  0.3217  0.1267
 2436TIP3    H228724   5.200   6.537   4.927 -1.5232 -1.0655  1.8134
 2437TIP3   OH228725   1.251   2.241   1.374 -0.1605 -0.3269  0.6792
 2437TIP3    H128726   1.244   2.276   1.463  5.2234  0.4447  0.9630
 2437TIP3    H228727   1.342   2.210   1.367 -1.0749 -2.4605 -3.8416
 2438TIP3   OH228728   4.425   2.146  11.223 -0.0567 -0.1510  0.4195
 2438TIP3    H128729   4.444   2.113  11.311 -0.0542  0.7989  0.7832
 2438TIP3    H228730   4.422   2.241  11.234 -1.6407 -0.1084 -0.2938
 2439TIP3   OH228731   3.942   6.363  12.656 -0.2545  0.0711 -0.2087
 2439TIP3    H128732   4.020   6.390  12.705 -0.6887  0.2462  0.3858
 2439TIP3    H228733   3.968   6.280  12.615  0.5120  0.5267 -0.6651
 2440TIP3   OH228734   0.109   3.819  11.732  0.5884  0.6281 -0.1279
 2440TIP3    H128735   0.063   3.896  11.698 -0.5250  0.7412  1.5900
 2440TIP3    H228736   0.040   3.761  11.763  1.5608  0.6388  2.1523
 2441TIP3   OH228737   3.263   1.917  17.202  0.3610  0.4157 -0.5370
 2441TIP3    H128738   3.255   1.886  17.293  2.2333 -1.6566 -1.0570
 2441TIP3    H228739   3.347   1.961  17.199  0.2272  0.6213 -1.2448
 2442TIP3   OH228740   3.924   1.329   0.576  0.1997 -0.9253 -0.2900
 2442TIP3    H128741   4.005   1.380   0.565  0.7735 -1.3361  1.7667
 2442TIP3    H228742   3.875   1.377   0.643 -0.5989 -1.4895 -0.4622
 2443TIP3   OH228743   5.670   3.332  16.009  0.2883 -0.0444  0.0446
 2443TIP3    H128744   5.608   3.273  16.052  1.2142 -0.2922  1.0532
 2443TIP3    H228745   5.716   3.374  16.081  0.5295  0.9586 -0.6923
 2444TIP3   OH228746   5.255   0.572  14.175  0.0309 -0.1426 -0.2212
 2444TIP3    H128747   5.310   0.536  14.245 -1.0935 -1.8359 -0.1702
 2444TIP3    H228748   5.311   0.637  14.132  1.9640 -1.5418  0.0656
 2445TIP3   OH228749   3.882   2.161  17.152 -0.0871  0.4460 -0.0768
 2445TIP3    H128750   3.804   2.127  17.196 -0.9609 -1.5089 -2.9881
 2445TIP3    H228751   3.859   2.160  17.059  2.8719  1.2972 -0.8597
 2446TIP3   OH228752   1.058   3.355   2.675 -0.1985 -0.0149  0.3021
 2446TIP3    H128753   1.043   3.333   2.767  0.0048 -1.2455  0.0498
 2446TIP3    H228754   1.152   3.369   2.668 -0.4945  2.4253  0.7625
 2447TIP3   OH228755   3.252   5.531   4.667 -0.2643 -0.2710  0.2686
 2447TIP3    H128756   3.185   5.508   4.731 -2.7253  1.8097 -1.4288
 2447TIP3    H228757   3.277   5.621   4.690  2.9972 -1.4650  1.6919
 2448TIP3   OH228758   0.116   5.552  14.027 -0.0087 -0.0172 -0.1667
 2448TIP3    H128759   0.035   5.590  13.994  0.5920 -0.0112 -1.6570
 2448TIP3    H228760   0.107   5.458  14.010  0.8086  0.1341 -1.4302
 2449TIP3   OH228761   4.431   2.315  12.639 -0.2799  0.3757  0.1760
 2449TIP3    H128762   4.343   2.343  12.664 -0.8285 -1.3630  0.2169
 2449TIP3    H228763   4.418   2.258  12.564  0.8858  0.7656 -0.3305
 2450TIP3   OH228764   2.616   3.460  16.036  0.0150  0.4132 -0.4160
 2450TIP3    H128765   2.671   3.505  16.100 -0.8344 -1.4944  1.7556
 2450TIP3    H228766   2.640   3.498  15.952  0.4605  3.7178  1.1427
 2451TIP3   OH228767   0.862   3.473  15.515 -0.0098  0.1961 -0.6171
 2451TIP3    H128768   0.823   3.560  15.519  1.3654  0.9312 -2.1934
 2451TIP3    H228769   0.788   3.413  15.512 -0.9704  1.3294  0.3337
 2452TIP3   OH228770   1.569   4.121  12.907  0.1183 -0.0542 -0.0829
 2452TIP3    H128771   1.501   4.179  12.940 -1.8201 -2.4631  0.2948
 2452TIP3    H228772   1.568   4.133  12.812 -0.7012  0.0695 -0.0613
 2453TIP3   OH228773   0.830   4.712   2.980  0.2220 -0.5750  0.5146
 2453TIP3    H128774   0.825   4.735   3.073  0.2271  2.2484 -0.1205
 2453TIP3    H228775   0.912   4.750   2.950 -0.4002 -0.3042 -0.9084
 2454TIP3   OH228776   6.744   0.611  15.600 -0.1891 -0.9079  0.2168
 2454TIP3    H128777   6.774   0.641  15.514 -2.7709  0.9512 -0.0977
 2454TIP3    H228778   6.818   0.628  15.658  0.3396  1.1110 -0.9856
 2455TIP3   OH228779   4.154   4.517  14.596 -0.3819 -0.3419  0.1426
 2455TIP3    H128780   4.206   4.584  14.640  0.4375 -0.7535 -0.1893
 2455TIP3    H228781   4.217   4.466  14.546 -1.0251 -1.2282  0.2135
 2456TIP3   OH228782   1.325   3.197  14.926  0.3954  0.2179  0.1260
 2456TIP3    H128783   1.346   3.105  14.942 -2.3606 -0.9661 -2.6980
 2456TIP3    H228784   1.359   3.215  14.838 -1.1076  1.2087 -0.2752
 2457TIP3   OH228785   1.437   2.325   5.440 -0.0892  0.0957  0.1955
 2457TIP3    H128786   1.375   2.252   5.444  2.6093 -2.1923  1.4099
 2457TIP3    H228787   1.427   2.360   5.352 -3.3550  0.0473  0.4739
 2458TIP3   OH228788   4.830   2.597  14.723 -0.5418  0.5377 -0.1374
 2458TIP3    H128789   4.741   2.564  14.711 -0.3767  0.5377 -1.4958
 2458TIP3    H228790   4.883   2.518  14.733 -0.8201  0.5680  1.7012
 2459TIP3   OH228791   6.186   4.510   0.204  0.4279  0.1095 -0.9879
 2459TIP3    H128792   6.120   4.459   0.250  0.8091  0.2191 -0.3156
 2459TIP3    H228793   6.251   4.532   0.271  2.0168 -1.4459 -1.9918
 2460TIP3   OH228794   3.606   1.244  14.262  0.5585 -0.2305 -1.2209
 2460TIP3    H128795   3.622   1.324  14.212 -1.0663 -0.8175 -2.7572
 2460TIP3    H228796   3.565   1.185  14.199  0.6796 -1.8595  0.2027
 2461TIP3   OH228797   1.972   4.582  15.200  0.3729 -0.2553 -0.4615
 2461TIP3    H128798   1.978   4.605  15.293 -2.0038  2.7814 -0.9896
 2461TIP3    H228799   1.985   4.665  15.154  1.4080 -1.7062 -2.8760
 2462TIP3   OH228800   3.810   6.645  11.949  0.5307  0.4088 -0.2258
 2462TIP3    H128801   3.792   6.552  11.964  0.0928  0.5703  0.2583
 2462TIP3    H228802   3.854   6.647  11.865 -1.6753 -0.0055 -1.4317
 2463TIP3   OH228803   0.189   2.108   5.094 -0.0534  0.2104 -0.1897
 2463TIP3    H128804   0.166   2.087   5.003  0.4211  0.6506 -0.4144
 2463TIP3    H228805   0.129   2.055   5.146  1.7724 -2.5248 -0.7253
 2464TIP3   OH228806   0.220   5.019   3.775  0.1031  1.0374  0.0219
 2464TIP3    H128807   0.174   4.962   3.837 -0.8767  1.6723 -0.1162
 2464TIP3    H228808   0.239   5.098   3.826  0.6698  0.9438 -0.0445
 2465TIP3   OH228809   5.699   2.149   0.266  0.0969 -0.3436 -0.0558
 2465TIP3    H128810   5.660   2.069   0.230  0.5712 -0.1577 -1.0099
 2465TIP3    H228811   5.638   2.219   0.242  1.1275 -0.0114 -1.8042
 2466TIP3   OH228812   0.254   1.436  16.759 -0.0120  0.0010  0.0164
 2466TIP3    H128813   0.304   1.376  16.704  1.0504  1.3400 -0.5163
 2466TIP3    H228814   0.292   1.522  16.741 -2.9597  1.1561 -0.9049
 2467TIP3   OH228815   4.650   0.331   6.422  0.0261  0.3602  0.2102
 2467TIP3    H128816   4.698   0.344   6.504 -0.3613 -0.8586  0.6325
 2467TIP3    H228817   4.685   0.398   6.363 -0.9696  2.4256  1.9169
 2468TIP3   OH228818   6.340   6.224   0.459 -0.0378 -0.9382  0.7785
 2468TIP3    H128819   6.291   6.142   0.451 -0.8977 -0.3440 -0.1176
 2468TIP3    H228820   6.307   6.263   0.541 -0.9732 -0.6164  0.2628
 2469TIP3   OH228821   4.287   6.388   0.180  0.1946  0.3110 -0.0617
 2469TIP3    H128822   4.326   6.316   0.229 -0.3610  0.1493  0.1435
 2469TIP3    H228823   4.195   6.388   0.206  0.3651  1.6250  0.5657
 2470TIP3   OH228824   1.384   0.746  12.945  0.0716  0.2094 -0.2703
 2470TIP3    H128825   1.294   0.776  12.936 -0.0263 -0.1212 -0.4016
 2470TIP3    H228826   1.429   0.784  12.870 -0.4571 -1.4660 -1.4730
 2471TIP3   OH228827   0.534   1.980  16.236 -0.5261 -0.1149  0.4199
 2471TIP3    H128828   0.605   1.983  16.301 -1.6001 -2.1631  1.7624
 2471TIP3    H228829   0.540   1.892  16.199 -1.4904  0.1851 -0.4606
 2472TIP3   OH228830   0.516   4.133  12.422  0.8649 -0.4093  0.6448
 2472TIP3    H128831   0.471   4.100  12.345 -0.0699 -1.1893  1.5002
 2472TIP3    H228832   0.538   4.224  12.400 -1.9340  0.2760  0.5108
 2473TIP3   OH228833   4.337   1.612   5.709  0.5589 -0.2540  0.2056
 2473TIP3    H128834   4.305   1.538   5.761  0.3331  0.7202  1.4952
 2473TIP3    H228835   4.387   1.573   5.639  0.0396 -1.6521  0.6052
 2474TIP3   OH228836   3.109   1.929  10.826  0.5904  0.7114  0.2435
 2474TIP3    H128837   3.040   1.885  10.877  0.5033  0.9186  0.3025
 2474TIP3    H228838   3.161   1.857  10.790  0.4926  0.5587  0.4055
 2475TIP3   OH228839   2.831   3.369  11.834 -0.2355 -0.0651  0.7536
 2475TIP3    H128840   2.807   3.399  11.746 -1.6438 -0.3605  1.0249
 2475TIP3    H228841   2.920   3.337  11.825  0.0055  0.8780 -0.3430
 2476TIP3   OH228842   2.060   3.497  10.848 -0.2423 -0.0854 -0.1575
 2476TIP3    H128843   2.047   3.501  10.754 -0.7232 -3.1397 -0.2776
 2476TIP3    H228844   2.155   3.492  10.859 -0.0838  2.0792 -0.3510
 2477TIP3   OH228845   0.752   3.680   1.245  0.1989  0.6044 -0.6593
 2477TIP3    H128846   0.709   3.631   1.315  0.4539  1.2818 -0.0355
 2477TIP3    H228847   0.838   3.639   1.236  0.1919  0.5611 -0.5289
 2478TIP3   OH228848   2.014   4.306  15.022 -0.2869 -0.1451 -0.3997
 2478TIP3    H128849   1.927   4.296  15.061 -0.3789 -0.5239 -0.6988
 2478TIP3    H228850   2.028   4.225  14.972 -0.3137  0.4876 -1.4419
 2479TIP3   OH228851   2.906   5.695  14.002 -0.7328  0.0069 -0.2934
 2479TIP3    H128852   2.921   5.783  14.034 -1.7853 -0.1182  0.5958
 2479TIP3    H228853   2.961   5.639  14.058  3.1975  0.4081 -3.5115
 2480TIP3   OH228854   3.256   0.078  16.847  0.5764  0.0742 -0.0350
 2480TIP3    H128855   3.334   0.083  16.792 -1.0735  0.2192 -2.4582
 2480TIP3    H228856   3.242   0.168  16.877  1.6517 -0.0572  0.8635
 2481TIP3   OH228857   1.126   4.800   3.175  0.2763 -0.0614 -0.4520
 2481TIP3    H128858   1.152   4.882   3.216  1.5587  0.2373 -1.8285
 2481TIP3    H228859   1.093   4.825   3.089 -0.7829 -0.8384 -0.2762
 2482TIP3   OH228860   0.834   6.076   4.324 -0.1325  0.0687 -0.0568
 2482TIP3    H128861   0.873   6.076   4.411 -2.2394 -2.0321  0.9295
 2482TIP3    H228862   0.785   6.158   4.319  0.9318  0.7304  0.2842
 2483TIP3   OH228863   0.354   3.902  12.755 -0.3516  0.6632 -0.8622
 2483TIP3    H128864   0.428   3.961  12.741 -1.1196  2.0718  0.7871
 2483TIP3    H228865   0.277   3.959  12.755 -1.1800 -0.4311  0.0077
 2484TIP3   OH228866   2.053   4.967  16.749  0.5883  0.0370 -0.2721
 2484TIP3    H128867   2.071   4.992  16.839 -0.5889 -0.0080 -0.0161
 2484TIP3    H228868   2.133   4.988  16.701  2.1285 -2.2239  1.2402
 2485TIP3   OH228869   0.069   0.381  13.903  0.2601 -0.4134 -0.7236
 2485TIP3    H128870   0.020   0.433  13.967 -1.9920 -2.2794 -0.9084
 2485TIP3    H228871   0.144   0.348  13.952 -0.3911 -0.2089  0.4252
 2486TIP3   OH228872   2.642   0.551   0.134  0.0542 -0.5299 -0.6880
 2486TIP3    H128873   2.606   0.463   0.122 -0.5072 -0.2674 -0.9591
 2486TIP3    H228874   2.566   0.609   0.129  0.1527 -0.1793  1.5420
 2487TIP3   OH228875   1.425   1.324   2.125  0.5246  0.7322 -0.7383
 2487TIP3    H128876   1.491   1.370   2.071 -0.3967  1.0310 -1.6363
 2487TIP3    H228877   1.391   1.256   2.067 -2.2061  2.5830 -1.4190
 2488TIP3   OH228878   4.896   5.250  14.449 -0.6771 -0.3476  0.5945
 2488TIP3    H128879   4.962   5.320  14.454  1.5545 -2.3036 -0.8608
 2488TIP3    H228880   4.893   5.214  14.538  0.9778 -0.9226  0.4262
 2489TIP3   OH228881   6.159   4.629  15.985 -0.6105 -0.6053 -0.4257
 2489TIP3    H128882   6.221   4.559  16.006 -1.3379 -0.6027  1.9001
 2489TIP3    H228883   6.180   4.699  16.048 -0.8730  0.6772 -1.7402
 2490TIP3   OH228884   4.747   0.562   4.810  0.5097  0.4187 -0.4016
 2490TIP3    H128885   4.768   0.507   4.885  1.2214  0.7858 -0.3249
 2490TIP3    H228886   4.690   0.631   4.845  2.4134  1.7171  0.2184
 2491TIP3   OH228887   4.650   0.508  12.370 -0.0035 -0.0914 -0.4108
 2491TIP3    H128888   4.713   0.579  12.359  0.0216 -0.1299 -0.5218
 2491TIP3    H228889   4.599   0.532  12.448 -0.2064  0.2038 -0.6361
 2492TIP3   OH228890   6.294   5.208  15.478  0.0653 -0.1161  0.3386
 2492TIP3    H128891   6.333   5.175  15.397  0.7702 -1.6177  1.2591
 2492TIP3    H228892   6.200   5.200  15.464  0.1967 -0.9979 -0.0988
 2493TIP3   OH228893   0.107   0.678   0.749  0.3672 -0.6258  0.2056
 2493TIP3    H128894   0.152   0.659   0.667  1.7981  1.1798  0.5442
 2493TIP3    H228895   0.169   0.650   0.818  0.5594  0.9225  0.6702
 2494TIP3   OH228896   2.394   0.780   4.244 -0.0202  0.0455  0.3763
 2494TIP3    H128897   2.372   0.865   4.204 -1.3220 -0.7752 -0.6925
 2494TIP3    H228898   2.338   0.775   4.321 -0.3168 -0.0497  0.1587
 2495TIP3   OH228899   3.760   3.220  12.768 -0.3374  0.1256 -0.3157
 2495TIP3    H128900   3.675   3.263  12.778 -0.7578 -0.7282 -0.2250
 2495TIP3    H228901   3.775   3.177  12.852 -0.9333 -1.7331 -1.1366
 2496TIP3   OH228902   5.980   1.719  17.055  0.5210  0.0112 -0.3957
 2496TIP3    H128903   6.063   1.762  17.035  0.7183  0.2992  1.0107
 2496TIP3    H228904   5.937   1.777  17.119  0.1808 -1.1971  0.4801
 2497TIP3   OH228905   4.335   2.940  13.337 -0.5964  0.3090  0.3024
 2497TIP3    H128906   4.383   2.939  13.420 -0.3032  0.9277  0.1488
 2497TIP3    H228907   4.288   2.857  13.335 -0.8820  0.4385  1.2433
 2498TIP3   OH228908   5.074   2.787   2.144  0.4762 -0.2087 -0.3770
 2498TIP3    H128909   5.066   2.879   2.166  0.0316 -0.6855  1.5454
 2498TIP3    H228910   5.128   2.785   2.065  0.7784  1.6608 -0.2220
 2499TIP3   OH228911   0.915   1.503  11.181  0.0957  0.0434 -0.1226
 2499TIP3    H128912   0.863   1.450  11.122 -1.9287  1.4444  0.3535
 2499TIP3    H228913   0.984   1.540  11.126  1.4239 -2.8632 -0.4915
 2500TIP3   OH228914   5.884   4.662  16.309 -0.0640 -0.3920  0.3027
 2500TIP3    H128915   5.976   4.667  16.331 -0.0931 -0.9847  0.5672
 2500TIP3    H228916   5.883   4.658  16.213  0.0762  1.7489  0.1899
 2501TIP3   OH228917   1.242   2.121   5.450  0.4496 -0.1859 -0.1164
 2501TIP3    H128918   1.201   2.043   5.414  0.5964 -0.3694  0.1158
 2501TIP3    H228919   1.169   2.176   5.479  0.3719 -0.5856  0.4488
 2502TIP3   OH228920   2.537   5.254  13.903 -0.1905 -0.0457  0.5694
 2502TIP3    H128921   2.494   5.302  13.833  0.6016  1.8881  1.3594
 2502TIP3    H228922   2.469   5.241  13.969  0.0104  1.7311  1.1826
 2503TIP3   OH228923   3.452   2.794   1.538 -0.9830 -0.1341 -0.1327
 2503TIP3    H128924   3.406   2.755   1.613  2.0781 -2.5700  0.5719
 2503TIP3    H228925   3.501   2.866   1.575 -0.0938 -0.8431  0.0798
 2504TIP3   OH228926   5.279   1.834   3.620 -0.3251 -0.3884  0.2514
 2504TIP3    H128927   5.238   1.753   3.592 -0.7283 -0.0203 -0.2273
 2504TIP3    H228928   5.349   1.806   3.679 -1.0416 -1.0268  0.8008
 2505TIP3   OH228929   4.179   6.698   5.615  0.1478  0.5565 -0.0574
 2505TIP3    H128930   4.148   6.641   5.685  1.8423 -0.6625 -0.2675
 2505TIP3    H228931   4.238   6.643   5.564  0.6805  2.0933 -1.1221
 2506TIP3   OH228932   6.638   3.431   6.569  0.2217  0.0888 -0.3121
 2506TIP3    H128933   6.648   3.514   6.523 -1.2348  0.6143  0.3005
 2506TIP3    H228934   6.659   3.451   6.660 -0.2461 -0.1828 -0.1424
 2507TIP3   OH228935   1.018   0.410  16.632 -0.1654 -0.2831  0.5828
 2507TIP3    H128936   0.972   0.326  16.628  0.6667 -0.7219  0.0689
 2507TIP3    H228937   1.013   0.436  16.724  2.3421 -2.4785  1.4138
 2508TIP3   OH228938   4.052   0.730  14.987 -0.0987  0.4009 -0.0122
 2508TIP3    H128939   4.139   0.755  15.018 -1.6195  2.6046  2.6590
 2508TIP3    H228940   4.015   0.811  14.951 -1.1241 -0.4571 -0.9316
 2509TIP3   OH228941   6.450   4.158   0.160  0.1100 -0.0344 -0.5629
 2509TIP3    H128942   6.514   4.148   0.089 -1.1998  0.5842 -1.8502
 2509TIP3    H228943   6.499   4.202   0.229  1.6612 -1.4564 -0.7030
 2510TIP3   OH228944   4.558   4.208   4.366  0.5030  0.6661 -0.1913
 2510TIP3    H128945   4.577   4.209   4.272 -0.1068  0.8560 -0.3141
 2510TIP3    H228946   4.601   4.286   4.400 -0.9877  1.6999 -0.6497
 2511TIP3   OH228947   5.488   5.106   2.509 -0.2220  0.0082  0.1021
 2511TIP3    H128948   5.552   5.064   2.566  0.0286  0.0149 -0.1701
 2511TIP3    H228949   5.492   5.056   2.428  0.3574  0.7831 -0.3614
 2512TIP3   OH228950   0.396   2.089   5.371 -0.4888  0.0738  0.3005
 2512TIP3    H128951   0.363   1.999   5.365 -1.3216  0.3765  0.2702
 2512TIP3    H228952   0.429   2.096   5.460  0.8796 -0.7025 -0.1422
 2513TIP3   OH228953   1.135   2.107   0.112 -0.1530  0.6327 -0.1455
 2513TIP3    H128954   1.067   2.135   0.173  0.0527  0.3393  0.2224
 2513TIP3    H228955   1.145   2.013   0.128  2.0364  1.1168  1.5039
 2514TIP3   OH228956   2.471   2.961   6.410 -0.5642  0.3837 -0.0389
 2514TIP3    H128957   2.558   3.002   6.415 -0.6236  0.3436  1.6117
 2514TIP3    H228958   2.485   2.881   6.360  0.5423 -0.0885  1.0139
 2515TIP3   OH228959   2.643   5.319  15.229  0.3275 -0.0796 -0.3105
 2515TIP3    H128960   2.604   5.235  15.254  1.3399 -0.2103  0.9051
 2515TIP3    H228961   2.571   5.381  15.230 -0.7260 -1.1955 -2.6506
 2516TIP3   OH228962   5.753   4.306  15.991 -0.6267  0.1453 -0.7057
 2516TIP3    H128963   5.825   4.339  16.045 -0.9920 -0.0756 -0.0851
 2516TIP3    H228964   5.767   4.347  15.906 -0.2346  0.7581 -0.3520
 2517TIP3   OH228965   2.608   5.469  12.668  0.1142  0.4669 -0.0340
 2517TIP3    H128966   2.585   5.395  12.725  0.2309  0.2582 -0.2511
 2517TIP3    H228967   2.525   5.497  12.629  0.1264  0.1653 -0.2850
 2518TIP3   OH228968   0.823   2.313  11.373  0.1808 -0.1027 -0.0200
 2518TIP3    H128969   0.815   2.301  11.278  1.7871  1.8794 -0.4575
 2518TIP3    H228970   0.846   2.227  11.406  1.5718 -0.4141 -1.7005
 2519TIP3   OH228971   1.621   5.611  16.767 -0.2127 -0.0342  0.0594
 2519TIP3    H128972   1.686   5.680  16.781 -1.5604  0.8686  2.1160
 2519TIP3    H228973   1.544   5.658  16.732 -1.3350 -0.3698  1.9993
 2520TIP3   OH228974   6.681   1.323  11.396  0.2730  0.2874 -0.0131
 2520TIP3    H128975   6.615   1.350  11.460 -0.9768 -1.3986 -0.5455
 2520TIP3    H228976   6.637   1.332  11.311 -0.1525 -3.1177 -0.2251
 2521TIP3   OH228977   0.755   4.830   3.672  0.0997  0.1680 -0.0135
 2521TIP3    H128978   0.780   4.881   3.750  1.9860  1.7903 -1.6189
 2521TIP3    H228979   0.787   4.882   3.599 -0.7060 -1.8677 -1.8540
 2522TIP3   OH228980   4.030   2.496   3.948 -0.2303  0.2632  0.1219
 2522TIP3    H128981   4.032   2.427   4.015 -2.2227 -0.0611 -0.1139
 2522TIP3    H228982   3.991   2.571   3.993 -2.2969 -0.1916 -0.8405
 2523TIP3   OH228983   1.544   6.060   2.019 -0.4229  0.2031 -0.0163
 2523TIP3    H128984   1.628   6.069   1.973 -0.0698  1.0079  0.7816
 2523TIP3    H228985   1.550   5.976   2.064  0.0740  0.4058  0.2927
 2524TIP3   OH228986   0.716   4.583   5.718  0.0614  0.0527 -0.1163
 2524TIP3    H128987   0.776   4.521   5.676 -1.0434 -2.6573  2.1395
 2524TIP3    H228988   0.676   4.533   5.789 -3.1462  2.4821 -0.1020
 2525TIP3   OH228989   1.126   4.144   4.263 -0.0112  0.4010  0.4425
 2525TIP3    H128990   1.211   4.188   4.257  0.3746 -0.4783 -0.7677
 2525TIP3    H228991   1.095   4.164   4.352 -0.4024  4.0608 -0.4198
 2526TIP3   OH228992   4.273   3.842  16.309 -0.0901 -0.2800  0.0248
 2526TIP3    H128993   4.368   3.831  16.318  0.2164  2.7871  1.2698
 2526TIP3    H228994   4.236   3.790  16.380  0.7828  0.0834  0.7649
 2527TIP3   OH228995   3.064   4.352  13.350  0.1563  0.1818  0.3013
 2527TIP3    H128996   3.097   4.423  13.295 -0.9516  0.3580 -0.1486
 2527TIP3    H228997   3.137   4.290  13.356  0.8224  0.9366 -0.0370
 2528TIP3   OH228998   6.325   5.775   2.064 -0.6893  0.1113  0.5631
 2528TIP3    H128999   6.258   5.707   2.075  0.1468 -0.5254  1.8316
 2528TIP3    H229000   6.396   5.730   2.017 -0.4569  0.3200  0.7176
 2529TIP3   OH229001   3.097   0.698  12.857 -0.0109  0.0941  0.2157
 2529TIP3    H129002   3.132   0.612  12.883  0.3601 -1.1003 -3.7921
 2529TIP3    H229003   3.174   0.748  12.830 -0.3080  1.4491  1.8307
 2530TIP3   OH229004   6.544   5.496  10.732  0.7553 -0.1337 -0.1554
 2530TIP3    H129005   6.614   5.431  10.726  0.2628 -0.8308  1.3500
 2530TIP3    H229006   6.589   5.576  10.758  0.9383 -0.7440  1.4943
 2531TIP3   OH229007   3.586   1.791   4.266  0.7532  0.0500  0.1319
 2531TIP3    H129008   3.565   1.726   4.333  0.4910 -0.5272 -0.5058
 2531TIP3    H229009   3.504   1.805   4.219  1.0998 -0.0664 -0.5176
 2532TIP3   OH229010   2.231   4.935   2.174 -0.1099 -0.0753 -0.2650
 2532TIP3    H129011   2.247   4.957   2.266 -1.0116 -3.2566  0.7078
 2532TIP3    H229012   2.138   4.953   2.162  0.3456  1.8545 -1.0313
 2533TIP3   OH229013   4.621   3.324   4.154  0.1983 -0.6541 -0.6837
 2533TIP3    H129014   4.713   3.305   4.134 -0.0690 -2.1537 -0.5465
 2533TIP3    H229015   4.616   3.319   4.249 -0.1610 -1.2197 -0.7318
 2534TIP3   OH229016   4.660   5.120  16.769  0.2179 -0.0378 -0.0013
 2534TIP3    H129017   4.690   5.113  16.679  3.0309  0.0172  0.9023
 2534TIP3    H229018   4.721   5.067  16.820 -0.7984  0.6378  1.9932
 2535TIP3   OH229019   5.948   3.664   2.818 -0.2562  0.5078  0.1188
 2535TIP3    H129020   5.966   3.593   2.880 -0.4568 -0.4535 -0.8955
 2535TIP3    H229021   6.034   3.685   2.780 -0.0341  1.5381  1.1785
 2536TIP3   OH229022   6.323   0.376   1.012 -0.0475  0.1977  1.2232
 2536TIP3    H129023   6.364   0.294   0.984 -2.7140 -0.8133  0.1168
 2536TIP3    H229024   6.328   0.374   1.108 -0.2228 -1.3147  1.2073
 2537TIP3   OH229025   1.763   6.134  15.400  0.0277 -0.3467 -0.1140
 2537TIP3    H129026   1.762   6.081  15.320 -0.6452 -2.4895  1.2719
 2537TIP3    H229027   1.734   6.074  15.469  0.8271  1.3964  1.7904
 2538TIP3   OH229028   2.016   3.016   1.281  0.3560 -0.7684 -0.1352
 2538TIP3    H129029   2.102   2.975   1.274  0.6126 -0.4142  0.8695
 2538TIP3    H229030   2.008   3.039   1.373 -0.2519  0.4306 -0.4751
 2539TIP3   OH229031   6.528   6.408   5.966 -0.0686  0.0324 -0.0115
 2539TIP3    H129032   6.473   6.392   6.044  2.7144 -2.2489  1.5992
 2539TIP3    H229033   6.530   6.323   5.921  1.1213  0.4245 -0.7147
 2540TIP3   OH229034   5.900   0.863   5.525  0.1967  0.4693  0.2673
 2540TIP3    H129035   5.993   0.849   5.506  0.1379  0.8346 -0.2998
 2540TIP3    H229036   5.858   0.868   5.439 -0.5531 -1.0031  0.5138
 2541TIP3   OH229037   6.542   2.335  12.870 -0.4131  0.0061  0.3435
 2541TIP3    H129038   6.456   2.326  12.829  0.1536 -0.7975 -0.7069
 2541TIP3    H229039   6.560   2.249  12.907  1.2413 -0.7285 -2.0829
 2542TIP3   OH229040   1.065   0.269   3.674  0.1878 -0.6383 -0.1257
 2542TIP3    H129041   1.092   0.359   3.691 -0.7402 -0.1593 -1.1391
 2542TIP3    H229042   1.102   0.248   3.589  0.3677 -1.2068  0.0910
 2543TIP3   OH229043   1.494   3.797  15.331 -0.3097  0.2948 -0.3068
 2543TIP3    H129044   1.539   3.849  15.263 -0.3970 -0.6610 -1.1055
 2543TIP3    H229045   1.463   3.720  15.284  1.6678 -1.5229  1.3012
 2544TIP3   OH229046   1.046   0.457   2.777  0.8140  0.1309  0.3170
 2544TIP3    H129047   1.032   0.513   2.701  1.2849  0.3244  0.3692
 2544TIP3    H229048   0.962   0.456   2.823  0.4992 -0.0720 -0.2630
 2545TIP3   OH229049   5.950   1.133  16.152  0.4000  0.0197 -0.0270
 2545TIP3    H129050   5.978   1.137  16.244 -1.3440 -3.3555  0.7230
 2545TIP3    H229051   6.031   1.129  16.102  1.3592  1.0919  1.3779
 2546TIP3   OH229052   3.058   0.009   2.645 -0.2206  0.5566 -0.3011
 2546TIP3    H129053   3.057  -0.082   2.615 -0.7143  0.9963 -1.6572
 2546TIP3    H229054   3.137   0.015   2.699 -1.2885 -1.1962  1.4987
 2547TIP3   OH229055   0.580   3.888  15.431 -0.2197  0.7130  0.7261
 2547TIP3    H129056   0.580   3.864  15.524 -0.8841  1.1070  0.8296
 2547TIP3    H229057   0.544   3.976  15.429  0.2597  0.8957  0.1355
 2548TIP3   OH229058   2.987   0.161  17.201 -0.6124  0.2102 -0.3868
 2548TIP3    H129059   2.941   0.103  17.140  2.0114 -2.1681 -0.1856
 2548TIP3    H229060   2.936   0.157  17.281 -0.2234 -2.2356 -0.2253
 2549TIP3   OH229061   3.280   2.989   6.131 -0.1127 -0.1296  0.4789
 2549TIP3    H129062   3.212   3.040   6.176 -0.8900 -0.6216 -0.1204
 2549TIP3    H229063   3.238   2.959   6.051  2.0409  2.9734 -1.9455
 2550TIP3   OH229064   5.174   6.135  14.739 -0.0221  0.3582  0.0577
 2550TIP3    H129065   5.133   6.136  14.825 -0.0758 -0.6310  0.0516
 2550TIP3    H229066   5.105   6.159  14.678  0.1984  1.7934  0.3600
 2551TIP3   OH229067   5.309   6.542  13.030  0.2179  0.0457 -0.0639
 2551TIP3    H129068   5.299   6.453  13.063  1.8276 -0.6579 -1.4085
 2551TIP3    H229069   5.317   6.532  12.935 -2.9051  1.9069 -0.5693
 2552TIP3   OH229070   3.000   5.003   6.070  0.3883  0.8947  0.0991
 2552TIP3    H129071   3.008   4.916   6.030 -1.0732  0.5119  0.6285
 2552TIP3    H229072   3.076   5.051   6.036 -0.3816  0.3530 -2.5094
 2553TIP3   OH229073   0.489   2.042  12.041 -0.2694 -0.3419 -0.8038
 2553TIP3    H129074   0.449   2.110  12.095 -0.3034 -1.1337  0.1873
 2553TIP3    H229075   0.577   2.075  12.021 -0.5764  0.3550 -1.0374
 2554TIP3   OH229076   5.604   0.143  16.291 -0.0742  0.2622  0.6067
 2554TIP3    H129077   5.606   0.109  16.380  1.3506  4.2840  2.2415
 2554TIP3    H229078   5.513   0.169  16.278 -0.2778 -0.2844  0.8945
 2555TIP3   OH229079   1.525   5.447   6.056  0.8112  0.2584  0.1133
 2555TIP3    H129080   1.480   5.510   6.113  2.0202  1.0142  0.2469
 2555TIP3    H229081   1.531   5.367   6.109  0.8572  0.5794  0.5938
 2556TIP3   OH229082   3.617   6.641   0.521 -0.7552  0.4088 -0.2585
 2556TIP3    H129083   3.564   6.698   0.577 -0.7331  2.3885 -2.1722
 2556TIP3    H229084   3.701   6.686   0.515 -0.2695 -0.5456 -0.6686
 2557TIP3   OH229085   2.312   3.049   1.945  0.8107  0.1472  0.0211
 2557TIP3    H129086   2.266   3.045   2.029  0.3747 -2.1595 -0.3067
 2557TIP3    H229087   2.250   3.094   1.887 -0.4089 -1.5347 -0.0082
 2558TIP3   OH229088   4.219   4.466  12.352 -0.1063  0.2717 -0.2623
 2558TIP3    H129089   4.232   4.469  12.446  0.8202  1.1034 -0.4087
 2558TIP3    H229090   4.170   4.545  12.331  1.0444  0.8926 -0.6703
 2559TIP3   OH229091   0.581   5.089  16.605 -0.5429  0.8961 -0.3339
 2559TIP3    H129092   0.576   5.184  16.617 -1.8273  1.1117 -2.3725
 2559TIP3    H229093   0.668   5.074  16.567  1.6100  0.6910  4.3114
 2560TIP3   OH229094   5.565   4.518   4.666 -0.3071  0.4011  0.2434
 2560TIP3    H129095   5.484   4.466   4.670 -0.6827  1.1071  2.7185
 2560TIP3    H229096   5.622   4.479   4.732  1.3196  0.0486 -1.3382
 2561TIP3   OH229097   4.671   5.833  13.801  0.1803 -0.3365  0.0889
 2561TIP3    H129098   4.618   5.754  13.809 -0.1963 -0.1396 -0.4802
 2561TIP3    H229099   4.682   5.846  13.707 -2.3597  2.0043  0.0376
 2562TIP3   OH229100   2.989   0.384   4.745  0.1605 -0.5539  0.5160
 2562TIP3    H129101   3.083   0.377   4.730  0.6994  1.0390  2.9046
 2562TIP3    H229102   2.963   0.464   4.699 -0.1408 -1.2729 -0.5807
 2563TIP3   OH229103   6.450   3.449   5.011 -0.1733  0.8775 -0.3966
 2563TIP3    H129104   6.475   3.523   5.067 -0.0236  0.7346 -0.2769
 2563TIP3    H229105   6.466   3.372   5.065 -3.3480  0.8793  0.6519
 2564TIP3   OH229106   4.867   6.581  13.324 -0.4935 -0.3484  0.4910
 2564TIP3    H129107   4.881   6.655  13.384  0.3172 -2.4291  2.9515
 2564TIP3    H229108   4.910   6.608  13.243  0.4565  1.5827  1.5905
 2565TIP3   OH229109   4.796   4.188  10.969  1.0208  0.5432  0.1398
 2565TIP3    H129110   4.752   4.187  10.883  1.2453 -0.5472  0.0290
 2565TIP3    H229111   4.864   4.254  10.961  1.2612  0.2035 -0.6424
 2566TIP3   OH229112   5.691   6.256  11.356 -0.0929  0.0142  0.2878
 2566TIP3    H129113   5.600   6.237  11.335  0.1356  0.3233 -1.0453
 2566TIP3    H229114   5.712   6.334  11.304  0.9451 -0.0697  0.5577
 2567TIP3   OH229115   3.926   0.383   3.676  0.4564  0.0897 -0.5864
 2567TIP3    H129116   3.934   0.378   3.581  0.3389 -1.8526 -0.5253
 2567TIP3    H229117   3.948   0.294   3.706 -0.4368  0.4250  1.1193
 2568TIP3   OH229118   3.399   0.321   2.360 -0.2560  0.0931 -0.4547
 2568TIP3    H129119   3.491   0.311   2.338 -0.3109  0.6489 -0.9558
 2568TIP3    H229120   3.358   0.352   2.279 -0.4603  2.1183  0.3746
 2569TIP3   OH229121   5.117   0.315  14.319  0.6451  0.3624  0.2469
 2569TIP3    H129122   5.112   0.305  14.414 -2.1304 -1.3778 -0.0480
 2569TIP3    H229123   5.205   0.284  14.296  0.2607 -2.0218  1.9191
 2570TIP3   OH229124   6.425   3.572  11.282 -0.0136 -0.3890 -0.1659
 2570TIP3    H129125   6.475   3.621  11.348 -1.7459  1.9820 -0.5232
 2570TIP3    H229126   6.335   3.604  11.292 -0.4338 -0.4550 -3.2416
 2571TIP3   OH229127   4.013   3.547  15.575  0.1588 -0.2307 -0.2045
 2571TIP3    H129128   4.108   3.547  15.565  0.0340 -1.0182 -1.6212
 2571TIP3    H229129   3.980   3.539  15.485 -1.2522  0.4956  0.2329
 2572TIP3   OH229130   5.916   0.226   6.313  0.2347  0.1374  0.0165
 2572TIP3    H129131   5.957   0.168   6.248 -0.9805 -0.4310 -0.2496
 2572TIP3    H229132   5.989   0.277   6.349  1.2264 -1.1167 -0.1973
 2573TIP3   OH229133   2.591   4.532   2.406 -0.4429 -0.6208 -0.0117
 2573TIP3    H129134   2.631   4.475   2.340 -0.5372 -1.8106  0.9372
 2573TIP3    H229135   2.666   4.564   2.457 -0.1515  2.0530 -2.0127
 2574TIP3   OH229136   0.655   5.278  15.565 -0.0165  0.3164  0.4634
 2574TIP3    H129137   0.571   5.234  15.552  1.4855 -2.3096 -0.8706
 2574TIP3    H229138   0.675   5.265  15.658  0.1545 -1.4588  0.2014
 2575TIP3   OH229139   0.865   3.253   2.891 -0.8446  0.2121 -0.3543
 2575TIP3    H129140   0.811   3.328   2.914 -1.9707 -0.9753  0.9925
 2575TIP3    H229141   0.840   3.232   2.801 -2.9871 -0.5806  0.3862
 2576TIP3   OH229142   1.523   4.591   5.048 -0.1493  0.4021  0.2159
 2576TIP3    H129143   1.610   4.610   5.013 -0.6501  1.9676 -0.2258
 2576TIP3    H229144   1.536   4.580   5.142  0.7051 -0.6145 -0.0104
 2577TIP3   OH229145   5.190   0.820   4.133 -0.0402  0.3435  0.4053
 2577TIP3    H129146   5.155   0.780   4.054  0.2749 -0.2339  0.5540
 2577TIP3    H229147   5.114   0.831   4.190 -0.1513  0.0681  0.3112
 2578TIP3   OH229148   5.298   0.449   2.988 -0.2713 -0.0808  0.0103
 2578TIP3    H129149   5.384   0.490   2.983  0.6622 -1.5415  2.7187
 2578TIP3    H229150   5.237   0.515   2.956  1.5861  1.9068  0.4756
 2579TIP3   OH229151   0.608   0.690  11.477  0.1415  0.6051 -0.3066
 2579TIP3    H129152   0.566   0.760  11.427  3.2278  2.7023 -0.0497
 2579TIP3    H229153   0.585   0.610  11.430 -2.0870  1.9067 -1.5334
 2580TIP3   OH229154   4.027   0.462  14.888  0.4127 -0.6175 -0.0790
 2580TIP3    H129155   3.931   0.466  14.887  0.4286  0.3105  0.7639
 2580TIP3    H229156   4.053   0.534  14.946  1.6102 -1.0129 -0.1109
 2581TIP3   OH229157   1.693   0.661  11.132  0.2104 -0.6874 -0.1888
 2581TIP3    H129158   1.604   0.659  11.099 -0.5669  1.1358  1.6640
 2581TIP3    H229159   1.749   0.656  11.054 -1.4771 -2.5942 -1.3105
 2582TIP3   OH229160   2.681   6.276   5.878 -0.4481 -0.5314  0.2616
 2582TIP3    H129161   2.604   6.319   5.915 -1.1894 -0.6603 -1.1072
 2582TIP3    H229162   2.727   6.240   5.954 -2.3932 -1.5564  0.9950
 2583TIP3   OH229163   4.600   5.988   2.050  0.3453  0.3942  0.2521
 2583TIP3    H129164   4.535   6.008   2.117 -0.2818  0.4004 -0.3523
 2583TIP3    H229165   4.584   6.052   1.980  0.7821  0.1888 -0.0416
 2584TIP3   OH229166   4.831   6.691  15.051 -0.1663  0.5676 -0.0318
 2584TIP3    H129167   4.886   6.726  15.122  0.3918  2.7398 -1.4816
 2584TIP3    H229168   4.877   6.717  14.971 -0.4926 -2.3335 -1.2096
 2585TIP3   OH229169   3.110   3.092  14.482 -0.1750 -0.2706  0.6457
 2585TIP3    H129170   3.092   3.003  14.512 -0.4279  0.1777  1.8773
 2585TIP3    H229171   3.109   3.145  14.562 -1.5345  1.0801 -0.2255
 2586TIP3   OH229172   4.275   1.928  15.880 -0.2082  0.0222 -0.1391
 2586TIP3    H129173   4.336   1.939  15.953 -1.6294  1.4769  0.8632
 2586TIP3    H229174   4.328   1.944  15.802  1.1002 -0.5554  0.6158
 2587TIP3   OH229175   4.706   1.387  14.763 -0.3057 -0.2336 -0.3750
 2587TIP3    H129176   4.755   1.308  14.785  0.2041 -0.0713 -0.9193
 2587TIP3    H229177   4.615   1.365  14.782 -0.0198 -0.5129  0.7203
 2588TIP3   OH229178   3.737   4.271  17.185  0.3251 -0.1391  0.0470
 2588TIP3    H129179   3.687   4.211  17.130 -0.7638  1.5899 -0.9148
 2588TIP3    H229180   3.825   4.233  17.188  0.0117 -1.0465 -1.6767
 2589TIP3   OH229181   3.757   1.952  14.148  0.2580  0.4359 -0.0816
 2589TIP3    H129182   3.783   1.872  14.194 -0.4068 -0.8883 -1.9738
 2589TIP3    H229183   3.834   1.976  14.096  0.2512  0.6956  0.0259
 2590TIP3   OH229184   5.726   1.103  11.319  0.1743  0.0781 -0.0040
 2590TIP3    H129185   5.642   1.126  11.278  0.8077  0.7833 -0.9236
 2590TIP3    H229186   5.791   1.147  11.265  1.1490 -0.5751  0.6379
 2591TIP3   OH229187   5.229   4.068  13.668  0.0572  0.1523 -0.1897
 2591TIP3    H129188   5.211   4.108  13.584  0.4065 -0.6823 -0.6713
 2591TIP3    H229189   5.143   4.049  13.705 -0.1067  1.4328  0.0952
 2592TIP3   OH229190   0.610   5.609   5.132  0.3619 -0.0955 -0.0701
 2592TIP3    H129191   0.610   5.606   5.227  0.0007 -1.2913 -0.1068
 2592TIP3    H229192   0.518   5.611   5.108  0.4576  1.2059 -0.3734
 2593TIP3   OH229193   2.169   1.566   4.248 -0.0011 -0.5100 -0.1640
 2593TIP3    H129194   2.117   1.551   4.327  0.6603 -0.5737  0.2634
 2593TIP3    H229195   2.137   1.649   4.214 -0.4608 -0.6045  0.0341
 2594TIP3   OH229196   2.703   4.787   1.251 -0.1547  0.4702  0.1261
 2594TIP3    H129197   2.785   4.833   1.273 -0.7221  1.1348  0.8866
 2594TIP3    H229198   2.639   4.820   1.315 -0.9016 -0.4029 -0.1593
 2595TIP3   OH229199   4.898   1.486   0.151 -0.1341 -0.7921  0.0931
 2595TIP3    H129200   4.812   1.521   0.176 -0.2098 -0.4711 -0.6189
 2595TIP3    H229201   4.961   1.538   0.202 -0.1907  0.9719 -1.5651
 2596TIP3   OH229202   4.767   4.759   1.148 -0.1678  0.1692 -0.1665
 2596TIP3    H129203   4.806   4.714   1.073 -1.1848  1.3472 -1.4308
 2596TIP3    H229204   4.799   4.849   1.141  2.5658 -0.4993  2.8426
 2597TIP3   OH229205   2.856   1.282   5.481 -0.8660 -0.0066  0.0536
 2597TIP3    H129206   2.835   1.242   5.565  0.8669  0.2753  0.6484
 2597TIP3    H229207   2.792   1.245   5.420 -1.5594 -0.9127  1.3017
 2598TIP3   OH229208   1.755   1.763   3.820  0.3553  0.8519  0.0366
 2598TIP3    H129209   1.812   1.729   3.890 -0.3462 -1.3297 -0.3920
 2598TIP3    H229210   1.729   1.850   3.850  0.9926  0.4074  1.9620
 2599TIP3   OH229211   4.456   4.330   4.896  0.7042 -0.0137 -0.7622
 2599TIP3    H129212   4.464   4.347   4.802  0.2499  1.7671 -0.5128
 2599TIP3    H229213   4.429   4.415   4.933  2.1675 -0.3336  1.1431
 2600TIP3   OH229214   5.564   5.719   1.384  0.2455  0.1150  0.2758
 2600TIP3    H129215   5.565   5.814   1.397 -0.0755  0.0118  1.1129
 2600TIP3    H229216   5.500   5.687   1.447 -0.0577 -0.6078 -0.3975
 2601TIP3   OH229217   5.183   4.437  11.988  0.4218  0.5365 -0.9078
 2601TIP3    H129218   5.112   4.415  12.048 -0.1528  0.6078 -1.5603
 2601TIP3    H229219   5.211   4.525  12.015  0.0147  0.6612 -0.8913
 2602TIP3   OH229220   4.650   3.569  13.274  0.2771 -0.0520  0.0225
 2602TIP3    H129221   4.715   3.608  13.331 -0.7684  0.0132  1.1884
 2602TIP3    H229222   4.681   3.479  13.261 -0.1538 -0.4677  1.7627
 2603TIP3   OH229223   2.097   3.651   5.043 -0.3214  0.2904 -0.2941
 2603TIP3    H129224   2.137   3.669   5.128  0.4141  1.6791 -0.9274
 2603TIP3    H229225   2.019   3.706   5.040 -1.1669 -0.8507  0.0642
 2604TIP3   OH229226   5.441   6.680  16.214  0.4251 -1.1022  0.4397
 2604TIP3    H129227   5.481   6.757  16.174 -2.3592  1.2496  1.9381
 2604TIP3    H229228   5.385   6.644  16.145  0.3538 -0.7066  0.2896
 2605TIP3   OH229229   2.438   1.914  15.751 -0.1408 -0.3718  0.5656
 2605TIP3    H129230   2.426   2.008  15.761  0.0743 -0.3986  1.1299
 2605TIP3    H229231   2.523   1.904  15.710 -0.8180 -0.2732 -0.8759
 2606TIP3   OH229232   1.040   3.190   1.243  0.0160  0.2602  0.1385
 2606TIP3    H129233   1.058   3.097   1.261 -1.6118  0.4880  3.3199
 2606TIP3    H229234   1.125   3.226   1.218  1.1445 -1.6139  1.0892
 2607TIP3   OH229235   6.087   2.259  13.612  0.6557 -0.4364  0.2109
 2607TIP3    H129236   6.172   2.224  13.638  1.6593  1.2970 -0.6273
 2607TIP3    H229237   6.099   2.285  13.520 -0.8056 -0.2912  0.0560
 2608TIP3   OH229238   0.591   1.861  17.179 -0.0767  0.4880 -0.2807
 2608TIP3    H129239   0.624   1.784  17.134  0.6751  0.0624  0.9615
 2608TIP3    H229240   0.539   1.907  17.114 -0.7049 -1.1769 -0.9795
 2609TIP3   OH229241   3.543   0.947  12.236 -0.3090 -0.3193 -0.2021
 2609TIP3    H129242   3.518   1.024  12.185  0.1368 -1.2722 -1.8948
 2609TIP3    H229243   3.496   0.874  12.194  1.1233 -1.3231 -0.1263
 2610TIP3   OH229244   5.215   4.514   2.866 -0.3218  0.1383  0.7300
 2610TIP3    H129245   5.272   4.573   2.816 -1.6816 -0.0261 -1.0556
 2610TIP3    H229246   5.259   4.430   2.863  0.1308  0.3709  0.7454
 2611TIP3   OH229247   3.529   0.376   3.555 -0.1653  0.1333  0.3253
 2611TIP3    H129248   3.459   0.353   3.495  0.7001 -0.1586 -0.5786
 2611TIP3    H229249   3.570   0.293   3.577  0.6162  0.4167 -0.0407
 2612TIP3   OH229250   5.800   1.433  13.439  0.0217 -0.3469 -0.5715
 2612TIP3    H129251   5.837   1.442  13.527  1.6475  2.2961 -1.4701
 2612TIP3    H229252   5.863   1.378  13.392 -0.2590 -0.7944 -0.4331
 2613TIP3   OH229253   0.840   2.402  16.767  0.5283  0.0633 -0.6959
 2613TIP3    H129254   0.837   2.307  16.772 -1.5900  0.0971 -0.5990
 2613TIP3    H229255   0.862   2.430  16.856 -1.3184 -0.2904 -0.1049
 2614TIP3   OH229256   1.814   3.209   5.218 -0.3061  0.4445 -0.0531
 2614TIP3    H129257   1.853   3.287   5.255  0.3994  0.0009  0.1418
 2614TIP3    H229258   1.838   3.212   5.125  0.8473 -0.2225  0.2183
 2615TIP3   OH229259   2.661   6.492   5.652 -1.0991 -0.5532 -0.1488
 2615TIP3    H129260   2.706   6.424   5.602  1.6425  1.0708 -0.0075
 2615TIP3    H229261   2.697   6.485   5.740 -0.0136  1.6794 -0.3705
 2616TIP3   OH229262   6.074   6.030  14.549  0.4459 -0.2860  0.2365
 2616TIP3    H129263   6.052   6.036  14.456  3.4447 -0.9642 -0.5848
 2616TIP3    H229264   6.093   5.937  14.563  1.5313  0.0560  1.1090
 2617TIP3   OH229265   4.699   1.076   1.478 -0.2592 -0.7853 -0.8600
 2617TIP3    H129266   4.681   0.995   1.525 -1.7294  0.0764  0.0836
 2617TIP3    H229267   4.735   1.135   1.544  0.0640 -0.4042 -1.3708
 2618TIP3   OH229268   2.980   2.897   2.767 -0.1604 -0.5255  0.1786
 2618TIP3    H129269   2.905   2.907   2.826  2.1087  0.6701  2.9947
 2618TIP3    H229270   2.993   2.984   2.730 -0.1559 -0.7259 -0.2885
 2619TIP3   OH229271   2.225   0.646  15.183  0.2734  0.3190  0.9812
 2619TIP3    H129272   2.239   0.620  15.274  0.4973  0.8371  1.0987
 2619TIP3    H229273   2.294   0.601  15.135  0.8921  0.9724  1.2353
 2620TIP3   OH229274   5.952   6.756   4.367  0.1205 -0.0955  0.6420
 2620TIP3    H129275   5.925   6.697   4.437  0.4439  0.0928  0.9262
 2620TIP3    H229276   5.898   6.731   4.292 -0.7139  0.1615  1.1547
 2621TIP3   OH229277   1.515   6.002   4.462  0.1285 -0.3244  0.4001
 2621TIP3    H129278   1.460   6.057   4.518  0.9176 -0.0377  0.9010
 2621TIP3    H229279   1.603   6.038   4.472  0.2094  0.0282 -1.3841
 2622TIP3   OH229280   2.918   0.309   5.838  0.3653  0.3309 -0.0783
 2622TIP3    H129281   2.832   0.270   5.826 -0.3973  1.1630  2.3809
 2622TIP3    H229282   2.956   0.260   5.911  0.8095  1.8437  0.7147
 2623TIP3   OH229283   0.915   3.462   2.443  0.4589  0.1311 -0.3178
 2623TIP3    H129284   0.965   3.412   2.378 -0.8011 -1.8670  0.2184
 2623TIP3    H229285   0.922   3.410   2.523 -2.3503 -0.1105 -0.1982
 2624TIP3   OH229286   0.862   6.780  13.141  0.5385 -0.8937 -0.2333
 2624TIP3    H129287   0.820   6.809  13.061  0.9405 -0.3125 -0.2444
 2624TIP3    H229288   0.955   6.802  13.128  0.3858  0.5953  0.9816
 2625TIP3   OH229289   6.701   6.399  16.697 -0.3080  0.3897 -0.1608
 2625TIP3    H129290   6.675   6.489  16.680 -1.0783  0.0956 -0.5584
 2625TIP3    H229291   6.649   6.347  16.637 -0.8031 -0.4234  0.9463
 2626TIP3   OH229292   3.680   5.488   3.505 -0.1161  0.2410 -0.5255
 2626TIP3    H129293   3.693   5.397   3.481  0.1619 -0.3936  1.8751
 2626TIP3    H229294   3.755   5.534   3.467  0.2043 -0.6553 -0.9952
 2627TIP3   OH229295   1.271   5.899   2.695  0.5506  0.3546  0.0304
 2627TIP3    H129296   1.256   5.964   2.763  3.2319  0.9409  0.1127
 2627TIP3    H229297   1.274   5.949   2.613  0.6362  0.0797 -0.1363
 2628TIP3   OH229298   4.121   4.677  10.858 -0.1375  0.0108  0.5065
 2628TIP3    H129299   4.068   4.684  10.938 -0.7903 -0.0634  0.0895
 2628TIP3    H229300   4.066   4.628  10.798 -1.6205  3.9889 -1.5849
 2629TIP3   OH229301   3.828   1.370  15.689 -0.2363  0.1526 -0.3821
 2629TIP3    H129302   3.899   1.382  15.626  0.3513  0.6464  0.3583
 2629TIP3    H229303   3.843   1.283  15.725  0.7307  0.7173  0.6456
 2630TIP3   OH229304   1.762   1.976   1.885 -0.4194 -0.2804  0.4221
 2630TIP3    H129305   1.809   1.897   1.912  0.1242 -1.4151 -3.5143
 2630TIP3    H229306   1.688   1.943   1.834 -0.9680  1.7272 -0.0998
 2631TIP3   OH229307   1.299   2.010  15.579  0.0852  0.5979  0.4815
 2631TIP3    H129308   1.386   2.001  15.539 -0.1825  2.4997 -0.6103
 2631TIP3    H229309   1.241   1.966  15.518  0.1239  0.3947  0.5907
 2632TIP3   OH229310   3.826   6.605   5.587  0.1589 -0.3617  0.5145
 2632TIP3    H129311   3.818   6.696   5.557 -1.1943 -0.0227  1.8536
 2632TIP3    H229312   3.794   6.606   5.676  0.5356 -2.1021  0.6919
 2633TIP3   OH229313   4.166   6.113  15.425 -0.0020 -0.0903 -0.7305
 2633TIP3    H129314   4.204   6.139  15.341 -0.8542  0.5711 -0.9242
 2633TIP3    H229315   4.241   6.087  15.478  0.7892  1.6943 -0.9269
 2634TIP3   OH229316   0.104   2.315  15.774 -0.0597  0.2222  0.1867
 2634TIP3    H129317   0.144   2.398  15.748 -0.1236  0.0805 -0.3721
 2634TIP3    H229318   0.098   2.264  15.693  0.0150 -0.3465  0.5292
 2635TIP3   OH229319   5.276   4.748   0.981 -0.0225 -0.4969  0.0680
 2635TIP3    H129320   5.327   4.829   0.992  0.5718 -1.1346  2.2754
 2635TIP3    H229321   5.278   4.707   1.068 -0.4435 -2.8082 -0.9939
 2636TIP3   OH229322   4.400   6.185   4.298 -0.4107  0.3157 -0.2703
 2636TIP3    H129323   4.378   6.233   4.217 -0.5567  1.3452  0.3692
 2636TIP3    H229324   4.411   6.094   4.270 -2.0448  0.3886 -1.1871
 2637TIP3   OH229325   0.179   1.488   0.118 -0.3676  0.4770  0.2950
 2637TIP3    H129326   0.195   1.509   0.210 -0.4693  1.1298  0.1628
 2637TIP3    H229327   0.088   1.512   0.102 -0.5445 -0.2550  0.1980
 2638TIP3   OH229328   3.273   2.458  13.091 -0.7271 -0.5169 -1.2885
 2638TIP3    H129329   3.213   2.515  13.140  0.0796 -0.4685 -0.3414
 2638TIP3    H229330   3.216   2.408  13.033 -1.8573 -1.5524  0.6565
 2639TIP3   OH229331   6.456   4.645  11.567  0.0827  0.2714  0.2382
 2639TIP3    H129332   6.428   4.612  11.652  0.4147  0.7816  0.5490
 2639TIP3    H229333   6.524   4.584  11.538 -0.2535 -0.0827  0.1932
 2640TIP3   OH229334   4.549   4.688   4.926  0.0797 -0.8564  0.1399
 2640TIP3    H129335   4.586   4.769   4.963  2.0840 -1.5105 -0.3946
 2640TIP3    H229336   4.539   4.630   5.001 -1.1503 -0.2218  0.4897
 2641TIP3   OH229337   2.733   1.783   5.651 -0.3066 -0.1457  0.1696
 2641TIP3    H129338   2.735   1.688   5.642  1.5063  0.1707 -3.4582
 2641TIP3    H229339   2.640   1.805   5.657 -1.0866 -1.7952 -4.1926
 2642TIP3   OH229340   2.460   1.543   4.254 -0.1631  0.0185  0.2780
 2642TIP3    H129341   2.365   1.530   4.249  0.0724 -3.1578  2.6094
 2642TIP3    H229342   2.482   1.525   4.345  2.8053 -0.2329 -0.4395
 2643TIP3   OH229343   2.418   1.382   4.502  0.3355  0.6319 -0.0109
 2643TIP3    H129344   2.360   1.448   4.539 -0.5488  0.6169 -1.3276
 2643TIP3    H229345   2.458   1.340   4.578 -2.3859 -0.2671  1.0035
 2644TIP3   OH229346   0.995   6.620   4.166  0.2252 -0.0395  0.2036
 2644TIP3    H129347   1.066   6.651   4.110  0.1424  0.9119  0.6255
 2644TIP3    H229348   0.917   6.663   4.131 -0.0339 -0.5068  0.2064
 2645TIP3   OH229349   4.303   3.304  17.103  0.3638  0.5526  0.0636
 2645TIP3    H129350   4.340   3.216  17.099 -1.1706 -0.1537  1.0283
 2645TIP3    H229351   4.375   3.359  17.134  1.1763 -0.4616 -0.0262
 2646TIP3   OH229352   0.818   2.977  13.815  0.0900  0.0365  0.3347
 2646TIP3    H129353   0.837   3.069  13.795  1.3457  0.4838  3.3835
 2646TIP3    H229354   0.752   2.952  13.750  1.4004  2.3858 -2.0177
 2647TIP3   OH229355   0.811   3.452   5.922 -0.1984  0.0413 -0.3882
 2647TIP3    H129356   0.832   3.540   5.890  1.6632  0.3561  1.5256
 2647TIP3    H229357   0.842   3.452   6.013 -1.8597 -2.0031  0.2123
 2648TIP3   OH229358   5.772   6.652  15.973 -0.0922 -0.5722  0.2361
 2648TIP3    H129359   5.687   6.628  16.008 -1.1558  0.5908 -1.4841
 2648TIP3    H229360   5.793   6.735  16.016  1.2215 -1.9011  2.2947
 2649TIP3   OH229361   3.821   1.635   6.368 -0.5611  0.6360  0.4053
 2649TIP3    H129362   3.754   1.636   6.299  0.5944  0.7152 -0.7204
 2649TIP3    H229363   3.856   1.546   6.366  0.3937  1.0132 -0.0124
 2650TIP3   OH229364   0.358   6.079  16.079 -0.1352 -0.1755 -0.4291
 2650TIP3    H129365   0.342   6.065  16.173 -0.2219 -0.5249 -0.4979
 2650TIP3    H229366   0.310   6.159  16.058  1.0032  0.6828  0.1369
 2651TIP3   OH229367   3.061   3.176   2.761  0.3087 -0.1000  0.5027
 2651TIP3    H129368   2.993   3.199   2.824 -0.6582 -3.4178  0.7860
 2651TIP3    H229369   3.141   3.213   2.796 -0.7973  1.0084  1.9039
 2652TIP3   OH229370   4.188   1.999  17.099 -0.0152  0.8287  0.1507
 2652TIP3    H129371   4.221   1.911  17.081  0.7185  0.9781  0.7297
 2652TIP3    H229372   4.105   2.003  17.053 -1.2489 -1.0244  2.0908
 2653TIP3   OH229373   4.992   6.443  14.615  0.0248  0.1592 -0.7827
 2653TIP3    H129374   4.927   6.501  14.575  1.0496  0.4765 -2.0049
 2653TIP3    H229375   5.011   6.377  14.548 -1.4958 -1.9131  0.7712
 2654TIP3   OH229376   0.356   4.842  13.617  0.1224  0.5809 -0.1350
 2654TIP3    H129377   0.362   4.799  13.703 -1.8867 -0.9731 -0.7254
 2654TIP3    H229378   0.427   4.804  13.566 -1.0256 -1.3545 -0.3313
 2655TIP3   OH229379   1.923   4.711  16.824  0.5692 -0.0967 -0.1869
 2655TIP3    H129380   1.974   4.791  16.809 -0.7812  0.7005 -0.6251
 2655TIP3    H229381   1.881   4.694  16.740 -1.3202  0.3003  0.6469
 2656TIP3   OH229382   5.133   5.378  14.073 -0.0182 -0.2139 -0.3377
 2656TIP3    H129383   5.083   5.427  14.007 -0.6184  1.3480  1.2330
 2656TIP3    H229384   5.215   5.426  14.081 -0.6921  0.6993  1.3655
 2657TIP3   OH229385   3.527   4.699   1.538  0.4101  0.4519  0.5195
 2657TIP3    H129386   3.507   4.787   1.505 -0.7701  0.1734  0.4506
 2657TIP3    H229387   3.461   4.684   1.606  1.0198 -0.1244  0.9836
 2658TIP3   OH229388   5.002   0.124   1.902 -0.3034  0.0086 -0.0129
 2658TIP3    H129389   4.961   0.165   1.977  0.3480 -2.2645  1.6395
 2658TIP3    H229390   5.092   0.155   1.903 -0.0947 -0.6179  0.5942
 2659TIP3   OH229391   3.042   4.617  14.891 -0.0217 -0.2782 -0.5496
 2659TIP3    H129392   3.065   4.708  14.910 -0.0204 -0.3203 -0.3527
 2659TIP3    H229393   2.955   4.623  14.852  0.4031 -0.1008 -1.4880
 2660TIP3   OH229394   2.860   2.362   0.014  0.1403 -0.1165  0.0793
 2660TIP3    H129395   2.780   2.336  -0.032 -0.5310  0.1362  1.1069
 2660TIP3    H229396   2.920   2.386  -0.056 -0.4977 -0.8232 -0.7280
 2661TIP3   OH229397   1.811   0.029   0.243  0.1805  0.3514 -0.0199
 2661TIP3    H129398   1.875   0.027   0.315 -0.0824 -0.3729  0.2013
 2661TIP3    H229399   1.736   0.077   0.279 -0.2781 -0.7309  0.4700
 2662TIP3   OH229400   1.057   6.448  12.580 -0.1184  0.5751 -0.3108
 2662TIP3    H129401   1.096   6.360  12.585 -1.2647  0.1087  0.6392
 2662TIP3    H229402   1.023   6.454  12.490 -0.8236 -0.2936 -0.1058
 2663TIP3   OH229403   3.219   4.851   1.655  0.4389 -0.1780  0.2415
 2663TIP3    H129404   3.272   4.827   1.731 -0.1105  0.6682  0.9031
 2663TIP3    H229405   3.162   4.921   1.687  1.0765  1.0544 -1.2936
 2664TIP3   OH229406   1.780   0.397   3.995  0.3560  0.3499  0.0519
 2664TIP3    H129407   1.850   0.345   4.036  0.8626  1.3853  0.5004
 2664TIP3    H229408   1.825   0.446   3.926 -0.0537  0.5431 -0.0760
 2665TIP3   OH229409   1.453   6.360  13.151 -0.4760 -0.1623  0.0277
 2665TIP3    H129410   1.541   6.389  13.173 -0.0398 -2.2212  1.1686
 2665TIP3    H229411   1.408   6.354  13.236 -1.2948 -0.3726 -0.4176
 2666TIP3   OH229412   3.093   4.690  17.138 -0.3721  0.8418  0.1446
 2666TIP3    H129413   3.131   4.607  17.109  0.1854  0.1006  2.8702
 2666TIP3    H229414   3.003   4.667  17.164 -0.3004  1.1327  0.6559
 2667TIP3   OH229415   4.099   4.430  13.665 -0.3075 -0.3818 -0.0298
 2667TIP3    H129416   4.182   4.468  13.695  0.2006 -1.4633 -0.0668
 2667TIP3    H229417   4.112   4.416  13.572  0.0272 -2.0001  0.2565
 2668TIP3   OH229418   5.159   6.421   5.874  0.3479 -0.0561 -0.4072
 2668TIP3    H129419   5.155   6.508   5.914  4.4315  0.6966 -1.4215
 2668TIP3    H229420   5.141   6.436   5.781 -2.9825 -0.9476  0.0216
 2669TIP3   OH229421   4.601   3.310  11.676 -0.1936 -0.2078 -0.0634
 2669TIP3    H129422   4.549   3.353  11.608 -1.3341  0.3204  1.1033
 2669TIP3    H229423   4.631   3.381  11.732 -0.3670 -0.7291  0.7131
 2670TIP3   OH229424   4.387   2.799   3.304  0.1101  0.4157 -0.6852
 2670TIP3    H129425   4.327   2.726   3.284  0.8624  0.0566 -1.6509
 2670TIP3    H229426   4.367   2.821   3.395 -0.2607 -0.8820 -0.4364
 2671TIP3   OH229427   3.483   2.160  15.312  0.1292 -0.2087  0.1133
 2671TIP3    H129428   3.550   2.197  15.255 -1.0414  0.9837 -0.5258
 2671TIP3    H229429   3.497   2.203  15.396 -0.0984  0.3650 -0.1382
 2672TIP3   OH229430   3.377   1.795  16.520  0.3217  0.1398  0.1774
 2672TIP3    H129431   3.350   1.724  16.461  1.8577  1.2807 -1.9755
 2672TIP3    H229432   3.321   1.869  16.496  1.6625  0.9220 -0.6076
 2673TIP3   OH229433   1.207   1.509  14.429  0.1924 -0.3238 -0.1829
 2673TIP3    H129434   1.135   1.556  14.385  1.9446  1.4066 -1.2577
 2673TIP3    H229435   1.216   1.428  14.379 -1.4609 -0.8995  0.3963
 2674TIP3   OH229436   4.484   3.094   5.173  0.4993 -0.3617 -0.6224
 2674TIP3    H129437   4.431   3.148   5.113 -0.2971 -0.8620 -0.3738
 2674TIP3    H229438   4.505   3.153   5.245  0.6675 -0.0263 -0.9411
 2675TIP3   OH229439   5.936   5.486   5.126  0.0407 -0.6501 -0.1490
 2675TIP3    H129440   6.022   5.445   5.131  1.1822  1.5815 -0.5369
 2675TIP3    H229441   5.928   5.512   5.034 -0.0982  1.0122  0.3080
 2676TIP3   OH229442   5.868   0.237   4.293 -0.2699 -0.5562 -0.1455
 2676TIP3    H129443   5.913   0.160   4.329 -0.2138 -0.4063  0.1033
 2676TIP3    H229444   5.929   0.309   4.307 -0.6905 -0.3104  0.4154
 2677TIP3   OH229445   1.374   0.175  16.432  0.0011 -0.2257 -0.1045
 2677TIP3    H129446   1.425   0.254  16.446 -1.2993  0.7822 -0.9679
 2677TIP3    H229447   1.406   0.140  16.349 -2.7795  2.1058 -2.2712
 2678TIP3   OH229448   4.480   1.600   4.629 -0.0577  0.5407 -0.1816
 2678TIP3    H129449   4.414   1.532   4.615 -0.3007  0.4904  1.1098
 2678TIP3    H229450   4.433   1.682   4.614  0.0337  0.4567 -0.9544
 2679TIP3   OH229451   6.394   1.083   0.026  0.4573 -0.2978  0.0665
 2679TIP3    H129452   6.467   1.060  -0.032  0.8720  1.0494  0.0281
 2679TIP3    H229453   6.324   1.023   0.002  1.4816 -1.4626 -0.0527
 2680TIP3   OH229454   4.992   0.735  11.886 -0.2176 -0.3903  0.0411
 2680TIP3    H129455   4.959   0.704  11.802  0.8434 -1.1368 -0.1120
 2680TIP3    H229456   4.936   0.810  11.908  0.1896  0.5102 -1.8634
 2681TIP3   OH229457   4.297   1.628   0.835 -0.8747  0.2146  0.0282
 2681TIP3    H129458   4.258   1.620   0.922 -0.5146 -1.0248  0.0872
 2681TIP3    H229459   4.375   1.573   0.839 -0.6438  0.4612 -0.9611
 2682TIP3   OH229460   1.125   3.591   4.356  0.4574 -0.1322 -0.0406
 2682TIP3    H129461   1.159   3.680   4.347  0.7676 -0.3573 -1.1090
 2682TIP3    H229462   1.201   3.537   4.376  0.4157 -0.3134 -0.3668
 2683TIP3   OH229463   1.049   4.216   4.520 -0.5302  0.1244  0.5190
 2683TIP3    H129464   1.081   4.301   4.487 -2.3558  0.2476 -1.0210
 2683TIP3    H229465   0.958   4.233   4.544 -0.9904 -1.4738 -0.0637
 2684TIP3   OH229466   4.759   5.336  12.998  0.0799 -0.3352 -0.2113
 2684TIP3    H129467   4.740   5.417  13.045  1.3977 -0.6156  0.8496
 2684TIP3    H229468   4.744   5.267  13.063 -3.8094 -1.2083 -1.9013
 2685TIP3   OH229469   6.739   0.729  12.818 -0.7960  0.0589 -0.5001
 2685TIP3    H129470   6.782   0.654  12.860 -0.7262  1.9636  3.0446
 2685TIP3    H229471   6.805   0.766  12.761  0.6316 -0.0345  1.0605
 2686TIP3   OH229472   6.172   0.861  16.334 -0.6051 -0.3314  0.2177
 2686TIP3    H129473   6.205   0.950  16.343 -2.4353  0.3789 -0.0210
 2686TIP3    H229474   6.155   0.851  16.241  0.9434 -1.4332  0.0331
 2687TIP3   OH229475   5.060   1.677  11.790 -0.2241  0.0713 -0.0093
 2687TIP3    H129476   5.098   1.707  11.707  2.0062  0.8174  1.2189
 2687TIP3    H229477   4.983   1.732  11.803  0.7103  1.5250 -0.4906
 2688TIP3   OH229478   2.113   2.842   4.950  0.5980  0.5381 -0.2283
 2688TIP3    H129479   2.046   2.891   4.903 -0.3335 -0.6639 -0.1818
 2688TIP3    H229480   2.097   2.750   4.926 -0.5824 -0.2352  3.2675
 2689TIP3   OH229481   0.218   3.818   6.478  0.1447  0.4591 -0.1179
 2689TIP3    H129482   0.252   3.756   6.542  0.1432 -1.0752 -1.5677
 2689TIP3    H229483   0.268   3.899   6.494 -0.9495  0.5977  2.8077
 2690TIP3   OH229484   5.515   2.057  10.967 -0.1606 -0.7044  0.3789
 2690TIP3    H129485   5.551   2.109  10.895  1.6494 -2.4403 -0.0175
 2690TIP3    H229486   5.444   2.007  10.928 -1.0782  0.5001  0.4769
 2691TIP3   OH229487   0.618   2.287  13.134 -0.4433  0.0698  0.6874
 2691TIP3    H129488   0.625   2.192  13.139  0.6029  0.0405 -0.8904
 2691TIP3    H229489   0.629   2.307  13.041 -0.2353  1.7593  1.0542
 2692TIP3   OH229490   2.077   1.045   2.625  0.0056  0.3113  0.0961
 2692TIP3    H129491   2.036   0.960   2.640 -0.0487  0.3268  0.0365
 2692TIP3    H229492   2.165   1.024   2.594  0.2425  0.2808  0.7815
 2693TIP3   OH229493   2.125   4.630   3.088  0.6552  0.1583 -0.2740
 2693TIP3    H129494   2.074   4.689   3.143  1.5299 -0.1951  0.9376
 2693TIP3    H229495   2.122   4.546   3.134  0.7675 -0.3430 -1.1590
 2694TIP3   OH229496   0.465   2.619   5.051  0.1342 -0.5440 -0.3183
 2694TIP3    H129497   0.482   2.619   5.145 -1.3392  0.9667 -0.0303
 2694TIP3    H229498   0.432   2.707   5.032  0.9458 -0.6632 -2.3496
 2695TIP3   OH229499   0.351   3.586   1.333  0.0775 -0.2893 -0.5508
 2695TIP3    H129500   0.313   3.577   1.246 -0.3118 -0.2869 -0.3824
 2695TIP3    H229501   0.285   3.550   1.392  0.0914  0.2386 -0.2090
 2696TIP3   OH229502   2.309   0.642  13.817  0.0965  0.3691 -0.3119
 2696TIP3    H129503   2.358   0.597  13.748 -0.6945 -1.2425  0.1423
 2696TIP3    H229504   2.218   0.638  13.789  0.0304  1.7648 -0.2923
 2697TIP3   OH229505   0.215   1.038   5.351  0.0270  0.6957 -0.0068
 2697TIP3    H129506   0.123   1.064   5.359  0.0845  0.3183  2.4048
 2697TIP3    H229507   0.220   0.953   5.395  1.2587  0.0267 -1.3946
 2698TIP3   OH229508   0.756   5.586  13.293  0.1651  0.4497  0.1137
 2698TIP3    H129509   0.742   5.544  13.378  0.8922  0.8936  0.4593
 2698TIP3    H229510   0.686   5.651  13.288 -1.8233 -1.6969 -1.0403
 2699TIP3   OH229511   6.483   4.723   5.293 -0.3015 -0.4164  0.2059
 2699TIP3    H129512   6.550   4.655   5.284 -0.5818 -0.8230  1.1938
 2699TIP3    H229513   6.452   4.715   5.383  0.9337  2.2108  0.9048
 2700TIP3   OH229514   5.184   2.007  13.056  0.1738 -0.6272  0.0865
 2700TIP3    H129515   5.100   1.973  13.024  1.1276 -2.1306 -0.8826
 2700TIP3    H229516   5.161   2.054  13.136 -1.6437 -0.7267 -0.3486
 2701TIP3   OH229517   4.087   0.143  13.250  0.2369 -0.0584 -0.7354
 2701TIP3    H129518   4.065   0.104  13.335  0.4465 -2.5177 -1.7477
 2701TIP3    H229519   4.046   0.229  13.251  0.2196 -0.0593  1.8471
 2702TIP3   OH229520   2.931   0.855   3.129  0.0634 -0.1859 -0.3384
 2702TIP3    H129521   3.025   0.869   3.135  0.0064 -0.1459  0.5531
 2702TIP3    H229522   2.892   0.935   3.166 -0.3303  0.2060 -1.5820
 2703TIP3   OH229523   5.383   2.526   4.580  0.5078  0.4490 -0.1430
 2703TIP3    H129524   5.330   2.596   4.618 -1.3877 -1.6668  1.2343
 2703TIP3    H229525   5.361   2.528   4.486 -2.1832 -0.4734  0.4253
 2704TIP3   OH229526   3.415   3.825   2.640 -0.0220  0.1378 -0.0120
 2704TIP3    H129527   3.379   3.874   2.566  1.9884  3.4277  1.0381
 2704TIP3    H229528   3.502   3.864   2.654  0.0241 -1.0351  3.4319
 2705TIP3   OH229529   0.340   2.080   3.527  0.2428  0.7147  0.4593
 2705TIP3    H129530   0.368   1.999   3.485  0.6403  0.9670  0.2342
 2705TIP3    H229531   0.261   2.056   3.576 -0.2227  0.4179 -0.4246
 2706TIP3   OH229532   3.373   4.555  16.044 -0.4595 -0.2675 -0.1254
 2706TIP3    H129533   3.288   4.591  16.070 -0.0173 -0.8057  2.2085
 2706TIP3    H229534   3.436   4.622  16.069  0.1536 -1.5963  2.0372
 2707TIP3   OH229535   2.957   3.928  14.599  0.6758 -0.5692  0.0138
 2707TIP3    H129536   2.924   3.841  14.579 -0.7613  0.4311 -2.1846
 2707TIP3    H229537   2.982   3.965  14.514 -1.4663  2.2111  0.4871
 2708TIP3   OH229538   3.196   2.248  14.868 -0.5660  0.4940  0.1645
 2708TIP3    H129539   3.221   2.179  14.929  0.6470  0.4503 -0.3660
 2708TIP3    H229540   3.105   2.229  14.845 -0.5405 -0.3620  0.7744
 2709TIP3   OH229541   0.464   0.760  11.771  0.8024 -0.6646 -0.1686
 2709TIP3    H129542   0.489   0.766  11.864  1.0979  0.0577 -0.2903
 2709TIP3    H229543   0.545   0.737  11.726  0.8725 -0.0604 -0.3586
 2710TIP3   OH229544   2.951   3.940  15.278 -0.3590  0.1774 -0.8309
 2710TIP3    H129545   2.918   3.887  15.205 -1.5238 -0.4017  0.1137
 2710TIP3    H229546   2.884   4.007  15.291 -0.1915  0.2234 -0.2234
 2711TIP3   OH229547   5.865   5.269   3.691 -0.3906  0.1707  0.1538
 2711TIP3    H129548   5.893   5.360   3.705 -0.7571  0.0160  2.1215
 2711TIP3    H229549   5.929   5.217   3.741  0.6437 -0.7733 -2.0940
 2712TIP3   OH229550   0.501   3.273  16.397  0.2791 -0.4780  0.0988
 2712TIP3    H129551   0.429   3.227  16.440  0.8041 -0.6708  0.7741
 2712TIP3    H229552   0.485   3.365  16.415  1.2387 -0.6471  1.8641
 2713TIP3   OH229553   3.996   3.337  16.963  0.0530  0.2594  0.3386
 2713TIP3    H129554   3.919   3.343  16.907  0.7617  2.7850 -0.4336
 2713TIP3    H229555   3.989   3.412  17.022  1.4635  0.0014  0.8726
 2714TIP3   OH229556   5.269   6.358   1.438  0.1681  0.1622 -0.3349
 2714TIP3    H129557   5.330   6.418   1.480  0.4073 -0.9782  0.9784
 2714TIP3    H229558   5.320   6.316   1.369  0.0590  1.2910 -1.1174
 2715TIP3   OH229559   5.310   5.726  16.364 -0.1250 -0.2427 -0.8347
 2715TIP3    H129560   5.252   5.684  16.300  1.6873 -1.5574 -1.6656
 2715TIP3    H229561   5.399   5.704  16.334  0.8286  2.1982  0.0848
 2716TIP3   OH229562   1.761   2.307   4.331  0.5254  0.0397 -0.5839
 2716TIP3    H129563   1.685   2.333   4.383  1.5888 -1.6336  1.9306
 2716TIP3    H229564   1.732   2.315   4.240 -2.5617 -0.3234  0.3063
 2717TIP3   OH229565   3.614   0.217   4.994  0.4571 -0.4525  0.2174
 2717TIP3    H129566   3.651   0.225   5.082 -2.1487 -0.2201  1.3422
 2717TIP3    H229567   3.520   0.201   5.009 -0.2282  0.7482 -2.5269
 2718TIP3   OH229568   0.177   6.546   1.830  0.1394  0.1822 -0.0393
 2718TIP3    H129569   0.163   6.579   1.741 -1.4001 -2.1984 -0.7367
 2718TIP3    H229570   0.266   6.510   1.828  0.8387  1.8578 -0.0247
 2719TIP3   OH229571   2.262   1.786   5.178 -0.2590  0.3608 -0.0463
 2719TIP3    H129572   2.344   1.826   5.207 -0.4836 -0.0681  1.1856
 2719TIP3    H229573   2.242   1.830   5.095  2.6405 -1.4126 -1.7895
 2720TIP3   OH229574   5.134   4.388   0.892  0.3976 -0.2605  0.7038
 2720TIP3    H129575   5.140   4.341   0.809  0.2298  0.8606  0.0346
 2720TIP3    H229576   5.168   4.327   0.957 -0.9340 -1.7373  0.0527
 2721TIP3   OH229577   5.660   2.215  10.794  0.2198 -0.2281 -0.5856
 2721TIP3    H129578   5.685   2.167  10.716 -0.8663  0.1087 -1.1531
 2721TIP3    H229579   5.731   2.278  10.807  1.2603 -1.4440 -0.2806
 2722TIP3   OH229580   0.613   0.023  12.744  0.1541 -0.3270  0.0273
 2722TIP3    H129581   0.568   0.002  12.826  0.2746  0.9758  0.4380
 2722TIP3    H229582   0.683   0.082  12.769  0.7932 -0.6813 -0.8950
 2723TIP3   OH229583   2.004   4.626  15.462  0.1580  0.7049 -0.4878
 2723TIP3    H129584   2.078   4.687  15.468  1.3523 -0.5520 -2.1423
 2723TIP3    H229585   2.016   4.567  15.536 -0.1842  1.5552  0.2614
 2724TIP3   OH229586   6.390   4.164  12.544  0.0204  0.3822  0.0603
 2724TIP3    H129587   6.452   4.153  12.472 -0.5495 -0.3080 -0.3413
 2724TIP3    H229588   6.345   4.247  12.525  0.4106  0.5851  0.0323
 2725TIP3   OH229589   0.451   2.914  16.368  0.2644 -0.0718  0.5394
 2725TIP3    H129590   0.465   2.942  16.277  0.1996 -1.5249  0.0583
 2725TIP3    H229591   0.414   2.991  16.411 -0.4444  0.4079 -0.8669
 2726TIP3   OH229592   1.164   3.224   4.336 -0.0423 -0.3799  0.0611
 2726TIP3    H129593   1.176   3.251   4.245 -1.7853  0.1150 -0.0429
 2726TIP3    H229594   1.236   3.265   4.383  1.3783 -1.3595 -1.2274
 2727TIP3   OH229595   1.693   6.476   3.937 -0.2787  0.4172  0.2177
 2727TIP3    H129596   1.787   6.488   3.950 -0.5272  0.0459  2.5183
 2727TIP3    H229597   1.686   6.410   3.868  1.1726 -0.7116  1.1368
 2728TIP3   OH229598   1.347   1.100   5.269 -0.7526 -0.0365  0.8245
 2728TIP3    H129599   1.389   1.014   5.274  0.8037  0.6819  0.2861
 2728TIP3    H229600   1.277   1.095   5.334 -0.2905 -1.5044  1.2407
 2729TIP3   OH229601   3.232   5.447  15.640 -0.1824 -0.0034  0.4686
 2729TIP3    H129602   3.162   5.425  15.580 -1.4877  1.2155  1.5126
 2729TIP3    H229603   3.215   5.538  15.665  1.7870  0.3273  0.7107
 2730TIP3   OH229604   0.638   1.268   3.295  0.0197 -0.3488  0.6861
 2730TIP3    H129605   0.543   1.283   3.299  0.3289  1.9367  0.2606
 2730TIP3    H229606   0.652   1.220   3.214 -0.6817  0.1117  0.2879
 2731TIP3   OH229607   4.579   1.091  13.499 -0.1434  0.0409 -0.1568
 2731TIP3    H129608   4.511   1.142  13.544 -0.7273 -1.5425  0.8231
 2731TIP3    H229609   4.548   1.083  13.409 -0.8296  0.0486  0.0788
 2732TIP3   OH229610   5.010   4.149  14.921  0.4633  1.1615  0.4066
 2732TIP3    H129611   5.025   4.097  15.000  2.2938  1.0984  0.0310
 2732TIP3    H229612   5.003   4.239  14.953  3.1162  1.3645  0.4520
 2733TIP3   OH229613   2.156   3.691  16.701  0.1207 -0.0850  0.5108
 2733TIP3    H129614   2.158   3.786  16.717 -0.9924 -0.1704  1.1945
 2733TIP3    H229615   2.223   3.677  16.634 -2.0029  1.6796 -2.1114
 2734TIP3   OH229616   4.445   2.765  12.550 -0.0323 -0.5417  0.1805
 2734TIP3    H129617   4.481   2.852  12.570  1.1561 -1.3099  1.4555
 2734TIP3    H229618   4.412   2.733  12.633  0.0790 -1.5666 -0.1689
 2735TIP3   OH229619   0.873   5.003   6.040 -0.6623 -0.9294  0.1312
 2735TIP3    H129620   0.922   4.950   6.104  1.0225  1.4715  0.9098
 2735TIP3    H229621   0.813   4.941   5.999  1.9150 -3.6853  0.2866
 2736TIP3   OH229622   0.478   2.701  15.546 -0.0680  0.0277 -0.1921
 2736TIP3    H129623   0.505   2.662  15.630 -0.7857 -3.1197 -1.3468
 2736TIP3    H229624   0.405   2.758  15.569  1.7541  1.7087  1.7230
 2737TIP3   OH229625   5.046   0.749   6.055 -0.5050  0.1094 -0.0607
 2737TIP3    H129626   5.062   0.743   5.961 -2.4505 -0.8444 -0.3557
 2737TIP3    H229627   5.089   0.830   6.082  0.6794  0.0198 -1.6223
 2738TIP3   OH229628   4.912   6.415  13.584  0.0565 -0.1390 -0.2653
 2738TIP3    H129629   4.843   6.350  13.589 -2.5821  2.6978  1.7864
 2738TIP3    H229630   4.899   6.458  13.499 -0.4636  0.1151 -0.0577
 2739TIP3   OH229631   3.172   1.032  16.890 -0.3558  0.4336  0.6060
 2739TIP3    H129632   3.078   1.045  16.876 -0.3324  0.4695  0.4884
 2739TIP3    H229633   3.185   0.937  16.879 -0.1794  0.5795 -0.5132
 2740TIP3   OH229634   4.287   4.568  12.899 -0.1256 -0.1864 -0.0566
 2740TIP3    H129635   4.344   4.581  12.823  0.1315 -1.7498 -0.1458
 2740TIP3    H229636   4.222   4.638  12.892  1.0189  0.8411 -0.6539
 2741TIP3   OH229637   3.191   2.538   0.167  0.3607 -0.9385 -0.2394
 2741TIP3    H129638   3.194   2.525   0.072 -3.1179 -1.0276 -0.3971
 2741TIP3    H229639   3.124   2.605   0.180 -0.8963 -2.6160  2.3034
 2742TIP3   OH229640   2.675   6.020   5.813 -0.3510 -0.2715  0.0762
 2742TIP3    H129641   2.675   6.115   5.807  0.8673 -0.3043 -0.7401
 2742TIP3    H229642   2.680   6.001   5.906  0.0112  0.4718  0.2088
 2743TIP3   OH229643   5.064   6.608  12.874 -0.2243 -0.0393 -0.0540
 2743TIP3    H129644   5.050   6.526  12.920 -0.4743 -0.7216 -1.3223
 2743TIP3    H229645   5.153   6.601  12.838 -0.3965  0.0699 -0.5112
 2744TIP3   OH229646   1.331   4.723  11.844  0.2522 -0.2300 -0.2989
 2744TIP3    H129647   1.294   4.776  11.773  2.9088  1.2220 -0.6762
 2744TIP3    H229648   1.259   4.712  11.906 -1.0516  1.8106 -1.3854
 2745TIP3   OH229649   5.877   4.691  14.866 -0.2473  0.1965  0.4194
 2745TIP3    H129650   5.874   4.616  14.926  1.0223 -0.3370 -0.1577
 2745TIP3    H229651   5.808   4.750  14.898 -0.7352 -0.8503  1.3588
 2746TIP3   OH229652   0.469   0.246  13.706 -0.6641 -0.1258 -0.3888
 2746TIP3    H129653   0.451   0.152  13.703 -0.9478 -0.0687 -0.4709
 2746TIP3    H229654   0.529   0.257  13.780 -3.8198  0.1579  2.2535
 2747TIP3   OH229655   4.185   3.377   3.359 -0.3865  0.9614 -0.2815
 2747TIP3    H129656   4.113   3.422   3.403 -1.9983 -1.6950 -0.0726
 2747TIP3    H229657   4.208   3.306   3.419  0.6421  0.2050 -1.5542
 2748TIP3   OH229658   5.082   3.490   0.655  0.4766 -0.0040 -0.2231
 2748TIP3    H129659   5.017   3.433   0.615 -1.1679  1.1766  0.7276
 2748TIP3    H229660   5.126   3.435   0.720 -1.2410 -0.1702  0.8291
 2749TIP3   OH229661   2.982   4.232  15.053  0.2299 -0.0801 -0.2462
 2749TIP3    H129662   3.039   4.164  15.089  0.1470  0.0529  0.1436
 2749TIP3    H229663   2.925   4.186  14.992  1.0633 -0.1381 -0.9986
 2750TIP3   OH229664   5.525   5.911  11.838  0.1757 -0.3314  0.5691
 2750TIP3    H129665   5.585   5.870  11.776  0.7228 -0.6436  1.2963
 2750TIP3    H229666   5.579   5.931  11.915  0.1447  2.6910 -0.1505
 2751TIP3   OH229667   2.952   5.952   1.664 -0.3366  0.1659 -0.1701
 2751TIP3    H129668   2.923   5.861   1.659  0.6648 -0.2862  1.8666
 2751TIP3    H229669   3.027   5.956   1.605 -0.1254 -0.4401  0.0581
 2752TIP3   OH229670   2.281   1.448   3.171 -0.2602  0.3060 -0.3930
 2752TIP3    H129671   2.219   1.383   3.204  0.7113 -0.2501  0.3747
 2752TIP3    H229672   2.291   1.427   3.079 -0.9472  0.1863 -0.4432
 2753TIP3   OH229673   1.764   2.352  11.187 -0.1064  0.3727 -0.0754
 2753TIP3    H129674   1.728   2.294  11.120  1.5628  0.9383 -1.4808
 2753TIP3    H229675   1.769   2.437  11.145 -0.5119  1.0919  1.2992
 2754TIP3   OH229676   1.936   3.423   2.262 -0.4474 -0.5524  0.0140
 2754TIP3    H129677   1.960   3.461   2.346 -1.1520 -0.9373  0.3888
 2754TIP3    H229678   1.842   3.440   2.254 -0.4959 -1.0325 -0.4303
 2755TIP3   OH229679   6.033   4.889   1.908 -0.7785  0.1928 -0.1654
 2755TIP3    H129680   6.060   4.818   1.967  2.2753  0.9919 -0.5042
 2755TIP3    H229681   6.021   4.846   1.823  2.0517  0.1749 -0.6089
 2756TIP3   OH229682   4.358   0.693  12.103  0.0300  0.0224 -0.0808
 2756TIP3    H129683   4.370   0.680  12.009  2.1945 -0.4682  0.2306
 2756TIP3    H229684   4.351   0.605  12.139 -2.8642  0.2412  0.0143
 2757TIP3   OH229685   3.019   5.865   3.694  0.3990  0.6360  0.3864
 2757TIP3    H129686   3.095   5.838   3.745  0.2035 -2.2488 -0.7703
 2757TIP3    H229687   2.946   5.858   3.756  0.2103 -2.5564 -0.0889
 2758TIP3   OH229688   6.639   1.832   5.646 -0.0464 -0.1812 -0.3493
 2758TIP3    H129689   6.559   1.779   5.649 -0.2470  0.1326 -0.1095
 2758TIP3    H229690   6.608   1.921   5.628  0.1498  0.1460  0.8636
 2759TIP3   OH229691   5.359   3.313   4.799 -0.6399  0.3473 -0.0988
 2759TIP3    H129692   5.286   3.317   4.861 -1.7123  0.1203 -1.3172
 2759TIP3    H229693   5.340   3.235   4.745  0.4406  0.3556 -0.4965
 2760TIP3   OH229694   0.489   3.368   2.409 -0.5684 -0.8596 -0.6766
 2760TIP3    H129695   0.572   3.338   2.372 -1.0918 -1.6354 -1.2622
 2760TIP3    H229696   0.430   3.373   2.334 -0.8714  0.3276 -0.3624
 2761TIP3   OH229697   5.386   4.998  11.918  0.6142 -0.2484 -0.0037
 2761TIP3    H129698   5.385   4.970  11.827  0.1493 -0.5876  0.1025
 2761TIP3    H229699   5.299   4.976  11.951  1.6294 -2.5572  1.2547
 2762TIP3   OH229700   3.230   0.593  14.992 -0.4332  0.2419 -0.5923
 2762TIP3    H129701   3.171   0.656  14.951 -1.2760  0.0095  0.2389
 2762TIP3    H229702   3.194   0.508  14.967  0.4670  0.0849 -1.3787
 2763TIP3   OH229703   2.023   6.070   3.402 -0.0990 -0.2602  0.3829
 2763TIP3    H129704   2.020   6.071   3.307 -0.7060 -0.8301  0.3976
 2763TIP3    H229705   1.990   6.156   3.428 -0.1042 -0.1728  0.0850
 2764TIP3   OH229706   2.968   0.311   1.311  0.1364 -0.3141  0.3431
 2764TIP3    H129707   3.011   0.374   1.368  1.0590  0.3054 -1.0141
 2764TIP3    H229708   2.875   0.320   1.330  0.2164  1.8360 -0.2070
 2765TIP3   OH229709   1.589   0.373  15.360  0.2830  0.2456  0.6033
 2765TIP3    H129710   1.617   0.306  15.297  0.7498 -0.5910  1.6971
 2765TIP3    H229711   1.503   0.400  15.329  0.2871 -0.5390 -0.0986
 2766TIP3   OH229712   2.447   2.889   5.848  0.6550 -0.4116 -0.0215
 2766TIP3    H129713   2.505   2.939   5.905  0.2781  0.5041 -0.4312
 2766TIP3    H229714   2.388   2.844   5.909  1.2545 -0.6742  0.3653
 2767TIP3   OH229715   0.619   4.793  15.138 -0.4046 -0.0549  0.3094
 2767TIP3    H129716   0.710   4.776  15.113 -0.5775 -1.2991  0.5040
 2767TIP3    H229717   0.568   4.734  15.082 -1.2682  2.3209 -1.5095
 2768TIP3   OH229718   2.840   3.649  14.221  0.8512 -0.0639 -0.5142
 2768TIP3    H129719   2.857   3.558  14.198 -0.0159 -0.1153 -0.9604
 2768TIP3    H229720   2.763   3.645  14.278  2.3125  0.1628  1.5420
 2769TIP3   OH229721   1.411   2.955  12.783  0.2250  0.2055 -0.5140
 2769TIP3    H129722   1.497   2.945  12.742  0.8971 -0.8613  1.1402
 2769TIP3    H229723   1.354   2.895  12.735  0.7838 -0.3055 -0.5404
 2770TIP3   OH229724   0.844   4.250  12.993  0.4192  0.3637  0.4384
 2770TIP3    H129725   0.794   4.330  13.011  0.4755  0.2858  0.9473
 2770TIP3    H229726   0.919   4.279  12.942  0.3053  0.6034  0.4080
 2771TIP3   OH229727   5.486   0.979  15.086 -0.1122 -0.6827  0.7712
 2771TIP3    H129728   5.564   0.927  15.104  0.7709  0.4551  0.2696
 2771TIP3    H229729   5.444   0.935  15.012 -0.9120 -2.3190  2.1608
 2772TIP3   OH229730   1.105   0.978  11.422  0.1709 -0.3285  0.2029
 2772TIP3    H129731   1.111   0.883  11.432 -0.5369 -0.4178 -0.1448
 2772TIP3    H229732   1.056   1.007  11.498  2.5002  0.0555  1.5793
 2773TIP3   OH229733   3.001   4.526   3.936 -0.0757  0.2442 -0.1684
 2773TIP3    H129734   3.035   4.470   4.006  0.6380  1.7688  0.7367
 2773TIP3    H229735   3.047   4.497   3.857 -0.4933 -1.1298  0.0822
 2774TIP3   OH229736   5.345   2.977   0.916 -0.4099  0.2795 -0.2028
 2774TIP3    H129737   5.334   3.046   0.981  0.0570  1.0083 -0.8943
 2774TIP3    H229738   5.262   2.930   0.916 -0.6358  0.6734  0.4525
 2775TIP3   OH229739   1.529   1.088  16.020  0.6777 -0.0070  0.1335
 2775TIP3    H129740   1.489   1.036  16.090  1.5233  2.1678  2.3219
 2775TIP3    H229741   1.540   1.027  15.948 -0.3883 -2.3030  1.8495
 2776TIP3   OH229742   4.827   5.843   3.527 -0.5968 -0.2316 -0.7360
 2776TIP3    H129743   4.856   5.841   3.436  0.2252  1.1678 -0.5297
 2776TIP3    H229744   4.733   5.859   3.522 -0.5253  0.0231 -1.3471
 2777TIP3   OH229745   2.487   1.725  16.460  0.3980 -0.5006 -0.6323
 2777TIP3    H129746   2.413   1.676  16.498  1.4531  0.1717  2.4055
 2777TIP3    H229747   2.460   1.741  16.370 -1.3909 -3.8441 -0.7948
 2778TIP3   OH229748   1.906   6.596  12.939  0.3955 -0.2245  0.4050
 2778TIP3    H129749   1.935   6.566  12.853 -0.4291 -0.3582  0.1739
 2778TIP3    H229750   1.828   6.544  12.958  0.0184  0.4818  0.8111
 2779TIP3   OH229751   4.568   0.436   2.457 -0.7592  0.2311  0.2626
 2779TIP3    H129752   4.491   0.488   2.480 -1.6353  0.7063 -3.4501
 2779TIP3    H229753   4.619   0.492   2.398 -0.4875 -2.1545 -1.8471
 2780TIP3   OH229754   2.209   1.916   3.011 -0.1506  0.3268 -0.3182
 2780TIP3    H129755   2.286   1.969   2.990 -0.1795  0.5297  0.0790
 2780TIP3    H229756   2.237   1.862   3.085  0.2818 -1.1415 -1.5496
 2781TIP3   OH229757   3.468   3.231   1.555  0.2560 -0.1486 -0.9892
 2781TIP3    H129758   3.492   3.314   1.596  1.5268 -0.3960 -1.2189
 2781TIP3    H229759   3.488   3.165   1.621  2.4141 -0.5615 -2.0213
 2782TIP3   OH229760   1.138   4.211  11.033  0.0723  0.2447  0.8682
 2782TIP3    H129761   1.165   4.301  11.012 -0.2003  0.3212  0.8501
 2782TIP3    H229762   1.043   4.214  11.033  0.0625  0.1913  1.8697
 2783TIP3   OH229763   0.168   6.668  11.360  0.2334  0.1792 -0.5506
 2783TIP3    H129764   0.135   6.727  11.429  0.5158 -2.2161  1.7210
 2783TIP3    H229765   0.257   6.646  11.389 -0.1471 -1.9537 -0.9425
 2784TIP3   OH229766   0.348   4.466   0.697 -0.3042  0.0560 -0.2442
 2784TIP3    H129767   0.405   4.455   0.621 -0.1283  1.3654 -0.3120
 2784TIP3    H229768   0.402   4.513   0.760 -0.3764 -1.2032  0.7861
 2785TIP3   OH229769   3.412   0.746  12.137 -0.2664 -0.1075 -0.0881
 2785TIP3    H129770   3.390   0.794  12.058 -0.8689 -2.0488 -1.1291
 2785TIP3    H229771   3.361   0.665  12.131  3.0169 -2.2984  0.0863
 2786TIP3   OH229772   2.704   1.111  12.835  0.1802 -0.1821  0.1237
 2786TIP3    H129773   2.751   1.048  12.781  1.2291  0.5464  0.1552
 2786TIP3    H229774   2.614   1.108  12.804  0.2262 -1.6725  0.1120
 2787TIP3   OH229775   4.080   6.071   0.960  0.1908 -0.0444  0.3045
 2787TIP3    H129776   4.046   6.013   0.892 -1.7705  1.5620 -0.1238
 2787TIP3    H229777   4.147   6.019   1.004  1.2007 -1.2678 -2.5527
 2788TIP3   OH229778   4.393   6.481  10.864  0.3676 -0.2042  0.2007
 2788TIP3    H129779   4.442   6.409  10.903  0.4216  0.2367  0.9639
 2788TIP3    H229780   4.368   6.449  10.778  0.1203 -1.2470  0.6509
 2789TIP3   OH229781   2.537   1.130   4.418 -0.0790  0.0105 -0.6743
 2789TIP3    H129782   2.528   1.079   4.338 -1.3821  1.1161 -1.2623
 2789TIP3    H229783   2.497   1.214   4.397 -1.1766  0.0421  1.3615
 2790TIP3   OH229784   1.851   3.692  10.454  0.1325 -0.2150  0.5729
 2790TIP3    H129785   1.784   3.665  10.392  1.8555 -3.1208 -0.1440
 2790TIP3    H229786   1.817   3.772  10.494 -1.1902  1.6114 -3.8554
 2791TIP3   OH229787   5.461   4.324   0.741 -0.2856 -0.3408  0.0412
 2791TIP3    H129788   5.427   4.290   0.823  0.5738 -2.0494 -0.2889
 2791TIP3    H229789   5.439   4.257   0.676 -1.0862  1.0436 -1.1707
 2792TIP3   OH229790   6.090   3.046  14.617 -0.4610  0.6040  0.1062
 2792TIP3    H129791   6.128   3.086  14.539  0.0543  0.6522  0.3784
 2792TIP3    H229792   6.122   3.100  14.690 -0.8088  0.4651  0.3614
 2793TIP3   OH229793   3.827   3.593   5.324  0.0010  0.4193 -0.3668
 2793TIP3    H129794   3.912   3.636   5.310  0.0438  0.1169 -1.1043
 2793TIP3    H229795   3.849   3.510   5.367 -0.1648  1.5450  1.9169
 2794TIP3   OH229796   5.624   0.994   1.026  0.6435 -0.1714  0.3120
 2794TIP3    H129797   5.645   0.962   0.939 -0.4792  0.8946 -0.3626
 2794TIP3    H229798   5.656   1.085   1.027 -0.1424  0.1080  0.6986
 2795TIP3   OH229799   0.114   6.525   6.333 -0.0839  0.4919  0.3411
 2795TIP3    H129800   0.115   6.570   6.418 -0.5428 -0.1930  0.7196
 2795TIP3    H229801   0.028   6.545   6.296 -0.7241 -0.9541  1.0053
 2796TIP3   OH229802   3.346   5.411  13.077 -0.3613 -0.1821  0.2732
 2796TIP3    H129803   3.333   5.505  13.065 -1.8472 -0.4148 -0.0123
 2796TIP3    H229804   3.322   5.394  13.168  0.0446 -0.2669  0.3671
 2797TIP3   OH229805   0.191   3.888   2.604  0.2427 -0.2036  0.1099
 2797TIP3    H129806   0.274   3.932   2.583  0.6013 -1.2425 -0.7030
 2797TIP3    H229807   0.127   3.959   2.611  0.8209  0.4541 -1.1442
 2798TIP3   OH229808   1.183   2.157  11.690 -0.4208 -0.4579  0.7561
 2798TIP3    H129809   1.260   2.203  11.724  0.0707 -1.3640  0.8973
 2798TIP3    H229810   1.210   2.125  11.604 -1.0142  0.1712  0.3360
 2799TIP3   OH229811   6.712   4.709   1.261  0.1282 -0.0522  0.3682
 2799TIP3    H129812   6.691   4.676   1.174 -0.9843  0.2315  0.5267
 2799TIP3    H229813   6.775   4.780   1.245 -0.5754  0.4469 -0.2564
 2800TIP3   OH229814   6.346   5.471  15.522 -0.1499  0.3604  0.3310
 2800TIP3    H129815   6.319   5.379  15.524  0.1259  0.2264 -1.6144
 2800TIP3    H229816   6.349   5.497  15.614 -1.4300 -1.2223  0.8343
 2801TIP3   OH229817   3.121   3.547  14.090  0.2396  0.3647  0.3696
 2801TIP3    H129818   3.071   3.465  14.087  0.8354  0.0072  0.0344
 2801TIP3    H229819   3.131   3.565  14.184 -1.0517  0.7792  0.4335
 2802TIP3   OH229820   0.522   2.607  13.460 -0.1597 -0.2184 -0.4801
 2802TIP3    H129821   0.614   2.619  13.485 -0.3053  0.5833 -0.3337
 2802TIP3    H229822   0.516   2.644  13.373 -0.1868 -0.9192 -0.7796
 2803TIP3   OH229823   4.648   4.044   1.772 -0.9826 -0.0671  0.4454
 2803TIP3    H129824   4.647   4.102   1.848 -0.7375 -0.7803  0.9971
 2803TIP3    H229825   4.556   4.019   1.761 -1.2358  1.1418 -0.3608
 2804TIP3   OH229826   3.092   2.353   4.768  0.2393 -0.0430 -0.3920
 2804TIP3    H129827   3.148   2.298   4.713 -1.1552 -1.5830 -0.2982
 2804TIP3    H229828   3.115   2.328   4.858 -0.0617 -0.1626 -0.3457
 2805TIP3   OH229829   5.361   0.046   6.840  0.2290  0.2280 -0.3698
 2805TIP3    H129830   5.315  -0.016   6.785  0.0752 -0.8208  0.9260
 2805TIP3    H229831   5.429   0.083   6.783 -1.2578  0.7382 -1.8621
 2806TIP3   OH229832   1.929   1.390   0.690 -0.3356  0.2745 -0.0583
 2806TIP3    H129833   1.925   1.313   0.747  0.4094 -1.5777 -2.4083
 2806TIP3    H229834   2.014   1.383   0.648 -0.4019  2.2508 -0.5321
 2807TIP3   OH229835   4.270   2.638  14.945  0.1079  0.1204 -0.3939
 2807TIP3    H129836   4.192   2.584  14.954 -0.1750  0.4627 -0.7644
 2807TIP3    H229837   4.267   2.699  15.019 -0.0498  0.2236 -0.4852
 2808TIP3   OH229838   2.031   6.738   1.298  0.0189  0.3172  0.7333
 2808TIP3    H129839   2.124   6.716   1.289  0.2392  1.3048  0.5781
 2808TIP3    H229840   2.031   6.831   1.321 -0.9663  0.5151 -0.0989
 2809TIP3   OH229841   0.282   2.970  11.928  0.0523 -0.0988  0.0961
 2809TIP3    H129842   0.357   3.003  11.878  0.0562 -0.4968 -0.1639
 2809TIP3    H229843   0.217   3.040  11.923  0.0583 -0.1328 -0.4570
 2810TIP3   OH229844   6.175   0.514  14.306  0.5369 -0.3176  0.4951
 2810TIP3    H129845   6.117   0.576  14.351 -0.8814 -0.4699 -1.0634
 2810TIP3    H229846   6.136   0.428  14.323  0.8223 -0.5018  0.2253
 2811TIP3   OH229847   0.695   5.994  13.617  0.3230 -0.2214 -0.4765
 2811TIP3    H129848   0.742   6.027  13.693 -1.1050 -1.8921  1.1810
 2811TIP3    H229849   0.682   6.070  13.561  1.7292  0.9467  0.7769
 2812TIP3   OH229850   0.178   0.360  13.171 -0.0322 -0.0973 -0.0185
 2812TIP3    H129851   0.243   0.425  13.197 -0.3654 -0.7691  2.7247
 2812TIP3    H229852   0.229   0.281  13.151  0.2265  0.3841 -1.2601
 2813TIP3   OH229853   5.447   6.498   1.571 -0.2460  0.2080 -0.2255
 2813TIP3    H129854   5.486   6.437   1.633 -0.4674  0.6889  0.3814
 2813TIP3    H229855   5.522   6.540   1.528 -0.0868 -0.8444 -1.0045
 2814TIP3   OH229856   5.874   2.350  10.801 -0.2865  0.1404 -0.0886
 2814TIP3    H129857   5.879   2.430  10.748  0.3232  0.2545  0.1353
 2814TIP3    H229858   5.933   2.367  10.875 -0.9493 -0.1088  0.5067
 2815TIP3   OH229859   2.011   4.609   6.390 -0.5967 -0.5942 -0.0646
 2815TIP3    H129860   1.998   4.522   6.428 -0.3993 -1.6215 -2.3261
 2815TIP3    H229861   2.105   4.614   6.373 -0.4560  0.4535  0.9401
 2816TIP3   OH229862   6.016   0.864   2.343 -0.1681  0.3574  0.2748
 2816TIP3    H129863   5.929   0.900   2.329 -0.5905 -0.6118  0.3680
 2816TIP3    H229864   6.008   0.809   2.421  0.1220 -1.0539 -0.6819
 2817TIP3   OH229865   5.818   3.141  12.075  0.0091 -0.3931  0.2655
 2817TIP3    H129866   5.822   3.113  12.166 -0.3379  0.5543  0.5760
 2817TIP3    H229867   5.753   3.211  12.074  0.3847 -0.0470 -0.6167
 2818TIP3   OH229868   5.519   0.075   6.054 -0.4462 -0.4706  0.0143
 2818TIP3    H129869   5.501  -0.010   6.014 -1.4533 -0.3150  0.1250
 2818TIP3    H229870   5.559   0.054   6.138 -1.7461 -0.8669  0.5493
 2819TIP3   OH229871   0.585   0.415   5.216  0.3015  0.9013 -0.0052
 2819TIP3    H129872   0.604   0.496   5.168  1.8594  0.3403 -0.3521
 2819TIP3    H229873   0.671   0.376   5.232 -0.5493 -1.7089 -1.6400
 2820TIP3   OH229874   6.263   1.917   3.268 -0.0525 -0.1793 -0.0176
 2820TIP3    H129875   6.200   1.982   3.237  1.4334  2.2409  1.8640
 2820TIP3    H229876   6.215   1.864   3.331 -0.8350  0.1201 -0.3596
 2821TIP3   OH229877   6.691   6.383   3.252 -0.1727  0.3954  0.4289
 2821TIP3    H129878   6.743   6.446   3.201 -0.6403  0.4890  0.0640
 2821TIP3    H229879   6.626   6.436   3.297  0.5385  0.3664  1.5125
 2822TIP3   OH229880   6.017   3.187  14.152 -0.2541  0.9010 -0.7751
 2822TIP3    H129881   5.954   3.191  14.080 -0.3525 -0.4278 -0.7839
 2822TIP3    H229882   5.967   3.216  14.229 -0.2417  1.9957 -1.1751
 2823TIP3   OH229883   2.851   6.239  15.930  0.2573  0.0951 -0.2309
 2823TIP3    H129884   2.780   6.289  15.891 -0.4792 -0.8803 -0.1750
 2823TIP3    H229885   2.881   6.292  16.004 -2.2469 -0.7037  1.4180
 2824TIP3   OH229886   1.867   3.652  16.642  0.3330  0.3047 -0.6302
 2824TIP3    H129887   1.872   3.602  16.561  3.1407  1.0949 -1.0102
 2824TIP3    H229888   1.958   3.662  16.669 -0.4476  1.7234  1.5946
 2825TIP3   OH229889   5.872   0.668  10.600  0.3912 -0.0686  0.4007
 2825TIP3    H129890   5.781   0.666  10.570 -0.2039  0.6160  2.0849
 2825TIP3    H229891   5.879   0.749  10.650  2.4165  0.7521 -1.1281
 2826TIP3   OH229892   4.269   3.128  16.606 -0.0508 -0.1966  0.2627
 2826TIP3    H129893   4.329   3.158  16.537  0.1667  1.3821  1.1161
 2826TIP3    H229894   4.327   3.089  16.672 -0.2857 -2.0218 -0.5776
 2827TIP3   OH229895   0.259   3.802   5.340  0.2377  0.3738  0.2730
 2827TIP3    H129896   0.217   3.833   5.260 -2.4065  0.2354  1.5472
 2827TIP3    H229897   0.303   3.880   5.375 -1.3631  1.2549  0.3693
 2828TIP3   OH229898   4.392   6.160  12.977  0.2358  0.6588 -0.8759
 2828TIP3    H129899   4.482   6.129  12.978  0.0121 -0.0027 -0.9500
 2828TIP3    H229900   4.370   6.173  13.069  0.6665  1.5838 -0.9015
 2829TIP3   OH229901   2.914   0.400   5.053 -0.1504 -0.5355 -0.2094
 2829TIP3    H129902   2.835   0.404   5.107 -1.9714 -1.0697 -2.7435
 2829TIP3    H229903   2.941   0.308   5.058  0.8696 -0.1715  1.3754
 2830TIP3   OH229904   5.844   4.320   3.322  0.0944  0.4245 -0.0574
 2830TIP3    H129905   5.821   4.398   3.372  1.9581  1.1252 -0.2867
 2830TIP3    H229906   5.828   4.344   3.231  1.1890  0.7180 -0.1711
 2831TIP3   OH229907   0.417   5.497   2.248  0.3125 -0.0053 -0.5701
 2831TIP3    H129908   0.431   5.404   2.231  1.7765  0.3342 -1.2897
 2831TIP3    H229909   0.324   5.511   2.229  0.1486 -1.2723 -0.7113
 2832TIP3   OH229910   3.490   4.616   3.180  0.5406  0.2252 -0.0679
 2832TIP3    H129911   3.538   4.538   3.153 -0.3064  0.7403 -3.2927
 2832TIP3    H229912   3.400   4.601   3.152 -0.5016  0.7456  2.7973
 2833TIP3   OH229913   6.031   0.601   2.563 -0.6592  0.2814 -0.3525
 2833TIP3    H129914   6.078   0.606   2.646  0.9261 -1.4120 -1.1131
 2833TIP3    H229915   5.959   0.664   2.572  0.3034  1.1190  1.7643
 2834TIP3   OH229916   2.182   6.113  11.620 -0.1562  0.0160  0.3531
 2834TIP3    H129917   2.142   6.180  11.564 -0.3049 -0.0290  0.4053
 2834TIP3    H229918   2.182   6.034  11.566  0.0952  0.0769  0.2629
 2835TIP3   OH229919   3.532   0.427  17.098 -0.5663 -0.3494  0.1923
 2835TIP3    H129920   3.612   0.466  17.064  0.4620 -0.2803  2.5661
 2835TIP3    H229921   3.463   0.489  17.074  0.2500  0.1565 -0.8755
 2836TIP3   OH229922   0.079   6.328   5.035  0.5372 -0.7017  0.2631
 2836TIP3    H129923   0.119   6.415   5.028  0.1484 -0.5837 -0.5390
 2836TIP3    H229924   0.059   6.318   5.129 -0.3837  0.5087  0.2076
 2837TIP3   OH229925   2.254   5.783  16.624  0.4810 -0.1766 -0.0696
 2837TIP3    H129926   2.239   5.859  16.680  0.6983 -0.9806  1.0982
 2837TIP3    H229927   2.343   5.756  16.645  0.3552 -0.8232 -0.3841
 2838TIP3   OH229928   4.807   2.218  15.156 -0.3152 -0.2898  0.1061
 2838TIP3    H129929   4.727   2.171  15.180  0.6630 -1.1151  1.8426
 2838TIP3    H229930   4.866   2.206  15.231  0.6561  2.1355 -0.2159
 2839TIP3   OH229931   1.015   6.473  14.515  0.6915  0.6079  0.2338
 2839TIP3    H129932   0.977   6.397  14.471  0.4377 -0.0949  1.6577
 2839TIP3    H229933   0.955   6.545  14.494 -1.3336 -0.4375  2.2596
 2840TIP3   OH229934   1.091   4.823   4.893 -0.0529 -0.2416  0.0541
 2840TIP3    H129935   1.164   4.762   4.901  2.7926  2.8734 -0.8404
 2840TIP3    H229936   1.048   4.820   4.978  1.5657 -1.6754  0.8536
 2841TIP3   OH229937   3.848   2.513  14.607  0.2761 -0.1384 -0.3798
 2841TIP3    H129938   3.766   2.562  14.611  0.6277  0.3461  1.0874
 2841TIP3    H229939   3.915   2.575  14.634  0.8726 -1.1166  0.4389
 2842TIP3   OH229940   0.504   4.643  11.748 -0.6667  0.2354  0.0545
 2842TIP3    H129941   0.570   4.709  11.768 -0.2851  0.4569 -1.8083
 2842TIP3    H229942   0.523   4.570  11.807  1.8459 -0.0872 -1.1069
 2843TIP3   OH229943   0.968   2.993  16.613  0.2528 -0.3143  0.2738
 2843TIP3    H129944   0.909   2.961  16.544  0.2168 -1.3458  0.7746
 2843TIP3    H229945   0.940   2.946  16.691  1.7500 -0.8156  0.5183
 2844TIP3   OH229946   2.380   5.334  15.443  0.3557 -0.0951  0.0733
 2844TIP3    H129947   2.384   5.403  15.377 -0.6810  1.0992  1.2440
 2844TIP3    H229948   2.472   5.316  15.464  0.6269  0.9180 -0.2413
 2845TIP3   OH229949   5.871   2.563   4.990  0.5506 -0.4259  0.3663
 2845TIP3    H129950   5.934   2.514   5.042  1.5203  0.4293 -0.0052
 2845TIP3    H229951   5.803   2.498   4.969  2.3649 -1.9214 -1.0569
 2846TIP3   OH229952   6.110   2.202   3.141  0.0295 -0.5544 -0.2870
 2846TIP3    H129953   6.113   2.135   3.072 -0.8791 -0.8494 -0.0509
 2846TIP3    H229954   6.016   2.217   3.155  0.1872 -1.1020  1.4661
 2847TIP3   OH229955   5.627   3.717  11.515  0.4854  0.3649  0.5627
 2847TIP3    H129956   5.706   3.681  11.474 -0.9735 -2.4002  0.1212
 2847TIP3    H229957   5.658   3.750  11.600  2.3329  0.3974 -0.0960
 2848TIP3   OH229958   0.094   6.659  16.175 -0.2128 -0.2983 -0.1899
 2848TIP3    H129959   0.121   6.572  16.204  1.8157  0.7841  1.3829
 2848TIP3    H229960   0.175   6.700  16.146 -0.8433  1.6269  0.6733
 2849TIP3   OH229961   0.635   4.189   5.201  0.0825  0.0090  0.1187
 2849TIP3    H129962   0.551   4.187   5.247  0.5879  1.0214  1.1127
 2849TIP3    H229963   0.700   4.190   5.271  0.9017  0.2748 -0.6456
 2850TIP3   OH229964   3.447   5.497   2.199  0.5650  0.4296  0.5482
 2850TIP3    H129965   3.529   5.527   2.159  2.2120 -0.6780  2.9560
 2850TIP3    H229966   3.441   5.547   2.281 -1.1200  0.3951  0.4645
 2851TIP3   OH229967   5.706   0.829   3.107  0.1429 -0.2453 -0.1630
 2851TIP3    H129968   5.770   0.891   3.142 -0.4334  0.0385  0.4123
 2851TIP3    H229969   5.626   0.880   3.098 -0.0138 -0.6113 -0.8289
 2852TIP3   OH229970   3.350   1.479  10.762 -0.3880 -0.1347  0.1533
 2852TIP3    H129971   3.309   1.417  10.700 -0.8815 -0.5386  0.8730
 2852TIP3    H229972   3.403   1.423  10.818 -0.2079  0.1956  0.3053
 2853TIP3   OH229973   0.606   0.187   4.103 -0.2710  0.6502 -0.2013
 2853TIP3    H129974   0.602   0.277   4.071  0.0528  1.1030  0.9733
 2853TIP3    H229975   0.602   0.196   4.199  1.4139 -0.4770  0.0005
 2854TIP3   OH229976   2.742   2.375  11.787  0.2082  0.5574  0.0089
 2854TIP3    H129977   2.792   2.333  11.717  1.6575  3.6949 -0.9353
 2854TIP3    H229978   2.803   2.379  11.861  0.8138  2.7079 -0.5542
 2855TIP3   OH229979   2.721   1.977   4.155 -0.2261  0.3008 -0.0142
 2855TIP3    H129980   2.694   1.928   4.232 -1.7186  0.2619 -0.5502
 2855TIP3    H229981   2.785   1.920   4.111 -0.8024 -0.4984  0.1803
 2856TIP3   OH229982   2.487   3.988   4.197 -0.2780  0.1869 -0.3119
 2856TIP3    H129983   2.444   4.071   4.179  0.1295  0.2021 -1.2779
 2856TIP3    H229984   2.508   3.953   4.110 -1.7255 -1.5926  0.0132
 2857TIP3   OH229985   5.996   4.912   1.086  0.5070  0.3081  0.2613
 2857TIP3    H129986   5.931   4.945   1.025 -0.6211 -1.6916  0.3459
 2857TIP3    H229987   6.068   4.881   1.030 -0.2414 -0.9175 -0.0329
 2858TIP3   OH229988   5.027   5.606   0.411  0.0661  0.6694 -0.4329
 2858TIP3    H129989   4.991   5.555   0.339  0.8350  0.4153 -0.6504
 2858TIP3    H229990   5.108   5.643   0.376  0.9364 -0.2427  0.5791
 2859TIP3   OH229991   3.893   2.277   6.095 -0.0190  0.2996 -0.0576
 2859TIP3    H129992   3.829   2.345   6.075  0.0878  0.0190 -1.3597
 2859TIP3    H229993   3.976   2.312   6.064  0.0042 -0.5118 -0.9224
 2860TIP3   OH229994   2.875   2.617  12.180 -0.0566 -0.0448 -0.0098
 2860TIP3    H129995   2.787   2.585  12.199  0.8935 -1.9300  1.2964
 2860TIP3    H229996   2.909   2.647  12.264  0.4508  0.9738 -0.5669
 2861TIP3   OH229997   6.026   2.014  10.909 -0.4387  0.2706  0.0549
 2861TIP3    H129998   6.114   1.989  10.881 -0.2140  0.9783  0.1390
 2861TIP3    H229999   5.977   1.931  10.909  0.1710 -0.0937 -0.1760
 2862TIP3   OH230000   5.478   2.601   2.126 -0.8530  0.3867  0.1458
 2862TIP3    H130001   5.547   2.548   2.166 -1.0861 -1.1029 -1.3558
 2862TIP3    H230002   5.509   2.691   2.134  0.7180 -0.1747  0.5430
 2863TIP3   OH230003   1.456   6.757   1.468  0.0671  0.3148  0.3688
 2863TIP3    H130004   1.404   6.786   1.393  0.1250  0.5888  0.4327
 2863TIP3    H230005   1.405   6.783   1.545 -0.5121 -0.9365  0.4179
 2864TIP3   OH230006   6.313   0.779   1.932 -0.2155 -0.5275 -0.1612
 2864TIP3    H130007   6.294   0.690   1.901  0.3976 -0.9323  0.6046
 2864TIP3    H230008   6.268   0.786   2.016 -0.4257 -0.0438 -0.3125
 2865TIP3   OH230009   2.226   1.435   2.926 -0.0054 -0.0701 -0.0127
 2865TIP3    H130010   2.289   1.387   2.872 -0.7534 -0.5458 -0.4675
 2865TIP3    H230011   2.222   1.522   2.887  1.3792  0.3836  0.8339
 2866TIP3   OH230012   1.996   4.633   2.839  0.1029  0.0600 -0.4772
 2866TIP3    H130013   1.926   4.567   2.840  0.2181 -0.0640  1.2488
 2866TIP3    H230014   2.023   4.639   2.931  0.7717  1.7980 -0.7868
 2867TIP3   OH230015   3.961   2.099   4.644 -0.1023 -0.6557  0.9133
 2867TIP3    H130016   3.879   2.093   4.693 -0.9783  1.9385 -0.1562
 2867TIP3    H230017   3.945   2.166   4.578  2.9583  0.0757  0.8450
 2868TIP3   OH230018   0.174   6.082  15.855 -0.2326  0.1487 -0.3420
 2868TIP3    H130019   0.180   6.156  15.915 -0.4626  0.6933 -0.9832
 2868TIP3    H230020   0.113   6.111  15.787  1.5449  0.3292 -1.9398
 2869TIP3   OH230021   3.986   6.405  13.433  0.0585 -0.5060  0.4099
 2869TIP3    H130022   4.008   6.452  13.352  0.8153 -1.8026 -0.1615
 2869TIP3    H230023   3.973   6.315  13.405  1.0581 -1.1156  1.8381
 2870TIP3   OH230024   4.343   1.672   4.361 -0.0934  0.3131 -0.6867
 2870TIP3    H130025   4.308   1.718   4.285  0.9998  0.1382 -1.2987
 2870TIP3    H230026   4.399   1.604   4.324  1.1751  0.8081  0.2949
 2871TIP3   OH230027   6.717   6.715  12.243 -0.3386 -0.2223 -0.2338
 2871TIP3    H130028   6.763   6.642  12.283  1.9090  0.7658 -0.9411
 2871TIP3    H230029   6.766   6.734  12.163 -2.2653  0.5555 -1.2803
 2872TIP3   OH230030   4.795   1.116  16.799 -0.0542 -0.4593  0.1088
 2872TIP3    H130031   4.804   1.044  16.862 -0.6523 -0.0281  0.6924
 2872TIP3    H230032   4.701   1.122  16.783  0.0955 -0.5313 -0.7853
 2873TIP3   OH230033   4.734   2.307   4.521 -0.1277 -0.5040 -0.0826
 2873TIP3    H130034   4.770   2.267   4.441  2.9023 -1.0901  1.4964
 2873TIP3    H230035   4.748   2.401   4.509  2.0113 -0.7246  0.5023
 2874TIP3   OH230036   1.391   5.822  16.696 -0.1006 -0.0660  0.8345
 2874TIP3    H130037   1.379   5.908  16.735 -1.9704  0.3627 -0.5835
 2874TIP3    H230038   1.349   5.762  16.757  0.3913  0.1276  1.3684
 2875TIP3   OH230039   1.685   3.514   2.235  0.3141  0.7559  0.0122
 2875TIP3    H130040   1.645   3.558   2.310  0.8545  1.2597  0.0062
 2875TIP3    H230041   1.627   3.440   2.217 -0.1806  1.0218  0.5042
 2876TIP3   OH230042   1.065   6.426   3.363 -0.4301 -0.2273 -0.0522
 2876TIP3    H130043   1.065   6.487   3.438  4.0495  0.6720 -0.6181
 2876TIP3    H230044   1.028   6.477   3.291  0.5987  0.8983  0.1871
 2877TIP3   OH230045   2.817   1.959   4.587 -0.1515  0.1722 -0.7306
 2877TIP3    H130046   2.854   1.913   4.511  1.3623  0.0056  0.0981
 2877TIP3    H230047   2.868   2.039   4.594  0.0139 -0.0270  0.3902
 2878TIP3   OH230048   1.824   0.214  14.787 -0.0657  0.2797  0.4686
 2878TIP3    H130049   1.862   0.213  14.874 -0.6499 -0.6845  0.7206
 2878TIP3    H230050   1.900   0.216  14.728  0.3706 -0.9521  0.9696
 2879TIP3   OH230051   3.432   4.629  14.229  0.0615  0.1829 -0.5007
 2879TIP3    H130052   3.387   4.588  14.156  0.0005  1.0205 -0.9355
 2879TIP3    H230053   3.426   4.723  14.212  0.5824  0.3610  0.2575
 2880TIP3   OH230054   1.113   6.462  16.904  0.4239 -0.4431 -0.4022
 2880TIP3    H130055   1.180   6.475  16.972  0.9656 -1.4277 -0.7479
 2880TIP3    H230056   1.092   6.369  16.908 -0.7837 -0.1730 -0.4425
 2881TIP3   OH230057   6.296   5.974  13.121 -0.0646 -0.4704 -0.1839
 2881TIP3    H130058   6.335   5.933  13.045  1.7121  1.1791 -0.2036
 2881TIP3    H230059   6.370   5.996  13.178 -1.0596  1.2885  0.4981
 2882TIP3   OH230060   5.257   0.913  14.891 -0.6069 -0.2972 -0.0705
 2882TIP3    H130061   5.273   0.911  14.796 -2.4551 -0.6495 -0.3880
 2882TIP3    H230062   5.208   0.994  14.905  0.0174 -0.0416  0.6523
 2883TIP3   OH230063   2.400   2.766   3.747 -0.1634  0.9049 -0.3319
 2883TIP3    H130064   2.425   2.726   3.831 -0.9744  0.9406 -0.0617
 2883TIP3    H230065   2.338   2.834   3.771 -0.3852  0.9293 -0.9649
 2884TIP3   OH230066   4.396   0.420  16.804 -0.3039 -0.3999  0.6781
 2884TIP3    H130067   4.405   0.515  16.793  0.0480 -0.1651  2.7210
 2884TIP3    H230068   4.302   0.404  16.801 -0.3245 -0.0903 -0.4156
 2885TIP3   OH230069   1.236   4.610   3.839  0.1206  0.3040  0.2217
 2885TIP3    H130070   1.235   4.702   3.865 -1.4605  0.4284 -0.2185
 2885TIP3    H230071   1.319   4.577   3.872  0.7925  1.9316  0.2302
 2886TIP3   OH230072   1.654   5.091  15.929  0.3389 -0.9483  0.3482
 2886TIP3    H130073   1.743   5.124  15.938 -0.0130  0.5424 -1.3292
 2886TIP3    H230074   1.655   5.040  15.848 -0.0975 -1.7686  0.8478
 2887TIP3   OH230075   1.382   5.080   4.407  0.1852 -0.0459 -0.1369
 2887TIP3    H130076   1.301   5.129   4.394 -0.1496 -0.3777  0.6716
 2887TIP3    H230077   1.394   5.031   4.325  0.1584  0.8431 -0.6807
 2888TIP3   OH230078   2.905   5.407   1.776 -0.4046  0.4173  0.3005
 2888TIP3    H130079   2.819   5.400   1.734  0.3416 -2.3628 -0.8795
 2888TIP3    H230080   2.891   5.372   1.864 -0.5432  0.1737  0.1832
 2889TIP3   OH230081   6.476   0.400   2.171  0.3547  0.0746 -0.2193
 2889TIP3    H130082   6.504   0.424   2.259  0.6420 -0.1882 -0.2371
 2889TIP3    H230083   6.545   0.435   2.114  2.8380 -4.0949  0.0272
 2890TIP3   OH230084   5.800   1.299   4.776  0.2400 -0.4522 -0.2858
 2890TIP3    H130085   5.706   1.293   4.795  0.1882  0.4706 -0.1879
 2890TIP3    H230086   5.827   1.210   4.755 -0.5865 -0.7811  0.0383
 2891TIP3   OH230087   5.503   1.305   2.775 -0.3165  0.2198  0.3636
 2891TIP3    H130088   5.467   1.217   2.762  1.5152 -0.9697  2.7521
 2891TIP3    H230089   5.472   1.356   2.701  1.3682 -3.3396 -2.9778
 2892TIP3   OH230090   5.934   6.482  16.897  0.0262  0.2177 -0.4601
 2892TIP3    H130091   5.917   6.401  16.946  1.4547  0.2058  0.0549
 2892TIP3    H230092   5.949   6.452  16.807  0.0732 -0.0490 -0.3663
 2893TIP3   OH230093   5.012   3.604   5.228  0.3971 -0.9428 -0.1900
 2893TIP3    H130094   5.015   3.640   5.317  0.3066 -0.9581 -0.1813
 2893TIP3    H230095   5.015   3.680   5.171 -0.2647 -0.9012 -0.1659
 2894TIP3   OH230096   1.572   4.046   0.668  0.2402 -0.2645 -0.5988
 2894TIP3    H130097   1.619   3.963   0.677  0.0297 -0.3081  0.1885
 2894TIP3    H230098   1.479   4.022   0.669  0.1918 -0.0991 -1.2464
 2895TIP3   OH230099   0.617   6.570  12.221 -0.1179 -0.2119 -0.6475
 2895TIP3    H130100   0.573   6.654  12.227 -1.8569 -1.0359 -1.5978
 2895TIP3    H230101   0.619   6.536  12.310 -0.0237  0.5142 -0.3741
 2896TIP3   OH230102   1.487   6.113   3.697  0.1438  0.3950  0.3002
 2896TIP3    H130103   1.539   6.037   3.722 -1.1056 -0.5173  0.1685
 2896TIP3    H230104   1.520   6.138   3.611  0.4390 -0.1096  0.2681
 2897TIP3   OH230105   1.162   5.053   4.046 -0.3418  0.2912 -0.3979
 2897TIP3    H130106   1.072   5.060   4.079 -1.0673 -3.3614 -1.3874
 2897TIP3    H230107   1.162   5.110   3.968 -1.3612  1.4172  0.3920
 2898TIP3   OH230108   6.080   2.154  16.843 -0.0452 -1.0714  0.5609
 2898TIP3    H130109   6.128   2.074  16.863 -0.1665 -1.5293 -0.9841
 2898TIP3    H230110   6.050   2.143  16.753  0.1773  0.8198  0.2266
 2899TIP3   OH230111   3.840   2.602   0.363 -0.2338 -0.0596  0.3725
 2899TIP3    H130112   3.898   2.557   0.303  0.7309  0.3599  0.9856
 2899TIP3    H230113   3.807   2.533   0.421  1.9262  0.1346  1.8703
 2900TIP3   OH230114   3.942   6.689  13.205  0.0754  0.5438 -0.1649
 2900TIP3    H130115   3.999   6.751  13.160  2.6694 -0.8059  1.1362
 2900TIP3    H230116   3.982   6.603  13.190 -1.3163 -0.3866  1.2090
 2901TIP3   OH230117   5.393   2.019  16.644  0.2245  0.1115  0.9440
 2901TIP3    H130118   5.467   2.033  16.584 -0.7050 -0.0943 -0.2832
 2901TIP3    H230119   5.365   1.929  16.627 -0.4409  0.2591  1.2351
 2902TIP3   OH230120   1.362   0.941   2.335  0.0461  0.1344 -0.6306
 2902TIP3    H130121   1.384   0.886   2.260  0.5389 -0.4433 -0.0722
 2902TIP3    H230122   1.427   0.917   2.402  0.5700  1.7439 -0.5488
 2903TIP3   OH230123   2.880   0.532  11.799 -0.2890  0.2880  0.1619
 2903TIP3    H130124   2.973   0.510  11.791 -0.5806 -0.6095 -0.8206
 2903TIP3    H230125   2.878   0.601  11.866  1.0078 -0.1443  0.6716
 2904TIP3   OH230126   1.985   6.384  15.191  0.3678 -0.2590  0.5196
 2904TIP3    H130127   1.979   6.467  15.238 -0.6990  0.5330 -0.9594
 2904TIP3    H230128   2.021   6.322  15.255  1.5370  1.4200  1.5334
 2905TIP3   OH230129   4.091   3.650   0.018  0.0701  0.2883 -0.7120
 2905TIP3    H130130   4.142   3.591   0.073 -2.0306 -2.2135 -1.3405
 2905TIP3    H230131   4.083   3.730   0.070  1.7196 -0.4927  0.7861
 2906TIP3   OH230132   6.089   0.955  14.943 -0.2878  0.1211  0.3288
 2906TIP3    H130133   6.120   0.948  14.853  0.9034 -0.6278  0.7951
 2906TIP3    H230134   6.079   1.049  14.958 -2.6926  0.1793 -1.3087
 2907TIP3   OH230135   4.741   4.565  16.432  0.1514 -0.4848 -1.2701
 2907TIP3    H130136   4.744   4.494  16.368 -1.3161 -0.6330 -1.1928
 2907TIP3    H230137   4.695   4.527  16.507 -0.6081  0.5234 -1.2177
 2908TIP3   OH230138   5.361   1.208   4.944 -0.3266 -0.2915  0.4745
 2908TIP3    H130139   5.324   1.144   4.883  2.5095 -0.2188 -1.4171
 2908TIP3    H230140   5.454   1.185   4.950  0.8472  3.8344 -0.5330
 2909TIP3   OH230141   2.304   3.736   3.572 -0.2330 -0.0587  0.1222
 2909TIP3    H130142   2.254   3.797   3.518 -0.8146 -0.5159  0.1342
 2909TIP3    H230143   2.352   3.792   3.634  1.6234  0.5768 -1.8097
 2910TIP3   OH230144   3.247   6.351  12.709  0.0999 -0.4605 -0.2342
 2910TIP3    H130145   3.299   6.327  12.632  1.0249  0.2061  0.1731
 2910TIP3    H230146   3.171   6.397  12.672 -0.5811 -2.0820 -0.8759
 2911TIP3   OH230147   4.082   2.142  11.650 -0.3408 -0.3276 -0.3428
 2911TIP3    H130148   4.032   2.207  11.602  1.6945  3.8820  2.9170
 2911TIP3    H230149   4.131   2.095  11.582 -2.9668  0.4597 -2.8985
 2912TIP3   OH230150   5.949   5.320   3.081 -0.3522  0.4096 -0.5643
 2912TIP3    H130151   6.039   5.297   3.107 -0.6034  0.3143  0.2119
 2912TIP3    H230152   5.960   5.361   2.995  0.4550  0.5545 -0.4006
 2913TIP3   OH230153   1.237   4.205   2.643 -0.1068  0.1585 -0.3603
 2913TIP3    H130154   1.159   4.220   2.696 -0.0417  1.9707 -0.7559
 2913TIP3    H230155   1.229   4.267   2.570  1.6980  0.3586 -0.4127
 2914TIP3   OH230156   5.745   3.615   0.203 -0.1921  0.0801 -0.0367
 2914TIP3    H130157   5.661   3.648   0.174 -0.0255  1.2913  0.8098
 2914TIP3    H230158   5.733   3.597   0.296  0.3699 -0.0880  0.0052
 2915TIP3   OH230159   6.701   5.772   4.024  0.3895 -0.2173  0.6816
 2915TIP3    H130160   6.716   5.840   3.959 -2.3376 -0.0329  0.1665
 2915TIP3    H230161   6.716   5.690   3.977  1.4400 -0.0282  0.6797
 2916TIP3   OH230162   4.368   2.382   6.063  0.3612  0.9033  0.0441
 2916TIP3    H130163   4.376   2.314   5.997 -1.8808 -0.4801  1.0993
 2916TIP3    H230164   4.447   2.375   6.116 -0.5151 -1.9605  1.0589
 2917TIP3   OH230165   0.928   4.826   0.137  0.4867 -0.1226  0.2128
 2917TIP3    H130166   0.918   4.732   0.128  0.3130  0.0126 -1.1469
 2917TIP3    H230167   1.018   4.838   0.169  0.0639 -0.7959  1.6870
 2918TIP3   OH230168   0.469   0.638   4.882 -0.1275  0.5265  0.0826
 2918TIP3    H130169   0.439   0.725   4.858  0.0889  0.4800 -0.3622
 2918TIP3    H230170   0.390   0.592   4.911 -0.0970  1.1552  1.1839
 2919TIP3   OH230171   5.213   4.383  13.903  0.2522  1.0761  0.7336
 2919TIP3    H130172   5.221   4.351  13.814 -0.4548  0.5152  0.8669
 2919TIP3    H230173   5.175   4.471  13.894 -1.6733  0.2508  0.5692
 2920TIP3   OH230174   0.745   3.947  14.938 -0.0208  0.1477  0.5856
 2920TIP3    H130175   0.827   3.991  14.916  0.5473 -0.7360  0.9099
 2920TIP3    H230176   0.771   3.861  14.969 -1.2075 -0.9123 -1.2712
 2921TIP3   OH230177   5.791   4.439  15.758  0.3817  0.9605  0.0391
 2921TIP3    H130178   5.880   4.405  15.749  0.5002  1.5301 -1.1864
 2921TIP3    H230179   5.752   4.426  15.671 -1.0586 -0.1755  0.8343
 2922TIP3   OH230180   0.449   0.549  10.780 -0.5525  0.4174 -0.1179
 2922TIP3    H130181   0.405   0.583  10.858  1.2591  2.9414 -0.1240
 2922TIP3    H230182   0.542   0.565  10.796 -0.0306 -0.3744 -2.1850
 2923TIP3   OH230183   0.947   1.411   0.546 -0.7603  0.3335 -0.1331
 2923TIP3    H130184   1.029   1.418   0.498 -1.2533 -3.0126 -1.5894
 2923TIP3    H230185   0.882   1.386   0.481 -2.1315 -0.9728  1.6644
 2924TIP3   OH230186   3.404   4.075   5.630  0.2337  0.0505 -0.0933
 2924TIP3    H130187   3.463   4.142   5.665  1.7921 -1.3146 -0.1147
 2924TIP3    H230188   3.412   4.001   5.690  0.2224 -0.9737 -1.3452
 2925TIP3   OH230189   2.262   3.917   1.793  0.2136  0.5060 -0.1002
 2925TIP3    H130190   2.249   3.936   1.886 -2.9962 -0.6377 -0.2456
 2925TIP3    H230191   2.251   4.002   1.750 -2.1939  0.4199  0.2692
 2926TIP3   OH230192   5.491   5.447  13.921 -0.0391  0.3737 -0.5462
 2926TIP3    H130193   5.522   5.452  14.011  0.8921  1.4405 -0.9232
 2926TIP3    H230194   5.436   5.525  13.911 -0.2596  0.1773 -0.8587
 2927TIP3   OH230195   5.280   0.874   1.733 -0.5896  0.3213  0.4309
 2927TIP3    H130196   5.357   0.892   1.681 -0.3595  0.8197  0.9295
 2927TIP3    H230197   5.293   0.786   1.768 -0.6653  0.0592 -0.2109
 2928TIP3   OH230198   2.002   1.107   0.436  0.5078 -0.0091 -0.8474
 2928TIP3    H130199   2.030   1.016   0.427  0.0389 -0.4601  1.7758
 2928TIP3    H230200   2.079   1.152   0.470 -0.5344 -0.3609  2.1208
 2929TIP3   OH230201   6.744   0.278   5.563 -0.3303 -0.6508 -0.0141
 2929TIP3    H130202   6.818   0.219   5.548  0.0982 -0.0159 -0.4545
 2929TIP3    H230203   6.770   0.330   5.639 -0.5223 -0.7354  0.1098
 2930TIP3   OH230204   5.920   0.949   1.965  0.9012 -0.1331 -0.2445
 2930TIP3    H130205   5.983   0.928   1.896  0.9012  1.7313 -0.8456
 2930TIP3    H230206   5.899   1.041   1.950  0.8587  0.2802  2.2241
 2931TIP3   OH230207   2.285   6.561  16.030  0.4597  0.0401 -0.3394
 2931TIP3    H130208   2.232   6.604  15.963  0.3366 -0.1152 -0.3407
 2931TIP3    H230209   2.374   6.589  16.011  0.4800 -0.3601 -0.8461
 2932TIP3   OH230210   3.834   0.222   0.315  0.1487 -0.0041 -0.3017
 2932TIP3    H130211   3.799   0.300   0.273  0.9314  0.7877  0.5087
 2932TIP3    H230212   3.920   0.248   0.346 -0.0273 -0.8645  0.9424
 2933TIP3   OH230213   4.073   5.718   1.254  0.7631  0.0960 -0.2037
 2933TIP3    H130214   4.043   5.798   1.297 -2.9142 -2.1042  1.6061
 2933TIP3    H230215   4.139   5.683   1.314  0.8520  0.6893  0.0543
 2934TIP3   OH230216   6.424   3.703   0.407  0.2655  0.3439 -0.6423
 2934TIP3    H130217   6.449   3.634   0.345 -0.3697  0.0394 -0.5580
 2934TIP3    H230218   6.411   3.780   0.353  1.6728  0.5835 -0.6610
 2935TIP3   OH230219   0.254   3.708   1.610 -0.0117  0.6900 -0.1971
 2935TIP3    H130220   0.308   3.701   1.532  0.4510  1.1772  0.0767
 2935TIP3    H230221   0.239   3.802   1.621 -1.5662  0.5202 -0.7165
 2936TIP3   OH230222   6.620   5.722   5.785 -0.4367 -0.1660  0.1860
 2936TIP3    H130223   6.560   5.757   5.851  0.5981 -0.6082  1.3600
 2936TIP3    H230224   6.601   5.774   5.706  0.1801  2.1651  1.5443
 2937TIP3   OH230225   2.253   0.494  11.456  0.3570 -0.1766 -0.1725
 2937TIP3    H130226   2.179   0.435  11.440  0.0439  0.0350  0.4718
 2937TIP3    H230227   2.225   0.578  11.418 -0.0021  0.0747  0.6335
 2938TIP3   OH230228   3.964   6.200  16.997  0.7271 -0.2871  0.2787
 2938TIP3    H130229   4.051   6.233  17.018  0.4365  0.4736  0.2923
 2938TIP3    H230230   3.918   6.275  16.959  0.2982 -0.8629 -0.3620
 2939TIP3   OH230231   5.178   6.209   4.797  0.0017  0.7632 -0.1057
 2939TIP3    H130232   5.151   6.218   4.888 -0.7673  0.6323 -0.3200
 2939TIP3    H230233   5.186   6.114   4.784 -2.8503  0.5847 -1.0118
 2940TIP3   OH230234   0.287   4.014  15.256  0.4050  0.0384 -0.7065
 2940TIP3    H130235   0.375   4.031  15.289  1.3376 -0.5540 -2.8007
 2940TIP3    H230236   0.274   4.079  15.187 -0.7252 -0.0180 -0.5662
 2941TIP3   OH230237   0.917   3.680   0.877  0.2261  0.2527  0.2924
 2941TIP3    H130238   0.951   3.621   0.810 -0.2169 -0.8691  1.0453
 2941TIP3    H230239   0.847   3.729   0.833  0.5487  0.1638 -0.3156
 2942TIP3   OH230240   5.658   4.625  10.717 -0.2541 -0.0349  0.4393
 2942TIP3    H130241   5.675   4.531  10.719  0.3452  0.0316 -1.3452
 2942TIP3    H230242   5.741   4.665  10.741  0.3052  0.1000 -1.6299
 2943TIP3   OH230243   1.926   6.646   4.297 -0.1437 -0.0296  0.1046
 2943TIP3    H130244   1.997   6.697   4.334 -0.2005  0.5860 -0.6349
 2943TIP3    H230245   1.953   6.555   4.311  1.4348  0.1844 -1.3754
 2944TIP3   OH230246   5.105   2.637   1.040 -0.2158  0.5775 -0.3618
 2944TIP3    H130247   5.054   2.576   1.093 -0.6243  1.3776  0.1668
 2944TIP3    H230248   5.191   2.639   1.082  0.4578 -1.1743 -1.5573
 2945TIP3   OH230249   2.852   3.179  15.495 -0.2237 -0.0482  0.2369
 2945TIP3    H130250   2.925   3.171  15.433 -1.5667  0.7682 -1.4843
 2945TIP3    H230251   2.835   3.090  15.524 -0.4381 -0.6202 -1.5972
 2946TIP3   OH230252   5.331   1.120  16.821  0.6984 -0.3004  0.2158
 2946TIP3    H130253   5.309   1.028  16.829 -0.0521 -0.0222  1.6329
 2946TIP3    H230254   5.408   1.131  16.878  0.2823  0.0968  0.7127
 2947TIP3   OH230255   5.465   3.908  15.824  0.3017  0.2392 -0.0710
 2947TIP3    H130256   5.376   3.922  15.856  0.6575 -0.9292  1.5023
 2947TIP3    H230257   5.502   3.844  15.885  1.5077 -0.9167 -1.9667
 2948TIP3   OH230258   2.514   2.567  12.832 -0.5898  0.2555 -0.1074
 2948TIP3    H130259   2.500   2.474  12.847 -0.9850  0.7770  2.9418
 2948TIP3    H230260   2.605   2.582  12.860 -0.8878  1.0039  0.4536
 2949TIP3   OH230261   0.335   6.402   2.410  0.2916  0.3310 -0.2777
 2949TIP3    H130262   0.254   6.419   2.458 -0.5782  1.4001 -2.0964
 2949TIP3    H230263   0.328   6.311   2.381 -1.5061  1.2276 -2.7592
 2950TIP3   OH230264   0.056   1.864  12.170 -0.0153 -0.6096  0.2725
 2950TIP3    H130265   0.114   1.938  12.153 -0.9481  0.6719  2.4663
 2950TIP3    H230266   0.021   1.841  12.084 -0.7625  2.4191 -0.3084
 2951TIP3   OH230267   0.540   0.905   0.094 -0.3178 -0.6133  0.6763
 2951TIP3    H130268   0.567   0.947   0.175 -1.4234  0.2372  0.6185
 2951TIP3    H230269   0.621   0.898   0.043 -0.0185  1.0607  0.8698
 2952TIP3   OH230270   5.249   6.597   1.718 -0.6845  0.3733 -0.3508
 2952TIP3    H130271   5.306   6.665   1.753  0.4617 -0.3764 -0.7528
 2952TIP3    H230272   5.304   6.549   1.656 -2.0529  0.3130 -1.5431
 2953TIP3   OH230273   2.679   3.218   6.525  0.0071 -0.2790  0.3632
 2953TIP3    H130274   2.771   3.244   6.532 -0.3404  0.8425  0.7490
 2953TIP3    H230275   2.654   3.241   6.436 -0.1235  0.1333  0.5069
 2954TIP3   OH230276   0.378   0.483  14.455  1.5923  0.1678 -0.0489
 2954TIP3    H130277   0.428   0.417  14.503  0.8551 -0.3319  0.0262
 2954TIP3    H230278   0.288   0.474  14.487  0.6528 -1.5803 -3.0291
 2955TIP3   OH230279   2.098   5.827  13.233 -0.7616 -0.2078  0.2417
 2955TIP3    H130280   2.034   5.846  13.301 -0.3889 -0.4680  0.6679
 2955TIP3    H230281   2.074   5.885  13.161 -2.0795 -1.0035  0.0204
 2956TIP3   OH230282   0.924   2.944  12.534  0.2974  0.2879 -0.4156
 2956TIP3    H130283   0.855   2.890  12.494  0.3055  0.5864 -0.8301
 2956TIP3    H230284   0.995   2.943  12.470  0.7081 -0.0651  0.0375
 2957TIP3   OH230285   0.382   2.593   0.220 -0.1138 -0.5404 -0.1962
 2957TIP3    H130286   0.401   2.666   0.279 -0.1024  1.6486 -2.8493
 2957TIP3    H230287   0.291   2.605   0.194  0.2049 -0.8620 -1.4816
 2958TIP3   OH230288   6.030   3.512  14.178  0.0221 -0.1590 -0.3477
 2958TIP3    H130289   5.968   3.585  14.178 -0.2600 -0.3979 -1.5199
 2958TIP3    H230290   5.976   3.434  14.182  0.3216 -0.3251  0.7590
 2959TIP3   OH230291   5.117   1.782  12.828 -0.5588  0.1402  0.2873
 2959TIP3    H130292   5.052   1.796  12.897 -1.6393 -1.0686 -0.4742
 2959TIP3    H230293   5.126   1.867  12.785 -1.0307  0.5103  0.9149
 2960TIP3   OH230294   4.010   0.887  16.979 -0.7802 -0.3079  0.1758
 2960TIP3    H130295   4.070   0.899  16.905  0.9440  0.6650  1.7085
 2960TIP3    H230296   3.924   0.880  16.938  0.2867 -1.1792 -2.0300
 2961TIP3   OH230297   0.406   3.717   0.472 -0.2013 -0.2115  0.1533
 2961TIP3    H130298   0.490   3.763   0.476 -0.8712  1.2050 -1.5797
 2961TIP3    H230299   0.426   3.635   0.427  0.2666  0.0495 -0.1210
 2962TIP3   OH230300   6.578   5.940  12.665  0.3427 -0.5163 -0.0059
 2962TIP3    H130301   6.672   5.927  12.650  0.3622 -1.2334  0.6816
 2962TIP3    H230302   6.551   6.002  12.598  1.3209 -0.2803 -0.1874
 2963TIP3   OH230303   0.183   3.972   4.379  0.3299  0.2434 -0.2218
 2963TIP3    H130304   0.225   3.902   4.429  0.2880  0.5612  0.2629
 2963TIP3    H230305   0.162   4.039   4.444 -2.0642 -0.4489 -0.2532
 2964TIP3   OH230306   3.311   3.625  14.712 -0.2718 -0.5406 -0.3147
 2964TIP3    H130307   3.378   3.685  14.746  1.2075 -0.8958 -2.4799
 2964TIP3    H230308   3.347   3.538  14.730 -0.9039 -0.7579 -0.0848
 2965TIP3   OH230309   5.881   6.309  11.108 -0.2262 -0.4609  0.1414
 2965TIP3    H130310   5.876   6.332  11.016  0.1041 -1.6598 -0.1893
 2965TIP3    H230311   5.831   6.377  11.153 -0.4222  0.1046 -0.9199
 2966TIP3   OH230312   2.555   0.875  16.427 -0.2226  0.1830 -0.5691
 2966TIP3    H130313   2.630   0.816  16.431  1.0007  1.7555  0.2049
 2966TIP3    H230314   2.524   0.868  16.337  2.8087  1.8824 -1.8099
 2967TIP3   OH230315   0.242   0.038   4.287  0.5156 -0.2105 -0.4540
 2967TIP3    H130316   0.170   0.051   4.225  0.6844  0.8476 -0.4406
 2967TIP3    H230317   0.314   0.007   4.233  1.4160  3.0042 -1.2491
 2968TIP3   OH230318   4.031   5.904  13.966 -0.0954 -0.5144  0.1128
 2968TIP3    H130319   3.988   5.922  14.050 -1.5515 -2.9103 -0.0621
 2968TIP3    H230320   4.082   5.824  13.982 -1.6401 -1.8966 -1.6690
 2969TIP3   OH230321   5.963   1.528  14.230  0.3893  0.1056 -0.4691
 2969TIP3    H130322   6.038   1.533  14.288 -0.0085  0.6881  0.0076
 2969TIP3    H230323   5.893   1.574  14.277 -0.8858 -2.2483  0.0265
 2970TIP3   OH230324   5.914   6.707   0.642 -0.3621  0.2049  0.5970
 2970TIP3    H130325   5.827   6.685   0.608  0.1800 -3.2271  1.2033
 2970TIP3    H230326   5.904   6.703   0.737  0.8392 -2.2287  0.6809
 2971TIP3   OH230327   2.302   2.847   5.151  0.1087  0.6662  0.1785
 2971TIP3    H130328   2.358   2.790   5.099 -0.8595 -0.3333  0.2229
 2971TIP3    H230329   2.228   2.866   5.095  0.7316  2.4379 -0.0813
 2972TIP3   OH230330   1.634   4.061  11.262  0.3259 -1.0046  0.0797
 2972TIP3    H130331   1.589   4.115  11.197  0.4620 -1.6846 -0.5901
 2972TIP3    H230332   1.719   4.102  11.273 -0.1072 -0.2466  0.6613
 2973TIP3   OH230333   3.632   2.266  12.866  0.2585 -0.1399 -0.0423
 2973TIP3    H130334   3.540   2.252  12.844 -0.4723  0.9321  2.1772
 2973TIP3    H230335   3.673   2.180  12.855 -0.4803 -0.1395 -3.2865
 2974TIP3   OH230336   3.737   6.503   5.949  0.0205  0.3145 -0.0450
 2974TIP3    H130337   3.726   6.592   5.915  0.9918  0.7525  0.7537
 2974TIP3    H230338   3.798   6.513   6.022  2.8818 -1.4766 -2.0604
 2975TIP3   OH230339   1.587   5.070  14.896 -0.2321 -0.7713  0.1010
 2975TIP3    H130340   1.676   5.095  14.870 -1.4280  2.6159 -0.9908
 2975TIP3    H230341   1.538   5.070  14.814 -1.7110 -0.4963  0.9691
 2976TIP3   OH230342   5.113   2.857   0.139 -0.1027 -0.0714  0.9716
 2976TIP3    H130343   5.096   2.812   0.222 -0.0564 -2.2205 -0.1562
 2976TIP3    H230344   5.053   2.817   0.077  1.4000 -0.0368 -0.5474
 2977TIP3   OH230345   0.992   4.843   2.174  0.3085  0.0751 -0.1257
 2977TIP3    H130346   1.071   4.824   2.124  0.9053 -2.3743  1.6881
 2977TIP3    H230347   1.020   4.840   2.266 -2.3001 -3.2313  0.6587
 2978TIP3   OH230348   5.083   4.908  14.149  0.3806  0.0486  0.4915
 2978TIP3    H130349   5.166   4.935  14.188  1.5158 -1.2578 -0.9845
 2978TIP3    H230350   5.058   4.829  14.197 -0.4068  0.8837  1.4584
 2979TIP3   OH230351   6.317   6.278  12.980 -0.4345 -0.3533  0.5757
 2979TIP3    H130352   6.252   6.237  12.923  0.7554 -1.1352 -0.2209
 2979TIP3    H230353   6.397   6.227  12.967  0.6804  1.3309  0.6643
 2980TIP3   OH230354   2.155   2.836  15.105  0.1752 -0.4438 -0.1095
 2980TIP3    H130355   2.179   2.789  15.185  2.5425 -2.1514 -1.7531
 2980TIP3    H230356   2.156   2.929  15.131  1.1015 -0.9504  1.7689
 2981TIP3   OH230357   5.574   2.655   2.393 -0.1343 -0.2762  0.5310
 2981TIP3    H130358   5.660   2.653   2.351 -0.3468 -2.9175  0.1729
 2981TIP3    H230359   5.575   2.582   2.455 -1.4175  0.8909  1.9661
 2982TIP3   OH230360   1.390   2.955   2.036 -0.2484  0.2221  0.2853
 2982TIP3    H130361   1.430   2.987   1.955  1.8373 -0.8722  0.8645
 2982TIP3    H230362   1.298   2.979   2.027  0.6968  3.9212 -0.5229
 2983TIP3   OH230363   0.383   6.587   0.350  0.1299 -0.3490  0.3816
 2983TIP3    H130364   0.361   6.494   0.360  0.2375 -0.4846 -0.5191
 2983TIP3    H230365   0.341   6.630   0.423 -1.4101 -0.8820 -0.1696
 2984TIP3   OH230366   2.786   5.299  12.963 -0.3370 -0.7981  0.5094
 2984TIP3    H130367   2.795   5.208  12.937 -3.6988 -0.2192 -3.1600
 2984TIP3    H230368   2.844   5.347  12.903 -0.3522 -0.3335  0.8654
 2985TIP3   OH230369   0.599   5.669   2.395  0.3030 -0.5001 -0.6231
 2985TIP3    H130370   0.517   5.650   2.350  0.7440 -1.9057 -0.8629
 2985TIP3    H230371   0.623   5.586   2.436  0.2164  0.5787  1.7170
 2986TIP3   OH230372   1.998   2.110   4.100 -0.1802 -0.2776 -0.3134
 2986TIP3    H130373   1.970   2.175   4.036  1.1088  0.1455 -0.4644
 2986TIP3    H230374   2.051   2.048   4.050 -0.0981 -0.5739  0.1383
 2987TIP3   OH230375   1.589   4.802  10.977  0.0450 -0.2558 -0.4451
 2987TIP3    H130376   1.659   4.866  10.983 -1.1641  1.0614 -0.2621
 2987TIP3    H230377   1.605   4.742  11.051  0.1789  0.8490  0.4385
 2988TIP3   OH230378   4.890   1.609  15.064 -0.2131 -0.3047 -0.1602
 2988TIP3    H130379   4.803   1.584  15.035 -0.0650 -1.8412  0.6590
 2988TIP3    H230380   4.947   1.590  14.989 -0.5735  0.7870 -0.7291
 2989TIP3   OH230381   2.580   3.529  15.576  0.2106  0.6278 -0.3988
 2989TIP3    H130382   2.577   3.436  15.554 -0.2037  1.0598 -2.1940
 2989TIP3    H230383   2.489   3.558  15.573  0.4739  1.3865 -1.1493
 2990TIP3   OH230384   3.850   6.057   1.345 -0.1202  0.1136 -0.2846
 2990TIP3    H130385   3.818   6.004   1.272  2.0702 -0.9313 -0.5035
 2990TIP3    H230386   3.919   6.005   1.385 -0.2273  1.3483  1.6100
 2991TIP3   OH230387   4.162   1.635   5.336  0.3859 -0.0855  0.2004
 2991TIP3    H130388   4.150   1.553   5.288  2.1160 -0.3262  0.1324
 2991TIP3    H230389   4.101   1.630   5.410  0.4856 -1.4261  0.1969
 2992TIP3   OH230390   3.046   2.787   4.010  0.3900 -0.2789  0.0972
 2992TIP3    H130391   2.974   2.838   4.047 -1.1879 -1.1690 -1.6535
 2992TIP3    H230392   3.095   2.756   4.086 -0.4407  1.2290  1.2808
 2993TIP3   OH230393   0.175   3.459   3.973 -0.0122  0.0633 -0.0635
 2993TIP3    H130394   0.252   3.505   4.005  1.2526 -0.8841 -1.7066
 2993TIP3    H230395   0.150   3.506   3.893  0.8469 -1.5997 -1.3393
 2994TIP3   OH230396   1.704   4.889  13.112 -0.0088 -0.1636 -0.0949
 2994TIP3    H130397   1.631   4.921  13.059 -1.6642 -2.0544  0.9750
 2994TIP3    H230398   1.773   4.869  13.048 -1.4771 -1.1029 -1.4319
 2995TIP3   OH230399   0.101   2.784   5.425 -0.2621 -0.1890  0.0030
 2995TIP3    H130400   0.062   2.768   5.339  0.8912  0.7718 -0.7207
 2995TIP3    H230401   0.101   2.880   5.434  1.7670 -0.1634  0.0409
 2996TIP3   OH230402   0.023   5.230  16.671 -0.1334 -0.5330 -0.4401
 2996TIP3    H130403  -0.055   5.259  16.718  0.8272  1.5270 -0.0922
 2996TIP3    H230404   0.052   5.152  16.718 -0.4396  0.2426  1.0436
 2997TIP3   OH230405   2.799   5.888   5.588 -0.0031 -0.3110  0.4419
 2997TIP3    H130406   2.755   5.894   5.673  0.9994  0.3468  0.9118
 2997TIP3    H230407   2.861   5.961   5.587  0.3348 -0.5993 -0.6613
 2998TIP3   OH230408   5.491   1.313  13.728 -0.0994  0.2042 -0.1158
 2998TIP3    H130409   5.582   1.283  13.734 -0.6102 -1.0687  1.7550
 2998TIP3    H230410   5.449   1.251  13.669  0.5976  1.7656 -2.3176
 2999TIP3   OH230411   2.312   0.231  13.600 -0.4315  0.2612 -0.7315
 2999TIP3    H130412   2.281   0.142  13.582 -1.8835  0.7134 -0.5475
 2999TIP3    H230413   2.233   0.285  13.595  0.3110  1.4268 -0.0454
 3000TIP3   OH230414   2.850   6.760  17.024 -0.1657  0.1590  0.1596
 3000TIP3    H130415   2.821   6.714  16.945  0.3248 -0.5058  0.3625
 3000TIP3    H230416   2.892   6.692  17.077 -1.2455  0.4248  1.3737
 3001TIP3   OH230417   6.157   3.548  16.166 -0.5034 -0.4122 -0.5024
 3001TIP3    H130418   6.154   3.610  16.093 -1.9260  1.7403  1.3511
 3001TIP3    H230419   6.208   3.593  16.233 -2.2527 -0.9118  1.1746
 3002TIP3   OH230420   5.102   0.889   1.500 -0.2770 -0.0858 -0.0745
 3002TIP3    H130421   5.123   0.805   1.459 -1.6347 -0.3247 -0.3103
 3002TIP3    H230422   5.164   0.897   1.573  1.2393 -0.3080 -1.3217
 3003TIP3   OH230423   6.542   2.435   5.354 -0.2786 -0.1564 -0.3942
 3003TIP3    H130424   6.548   2.518   5.307  1.7307 -0.6853 -1.1308
 3003TIP3    H230425   6.610   2.441   5.421 -1.9878 -0.0945  1.3801
 3004TIP3   OH230426   0.907   3.600  16.689  0.3145 -0.4197  0.3640
 3004TIP3    H130427   0.951   3.682  16.710 -0.2757  0.2551 -0.9784
 3004TIP3    H230428   0.970   3.551  16.636 -0.3242  0.2880 -1.0472
 3005TIP3   OH230429   4.621   5.864   4.921  0.3527  0.2377  0.1569
 3005TIP3    H130430   4.543   5.813   4.897  0.8662 -0.5937  0.2275
 3005TIP3    H230431   4.592   5.955   4.916 -0.2435 -0.0068 -1.1642
 3006TIP3   OH230432   0.513   2.513   3.414  0.1136  0.2574  0.3856
 3006TIP3    H130433   0.419   2.528   3.422 -0.0090 -0.3784  0.1676
 3006TIP3    H230434   0.525   2.420   3.436  0.6323  0.2195 -0.0386
 3007TIP3   OH230435   6.108   1.084   1.392  0.5056  0.0063 -0.2316
 3007TIP3    H130436   6.106   1.113   1.301  0.9585  0.6575 -0.0337
 3007TIP3    H230437   6.197   1.049   1.404  0.8431  1.0252  0.3000
 3008TIP3   OH230438   4.640   3.299  15.318  0.0332 -0.4843 -0.2618
 3008TIP3    H130439   4.554   3.258  15.304 -0.1273 -0.1962 -0.1217
 3008TIP3    H230440   4.637   3.379  15.265 -0.0892 -0.0533  0.3947
 3009TIP3   OH230441   4.808   4.333  17.183 -0.9498 -0.2897 -0.3753
 3009TIP3    H130442   4.877   4.389  17.147 -2.2704  0.2396 -2.1816
 3009TIP3    H230443   4.836   4.314  17.272  0.5267  1.5754 -0.4067
 3010TIP3   OH230444   1.395   4.594  14.567 -0.6074  0.1793 -0.0725
 3010TIP3    H130445   1.424   4.656  14.633  0.9538 -0.6073  0.0077
 3010TIP3    H230446   1.323   4.547  14.609  0.9741 -0.9601  1.4520
 3011TIP3   OH230447   2.331   5.038   1.622 -0.3503  0.5820  0.0820
 3011TIP3    H130448   2.421   5.070   1.615 -0.0070 -0.1505  0.9898
 3011TIP3    H230449   2.337   4.963   1.682 -1.5289  0.3937 -0.0251
 3012TIP3   OH230450   0.013   0.234  14.873 -0.3132 -0.3206 -0.1142
 3012TIP3    H130451  -0.021   0.157  14.918 -0.5870 -0.1122  0.0363
 3012TIP3    H230452   0.043   0.292  14.943  0.3440 -0.4965 -0.2450
 3013TIP3   OH230453   2.607   0.971  14.249  0.0655 -0.4289 -0.0512
 3013TIP3    H130454   2.600   1.010  14.161 -0.5440 -2.1340 -0.7717
 3013TIP3    H230455   2.681   0.912  14.244  0.7344  0.3089  0.9316
 3014TIP3   OH230456   4.936   6.511   3.761  0.3621  0.0646  0.2491
 3014TIP3    H130457   4.973   6.520   3.849 -2.0270  1.8806  1.1141
 3014TIP3    H230458   4.858   6.457   3.773  0.0894  0.2312 -0.7522
 3015TIP3   OH230459   4.863   0.758   5.429  0.1352  0.2427 -0.0060
 3015TIP3    H130460   4.892   0.752   5.338 -3.5200 -0.6524 -1.2047
 3015TIP3    H230461   4.884   0.848   5.455  1.6120  0.3696 -1.5737
 3016TIP3   OH230462   0.836   3.124  11.469  0.0851 -0.3507 -0.2019
 3016TIP3    H130463   0.764   3.092  11.415  0.2471 -0.3789 -0.4026
 3016TIP3    H230464   0.887   3.180  11.410  0.3187 -0.4618 -0.1068
 3017TIP3   OH230465   5.872   5.263  17.135 -0.0841 -0.3573 -0.0928
 3017TIP3    H130466   5.918   5.297  17.212 -0.1545  1.8746 -1.0122
 3017TIP3    H230467   5.940   5.256  17.068 -0.4179 -0.3633 -0.4277
 3018TIP3   OH230468   4.214   1.072   4.151  0.4112  0.2719 -0.9727
 3018TIP3    H130469   4.267   1.152   4.148  0.7123  0.1381  0.5361
 3018TIP3    H230470   4.265   1.011   4.205 -1.8568  0.5794  1.6289
 3019TIP3   OH230471   6.023   5.535  16.636  0.4651  0.1453 -0.0172
 3019TIP3    H130472   6.010   5.522  16.729 -2.2989 -2.2308 -0.6608
 3019TIP3    H230473   5.958   5.600  16.610  0.4677 -0.0182 -0.4531
 3020TIP3   OH230474   5.839   3.883   6.021 -0.1912  0.2684  0.1799
 3020TIP3    H130475   5.895   3.810   6.046  0.0462  0.6031  0.6435
 3020TIP3    H230476   5.795   3.908   6.102  1.0268  1.7491  0.4123
 3021TIP3   OH230477   0.969   4.883   1.851 -0.6454 -0.3116 -0.0814
 3021TIP3    H130478   0.882   4.860   1.883 -1.4049  1.4855 -0.8072
 3021TIP3    H230479   0.987   4.969   1.890  1.2157 -1.0744  0.8321
 3022TIP3   OH230480   1.012   1.583  14.258  0.6419 -0.7349 -0.0187
 3022TIP3    H130481   1.041   1.665  14.219 -0.8149 -0.2761 -0.1890
 3022TIP3    H230482   0.924   1.602  14.292  0.4746 -2.0856  0.3566
 3023TIP3   OH230483   1.341   4.964   2.582 -0.1037  0.5939  0.2454
 3023TIP3    H130484   1.295   4.912   2.516 -1.0423  0.3058  1.1237
 3023TIP3    H230485   1.347   5.051   2.543  0.4666  0.1332 -0.7430
 3024TIP3   OH230486   1.937   4.476  12.972  0.2697  0.3614 -0.4584
 3024TIP3    H130487   1.986   4.517  13.043  1.5115  0.3670 -1.2930
 3024TIP3    H230488   2.005   4.445  12.911 -0.7256 -0.8389 -0.9839
 3025TIP3   OH230489   5.981   2.093  16.599 -0.0972  0.0126  0.1741
 3025TIP3    H130490   5.912   2.144  16.557  0.9335  0.7395 -0.6383
 3025TIP3    H230491   5.941   2.007  16.613 -1.6961  0.8999  1.1832
 3026TIP3   OH230492   2.564   1.467  10.804 -0.6087  0.2554 -0.7282
 3026TIP3    H130493   2.503   1.525  10.850 -0.2063 -0.6285  0.9497
 3026TIP3    H230494   2.648   1.481  10.846 -0.3321 -0.9132 -0.8663
 3027TIP3   OH230495   2.909   1.752  16.804  0.0532 -0.5179 -0.0618
 3027TIP3    H130496   2.912   1.844  16.831 -0.2718 -0.2003 -1.0554
 3027TIP3    H230497   2.820   1.739  16.772  0.2036 -1.0748 -0.2682
 3028TIP3   OH230498   3.473   6.493   0.335  0.1092  0.0917 -0.4252
 3028TIP3    H130499   3.525   6.544   0.397 -0.3204  1.7810 -1.4306
 3028TIP3    H230500   3.484   6.538   0.252 -0.9990 -0.9586 -1.1618
 3029TIP3   OH230501   0.873   2.287   6.886  0.2552  0.1494  0.0055
 3029TIP3    H130502   0.907   2.376   6.875  0.3247  0.2845  1.2284
 3029TIP3    H230503   0.931   2.232   6.833  0.7037  0.7243 -0.1073
 3030TIP3   OH230504   3.636   6.683   4.290 -0.6319  0.7253  0.0353
 3030TIP3    H130505   3.675   6.770   4.285  0.3501  0.1737 -3.4804
 3030TIP3    H230506   3.709   6.626   4.316 -0.2928  0.4168 -1.5527
 3031TIP3   OH230507   1.512   6.751   0.231  0.2770 -0.4845 -0.2213
 3031TIP3    H130508   1.495   6.703   0.312 -1.1336 -1.4872 -1.0968
 3031TIP3    H230509   1.520   6.683   0.164  0.5881  0.3863 -1.0850
 3032TIP3   OH230510   5.126   2.971   1.831  0.2854  0.0088  0.4314
 3032TIP3    H130511   5.034   2.985   1.809 -0.4170 -0.1690  2.9903
 3032TIP3    H230512   5.174   3.007   1.758 -1.8342 -0.4992 -1.2776
 3033TIP3   OH230513   6.320   5.806   4.427 -0.0179 -0.4249 -0.2011
 3033TIP3    H130514   6.309   5.727   4.479 -0.5714  0.3626  0.8763
 3033TIP3    H230515   6.357   5.774   4.344  0.5007 -1.7208  0.5035
 3034TIP3   OH230516   5.210   6.573  14.373 -0.0527 -0.4393 -0.5923
 3034TIP3    H130517   5.222   6.617  14.289 -0.4626  0.7632 -0.0396
 3034TIP3    H230518   5.152   6.499  14.354 -1.4455  0.7606 -1.0888
 3035TIP3   OH230519   3.622   1.696   5.517 -0.2583 -0.4371  0.5165
 3035TIP3    H130520   3.591   1.784   5.537  0.9153 -0.0384  0.6653
 3035TIP3    H230521   3.591   1.642   5.590 -1.3792 -0.2377  0.1843
 3036TIP3   OH230522   1.471   2.698   3.988  0.2844 -0.1563 -0.2418
 3036TIP3    H130523   1.396   2.758   3.983 -0.4855 -1.0741  0.1046
 3036TIP3    H230524   1.531   2.740   4.050  0.0861  0.6215 -0.5731
 3037TIP3   OH230525   6.631   0.095   1.844  0.1355  0.1814 -0.4458
 3037TIP3    H130526   6.622   0.012   1.891  2.5282 -0.7228 -1.5237
 3037TIP3    H230527   6.711   0.134   1.878  0.0674  1.1204 -1.3262
 3038TIP3   OH230528   0.908   2.157  14.707  0.3616 -0.4131 -0.5137
 3038TIP3    H130529   0.926   2.064  14.694 -1.0490 -0.7373 -0.2436
 3038TIP3    H230530   0.992   2.201  14.691  0.6673 -1.5802 -2.1843
 3039TIP3   OH230531   5.685   3.110  16.856 -0.5827 -0.4924  0.0153
 3039TIP3    H130532   5.765   3.090  16.905 -0.4951  0.1362  0.1422
 3039TIP3    H230533   5.632   3.162  16.917 -1.1191 -0.9755 -0.0391
 3040TIP3   OH230534   0.029   0.189   5.256 -0.3455 -0.3419  0.0569
 3040TIP3    H130535  -0.039   0.129   5.289 -1.7332  2.2233  2.0695
 3040TIP3    H230536   0.103   0.175   5.314 -0.1881 -1.0452 -0.3082
 3041TIP3   OH230537   3.226   3.372   4.471  0.2170  0.4483 -0.1565
 3041TIP3    H130538   3.297   3.436   4.480 -0.7492  1.4554  0.3043
 3041TIP3    H230539   3.232   3.343   4.379 -0.0797  2.0588 -0.6905
 3042TIP3   OH230540   6.527   2.313   3.013  0.1992 -0.3434  0.6138
 3042TIP3    H130541   6.598   2.319   2.949 -0.5558 -1.4056 -0.3257
 3042TIP3    H230542   6.479   2.234   2.990 -0.3397 -0.5114  2.2408
 3043TIP3   OH230543   3.753   3.821  16.266  0.2961  0.3387  0.2004
 3043TIP3    H130544   3.840   3.782  16.254 -0.5303 -1.1578 -0.9859
 3043TIP3    H230545   3.693   3.747  16.272 -0.8663  1.3505  1.5255
 3044TIP3   OH230546   6.477   1.598   0.087 -0.1171  0.0089 -0.8550
 3044TIP3    H130547   6.513   1.596   0.175 -1.9662 -0.7253 -0.0843
 3044TIP3    H230548   6.458   1.691   0.071  1.3796  0.3053 -0.9924
 3045TIP3   OH230549   1.246   6.145   2.839  0.3236  0.2566 -0.7953
 3045TIP3    H130550   1.212   6.208   2.775 -0.2642 -0.3997 -1.1363
 3045TIP3    H230551   1.195   6.162   2.919  0.5382  0.5678 -0.7213
 3046TIP3   OH230552   5.338   6.295  15.950  0.5880  0.5659  0.5499
 3046TIP3    H130553   5.273   6.273  16.016  0.8605  1.1027  1.0054
 3046TIP3    H230554   5.353   6.213  15.902 -3.4141  1.3073 -2.2617
 3047TIP3   OH230555   5.008   0.066  12.278 -0.2481 -0.5088  0.0278
 3047TIP3    H130556   4.993  -0.003  12.214 -0.6766 -0.1388 -0.2698
 3047TIP3    H230557   5.087   0.111  12.248 -1.1321  0.4393 -0.9212
 3048TIP3   OH230558   5.926   0.364  17.226  0.5467 -0.0137  0.2374
 3048TIP3    H130559   5.965   0.277  17.219 -0.6016 -0.7488  2.2888
 3048TIP3    H230560   5.875   0.360  17.307 -1.1110  1.9523 -0.6724
 3049TIP3   OH230561   2.957   4.278  10.988 -0.6497 -0.1479 -0.4734
 3049TIP3    H130562   2.997   4.339  10.925 -0.1932 -1.0346 -1.0549
 3049TIP3    H230563   3.030   4.222  11.015 -0.7712  0.4316  1.1004
 3050TIP3   OH230564   2.970   6.104  12.014 -0.2294 -0.1602  0.2604
 3050TIP3    H130565   2.960   6.196  12.037 -2.3731 -0.2377 -0.2774
 3050TIP3    H230566   2.892   6.083  11.963  0.9445 -1.8845 -0.9009
 3051TIP3   OH230567   5.703   3.106  11.362  0.7387  0.3768  0.7714
 3051TIP3    H130568   5.697   3.192  11.403  1.7480  0.4934  0.6866
 3051TIP3    H230569   5.700   3.124  11.268  2.9970  0.4966  0.7131
 3052TIP3   OH230570   5.690   0.076   5.361 -0.1960  0.0771 -0.8189
 3052TIP3    H130571   5.690   0.091   5.455 -1.8710 -2.1491 -0.4368
 3052TIP3    H230572   5.598   0.082   5.335  0.0218 -1.2304 -1.9741
 3053TIP3   OH230573   6.276   1.090   4.614  0.6525  0.0057  0.3424
 3053TIP3    H130574   6.190   1.091   4.572  0.1216  0.2277  1.3920
 3053TIP3    H230575   6.338   1.081   4.542 -0.2957 -1.2801 -0.3428
 3054TIP3   OH230576   1.854   1.368  16.443  0.2353 -0.1524  0.0748
 3054TIP3    H130577   1.941   1.393  16.473  0.4304  0.3980 -0.9487
 3054TIP3    H230578   1.829   1.437  16.381 -0.9321 -0.2983  0.3704
 3055TIP3   OH230579   0.404   0.141  11.732  0.4532  0.0566  0.8477
 3055TIP3    H130580   0.440   0.053  11.742  0.5974  0.0622  0.4036
 3055TIP3    H230581   0.309   0.128  11.730  0.4884 -0.1436  0.3233
 3056TIP3   OH230582   2.275   2.619  12.718  0.0253  0.5907  0.6944
 3056TIP3    H130583   2.363   2.602  12.753 -0.9509 -2.2995  1.9172
 3056TIP3    H230584   2.235   2.677  12.782  1.2975  2.5589 -0.2698
 3057TIP3   OH230585   6.177   3.503  16.746 -0.5451  0.1939  0.3333
 3057TIP3    H130586   6.204   3.414  16.724 -0.0306  0.2641  0.6625
 3057TIP3    H230587   6.175   3.505  16.842  1.0038  0.9812  0.3648
 3058TIP3   OH230588   6.733   3.849   4.567 -0.1661 -0.4419 -0.1267
 3058TIP3    H130589   6.688   3.899   4.498  2.1328  0.5766 -0.9507
 3058TIP3    H230590   6.746   3.762   4.529  1.2945  0.1842 -1.0865
 3059TIP3   OH230591   2.215   3.181  12.649  0.1436 -0.3444 -0.8242
 3059TIP3    H130592   2.235   3.242  12.577  0.7078  0.2700 -0.1490
 3059TIP3    H230593   2.134   3.216  12.687 -0.7662 -1.2843 -1.8257
 3060TIP3   OH230594   3.107   5.836   0.990 -0.0755  0.4091 -0.5083
 3060TIP3    H130595   3.050   5.909   1.013 -0.8950 -0.6935  1.0905
 3060TIP3    H230596   3.049   5.773   0.946  0.0374 -0.4317  0.5301
 3061TIP3   OH230597   2.327   4.695  11.553  0.4093  0.4462  0.0088
 3061TIP3    H130598   2.402   4.678  11.611  0.8580 -0.4825 -0.8240
 3061TIP3    H230599   2.251   4.691  11.610  0.7714 -1.3623  0.3860
 3062TIP3   OH230600   0.131   2.476   2.051 -0.5251  0.3621 -0.1896
 3062TIP3    H130601   0.224   2.484   2.069 -0.0342 -0.3292 -2.2644
 3062TIP3    H230602   0.109   2.387   2.078 -0.0564 -0.2617 -1.7995
 3063TIP3   OH230603   4.625   0.855   2.795  0.6166  0.0807 -0.0238
 3063TIP3    H130604   4.543   0.870   2.748 -0.8969 -2.0098  1.8620
 3063TIP3    H230605   4.608   0.885   2.884  0.4080 -4.2634  1.5306
 3064TIP3   OH230606   2.373   5.666  13.358 -0.2834 -0.3565 -0.0087
 3064TIP3    H130607   2.323   5.748  13.353 -0.3942 -0.4247 -0.0509
 3064TIP3    H230608   2.422   5.672  13.440 -1.3216 -0.8218  0.6669
 3065TIP3   OH230609   6.420   2.947  14.469 -0.1871 -0.4330  0.1526
 3065TIP3    H130610   6.472   2.914  14.397  0.6731 -0.2220  0.6692
 3065TIP3    H230611   6.338   2.976  14.429  0.1027 -0.7385 -0.6629
 3066TIP3   OH230612   4.350   4.871  13.146 -0.3735 -0.0006  0.3479
 3066TIP3    H130613   4.275   4.863  13.087  0.1589  0.4927 -0.4027
 3066TIP3    H230614   4.426   4.848  13.092 -0.0571 -1.3431  1.3312
 3067TIP3   OH230615   4.490   2.013   3.897  0.2836  0.5444 -0.0958
 3067TIP3    H130616   4.425   2.003   3.827 -1.7521  0.7764  1.7083
 3067TIP3    H230617   4.501   1.924   3.931 -0.0035  0.6856  0.3754
 3068TIP3   OH230618   4.613   0.636   1.748 -0.3319  0.5385  0.2440
 3068TIP3    H130619   4.697   0.631   1.702  0.4770 -3.1289  1.9939
 3068TIP3    H230620   4.636   0.662   1.837 -1.0105 -0.8167  0.8268
 3069TIP3   OH230621   3.171   4.351  11.891 -0.0987  0.0298 -0.2266
 3069TIP3    H130622   3.204   4.287  11.955 -0.2880  1.1042  0.9676
 3069TIP3    H230623   3.077   4.356  11.909 -0.0004  1.0072  0.0237
 3070TIP3   OH230624   1.195   4.522   5.576  0.1786  0.1647  0.1366
 3070TIP3    H130625   1.190   4.546   5.668 -1.0678 -0.0877  0.1436
 3070TIP3    H230626   1.105   4.500   5.552  0.6489 -0.6740 -0.8947
 3071TIP3   OH230627   5.830   6.503  15.756  0.3011  0.1941 -0.6880
 3071TIP3    H130628   5.853   6.421  15.799  0.0818  0.4224 -0.1330
 3071TIP3    H230629   5.806   6.562  15.827  0.2198  0.6655 -1.1007
 3072TIP3   OH230630   5.418   0.499   5.625  0.5128 -0.8204 -0.4403
 3072TIP3    H130631   5.408   0.556   5.701  1.3001 -0.0857 -0.8773
 3072TIP3    H230632   5.387   0.413   5.654 -0.0230 -0.3364  0.4328
 3073TIP3   OH230633   6.497   2.729  16.876  0.8115 -0.0051  0.4529
 3073TIP3    H130634   6.578   2.781  16.886  1.5943 -0.6941 -1.9470
 3073TIP3    H230635   6.433   2.792  16.844  0.7774  0.2416  0.9987
 3074TIP3   OH230636   2.180   3.682   2.169  0.2132  0.0382  0.0489
 3074TIP3    H130637   2.156   3.679   2.261  0.2555  0.5632  0.0788
 3074TIP3    H230638   2.143   3.765   2.137 -1.0158 -0.8001 -0.7453
 3075TIP3   OH230639   3.220   0.860   3.145  0.2348 -0.4998 -0.2454
 3075TIP3    H130640   3.252   0.886   3.231  1.5279 -1.4358 -0.4201
 3075TIP3    H230641   3.215   0.764   3.150 -1.2729 -0.4540 -0.6778
 3076TIP3   OH230642   5.464   4.966  10.457 -0.0609 -0.1495  0.0446
 3076TIP3    H130643   5.551   4.989  10.428 -0.6409 -0.0230 -1.6370
 3076TIP3    H230644   5.405   5.025  10.409 -1.0221  0.3250  1.7577
 3077TIP3   OH230645   3.183   3.396  12.859 -0.6465  0.0465 -0.0395
 3077TIP3    H130646   3.161   3.480  12.899 -1.6233 -0.1533 -0.1553
 3077TIP3    H230647   3.144   3.400  12.772  0.2570 -0.0915 -0.4587
 3078TIP3   OH230648   2.811   3.990   4.890 -0.4394 -0.1572 -0.7476
 3078TIP3    H130649   2.843   4.008   4.979 -1.0140  0.5903 -0.6879
 3078TIP3    H230650   2.889   4.001   4.835  0.2181 -1.8939 -0.2061
 3079TIP3   OH230651   5.075   3.423  15.987  0.0183 -0.5931  0.0279
 3079TIP3    H130652   5.006   3.361  15.963 -0.8967  0.7895 -0.9584
 3079TIP3    H230653   5.093   3.403  16.079 -0.8718 -1.7368 -0.0266
 3080TIP3   OH230654   1.544   0.485   4.386 -0.7356  0.6907  0.1839
 3080TIP3    H130655   1.515   0.525   4.305 -1.8888 -0.2915  0.1060
 3080TIP3    H230656   1.465   0.476   4.439 -0.1975  0.1855  0.9252
 3081TIP3   OH230657   1.660   3.617  14.621  0.1045 -0.2384  0.0049
 3081TIP3    H130658   1.594   3.683  14.604  0.0939 -0.3578 -0.4285
 3081TIP3    H230659   1.638   3.545  14.561  2.0505  0.7058 -1.8929
 3082TIP3   OH230660   3.028   0.353  15.475 -1.1113 -0.5060  0.1786
 3082TIP3    H130661   3.004   0.311  15.558 -1.6388 -0.9566 -0.1991
 3082TIP3    H230662   3.087   0.424  15.500 -0.9600 -0.8819  0.9063
 3083TIP3   OH230663   0.559   3.040   5.355 -0.2693 -0.5336  0.5546
 3083TIP3    H130664   0.562   3.001   5.268  0.6688 -0.5908  0.6033
 3083TIP3    H230665   0.583   3.132   5.342 -0.7264 -0.3959  0.6719
 3084TIP3   OH230666   1.230   2.462  13.591  0.1366  0.4338  0.2740
 3084TIP3    H130667   1.197   2.463  13.501  0.9092 -2.1459 -0.0985
 3084TIP3    H230668   1.153   2.441  13.644 -0.1503  1.0702  0.1063
 3085TIP3   OH230669   5.533   6.110   5.063 -0.5489 -0.5727  0.3883
 3085TIP3    H130670   5.580   6.176   5.013 -0.1457 -0.1053  1.3722
 3085TIP3    H230671   5.463   6.081   5.005 -2.0747  2.2882  0.7143
 3086TIP3   OH230672   3.525   6.693  13.656 -0.0681 -0.5806 -0.2451
 3086TIP3    H130673   3.577   6.772  13.668 -1.3918  0.3070 -0.1837
 3086TIP3    H230674   3.556   6.655  13.574  2.5387 -1.5602  1.1187
 3087TIP3   OH230675   0.160   0.717  14.341 -0.0440 -0.2788 -0.3410
 3087TIP3    H130676   0.083   0.761  14.305  0.4344  0.8890  0.0716
 3087TIP3    H230677   0.225   0.721  14.270 -0.1681 -0.7999 -0.4931
 3088TIP3   OH230678   0.929   6.643   5.062  0.5173  0.2083 -0.0207
 3088TIP3    H130679   0.978   6.722   5.040  0.8215  0.4420  1.4829
 3088TIP3    H230680   0.987   6.571   5.039  0.3151  0.4123 -1.2120
 3089TIP3   OH230681   2.860   0.218   4.022  0.3868  0.4902  0.5088
 3089TIP3    H130682   2.792   0.151   4.017 -0.6133  1.3999  1.4894
 3089TIP3    H230683   2.923   0.184   4.085  0.5872 -0.1326 -0.0241
 3090TIP3   OH230684   1.163   2.705  10.852  0.5826 -0.3333 -0.0004
 3090TIP3    H130685   1.231   2.772  10.842  0.6693 -0.1003  1.9267
 3090TIP3    H230686   1.108   2.737  10.923 -0.5609 -1.3459 -0.4161
 3091TIP3   OH230687   4.571   2.222  12.871  0.0957 -0.1228 -0.1749
 3091TIP3    H130688   4.549   2.240  12.780  0.6531 -0.7900 -0.4409
 3091TIP3    H230689   4.629   2.294  12.896 -0.1005  0.0895 -0.3325
 3092TIP3   OH230690   2.624   1.231  15.348 -0.1033  0.6257  0.0752
 3092TIP3    H130691   2.642   1.318  15.385 -0.3242  1.0396 -0.7681
 3092TIP3    H230692   2.603   1.248  15.256 -1.3087 -0.2063  0.1767
 3093TIP3   OH230693   5.981   3.974  11.114 -0.0288  0.3734 -0.6044
 3093TIP3    H130694   5.986   3.978  11.209  1.1106 -0.0784 -0.6328
 3093TIP3    H230695   5.903   3.922  11.095 -0.5574  0.9122  0.0659
 3094TIP3   OH230696   0.556   2.756   0.024  0.6885 -0.0948 -0.3626
 3094TIP3    H130697   0.513   2.719   0.101 -1.8872 -1.1222 -2.1719
 3094TIP3    H230698   0.584   2.679  -0.027  0.9840  0.5326 -1.1651
 3095TIP3   OH230699   1.010   4.466  11.777 -0.6484  0.0165  0.0925
 3095TIP3    H130700   0.948   4.532  11.745  1.3022  2.4260  1.1286
 3095TIP3    H230701   0.982   4.448  11.867  0.3367  1.3646  0.6787
 3096TIP3   OH230702   5.809   4.998   0.885 -0.0562  0.1423  0.6094
 3096TIP3    H130703   5.719   4.971   0.865  0.2562  1.0379 -2.1731
 3096TIP3    H230704   5.802   5.092   0.902  0.3118  0.1352  0.7978
 3097TIP3   OH230705   2.535   2.661   5.633  0.0632  0.3193 -0.2056
 3097TIP3    H130706   2.533   2.712   5.552  0.9577  0.9552  0.1610
 3097TIP3    H230707   2.600   2.705   5.687 -1.6558  0.8537  1.4883
 3098TIP3   OH230708   3.901   6.249   4.369  0.1429 -0.3289  0.3851
 3098TIP3    H130709   3.989   6.262   4.333  0.5165  0.2202  1.4488
 3098TIP3    H230710   3.847   6.226   4.294  1.0838 -0.1036 -0.3712
 3099TIP3   OH230711   2.044   0.709  11.742 -0.7381  0.3957  0.3871
 3099TIP3    H130712   2.107   0.752  11.800 -1.6616  0.9362  1.0015
 3099TIP3    H230713   2.076   0.727  11.654 -0.1640  0.8717  0.6927
 3100TIP3   OH230714   6.606   2.989   3.957 -0.7024 -0.4237  0.2903
 3100TIP3    H130715   6.556   2.934   3.897 -1.2603  0.1290  0.2523
 3100TIP3    H230716   6.575   3.078   3.940  0.4671 -0.0478  0.0861
 3101TIP3   OH230717   0.506   3.156   3.280  0.4888 -0.3090 -0.0096
 3101TIP3    H130718   0.487   3.215   3.207  2.0852 -0.1065 -0.2775
 3101TIP3    H230719   0.461   3.195   3.355 -2.1350 -1.1190 -1.0754
 3102TIP3   OH230720   1.985   1.292  14.362 -0.0261  0.4474 -0.1930
 3102TIP3    H130721   1.996   1.207  14.405  0.3592 -0.6050 -2.2781
 3102TIP3    H230722   2.050   1.290  14.291  0.7809  2.9626  0.4310
 3103TIP3   OH230723   4.659   4.641  15.553 -0.4044 -0.0683 -0.2209
 3103TIP3    H130724   4.740   4.692  15.559 -0.2328 -0.3877  0.2798
 3103TIP3    H230725   4.595   4.693  15.601  0.3509 -1.4262  2.3767
 3104TIP3   OH230726   4.724   4.458   5.639  0.2218  0.0448  0.1656
 3104TIP3    H130727   4.745   4.513   5.714  1.5922 -0.6549  0.3024
 3104TIP3    H230728   4.687   4.378   5.677  0.3340 -0.0533  0.0701
 3105TIP3   OH230729   1.153   3.700   3.136  0.1672 -0.1533 -0.3302
 3105TIP3    H130730   1.092   3.774   3.129 -1.7232 -1.5684  0.7426
 3105TIP3    H230731   1.119   3.648   3.209  1.1647 -2.3685 -1.4245
 3106TIP3   OH230732   2.105   3.890  12.248 -0.3723  0.0131  0.4457
 3106TIP3    H130733   2.162   3.920  12.318  1.9848  2.6449 -2.4520
 3106TIP3    H230734   2.139   3.803  12.225  0.7226  0.4044  0.5762
 3107TIP3   OH230735   1.101   1.192  12.360 -0.1504 -0.1190 -0.2294
 3107TIP3    H130736   1.038   1.256  12.329  2.5589  1.4592 -2.7694
 3107TIP3    H230737   1.082   1.113  12.309 -0.4066  0.1854 -0.6069
 3108TIP3   OH230738   4.870   0.165  14.335  0.7974  0.7440  0.4926
 3108TIP3    H130739   4.958   0.171  14.297  0.8796 -0.0758  0.5483
 3108TIP3    H230740   4.866   0.238  14.396  1.3850  0.8835  0.3762
 3109TIP3   OH230741   1.319   3.368  15.615  0.5436 -0.0269  0.5203
 3109TIP3    H130742   1.270   3.288  15.597 -0.7086  0.8792 -0.1385
 3109TIP3    H230743   1.256   3.426  15.659  0.9521  1.2198 -0.5169
 3110TIP3   OH230744   1.934   0.562  14.738 -0.2613 -0.1311  1.0844
 3110TIP3    H130745   1.915   0.636  14.681  1.2452 -0.6049 -0.0693
 3110TIP3    H230746   1.931   0.598  14.827 -1.1374  0.9329  0.6295
 3111TIP3   OH230747   6.618   5.143   0.791  0.7428 -0.0998  0.0821
 3111TIP3    H130748   6.639   5.188   0.873  0.8220 -0.9824  0.5469
 3111TIP3    H230749   6.555   5.076   0.815  0.3359  0.0053 -0.6779
 3112TIP3   OH230750   5.747   5.241   5.116 -0.5832  0.1806  0.3239
 3112TIP3    H130751   5.760   5.334   5.100 -0.1686  0.0224 -0.2889
 3112TIP3    H230752   5.736   5.202   5.029 -0.2101 -0.4180  0.5371
 3113TIP3   OH230753   3.878   0.361  16.871 -0.1513 -0.1503 -0.3047
 3113TIP3    H130754   3.788   0.333  16.857 -0.2953 -0.9578  2.1482
 3113TIP3    H230755   3.871   0.437  16.928  0.5758  1.7145 -2.6010
 3114TIP3   OH230756   3.298   5.254   5.769  0.7499  0.2110 -0.6356
 3114TIP3    H130757   3.285   5.346   5.792 -0.1961 -0.6958  2.7262
 3114TIP3    H230758   3.212   5.224   5.740  1.1236  0.4601 -1.9969
 3115TIP3   OH230759   0.440   6.588   0.945 -0.0303 -0.4571  0.3186
 3115TIP3    H130760   0.509   6.654   0.953 -1.3622  1.1982 -1.1698
 3115TIP3    H230761   0.368   6.623   0.998 -0.4931 -1.0808  0.1066
 3116TIP3   OH230762   4.185   5.642   1.489 -0.0835 -0.3003  0.6357
 3116TIP3    H130763   4.119   5.591   1.536 -0.4479  0.4159  0.9129
 3116TIP3    H230764   4.216   5.706   1.553  0.7003 -0.4674  0.4277
 3117TIP3   OH230765   1.949   6.695   5.715 -0.4508 -0.0374  0.2386
 3117TIP3    H130766   1.900   6.679   5.796 -0.0119 -3.3990 -0.1266
 3117TIP3    H230767   2.040   6.700   5.742 -0.3005 -1.1924 -0.0587
 3118TIP3   OH230768   5.499   5.257  13.054 -0.0029 -0.4013 -0.2683
 3118TIP3    H130769   5.500   5.352  13.066  0.1568 -0.3537 -0.6690
 3118TIP3    H230770   5.526   5.243  12.964  0.4671 -0.8518 -0.0643
 3119TIP3   OH230771   6.042   0.115  17.191  0.0584 -0.2106 -0.0985
 3119TIP3    H130772   6.123   0.092  17.146  0.3679 -2.9297  1.7383
 3119TIP3    H230773   5.986   0.039  17.180 -1.9624  1.3234 -0.6401
 3120TIP3   OH230774   0.185   6.553  15.378  0.2185 -0.2254  0.4723
 3120TIP3    H130775   0.270   6.553  15.421  0.7502  0.0497 -0.5748
 3120TIP3    H230776   0.197   6.497  15.301 -0.6790 -0.5694  0.5755
 3121TIP3   OH230777   1.625   4.686  14.274  0.0410 -0.2291  0.8744
 3121TIP3    H130778   1.686   4.718  14.341 -0.3053  0.6425  0.7766
 3121TIP3    H230779   1.668   4.608  14.238  1.8985  1.3248 -0.3619
 3122TIP3   OH230780   1.652   3.756  11.838 -0.9298  0.1556  0.0213
 3122TIP3    H130781   1.746   3.736  11.833 -0.7360  1.2356 -0.9840
 3122TIP3    H230782   1.609   3.671  11.836  0.0084 -0.3331  0.0649
 3123TIP3   OH230783   3.911   5.085   4.641 -0.4202 -0.1747 -0.5575
 3123TIP3    H130784   3.967   5.045   4.574  0.1527 -0.0623 -0.1564
 3123TIP3    H230785   3.922   5.179   4.628  2.0662 -0.0945  1.5750
 3124TIP3   OH230786   2.927   0.192  14.713  0.1175  0.4041 -0.1326
 3124TIP3    H130787   2.886   0.107  14.693 -0.7055  0.7395  0.0946
 3124TIP3    H230788   3.021   0.175  14.709  0.1448 -1.8893  5.1149
 3125TIP3   OH230789   2.716   3.570   6.587  0.4642 -0.0106  0.1838
 3125TIP3    H130790   2.670   3.620   6.519 -0.0349  0.1804  0.6541
 3125TIP3    H230791   2.739   3.487   6.544  2.3914  1.0940 -0.9636
 3126TIP3   OH230792   1.842   1.811   0.981  0.1598  0.3684  0.2299
 3126TIP3    H130793   1.897   1.879   0.942  1.6120 -1.2089 -0.5230
 3126TIP3    H230794   1.826   1.749   0.910 -2.5306  0.7302  0.4613
 3127TIP3   OH230795   5.650   2.060   4.041  0.1018  0.0594 -0.2794
 3127TIP3    H130796   5.556   2.075   4.032  0.0453  0.4331  0.9348
 3127TIP3    H230797   5.667   2.064   4.135  1.3419  0.0605 -0.4916
 3128TIP3   OH230798   3.237   4.530   5.263 -0.2738 -0.7981 -0.2369
 3128TIP3    H130799   3.152   4.521   5.306 -0.1886  1.4993  0.4943
 3128TIP3    H230800   3.226   4.603   5.201  0.6664 -1.6215 -1.4020
 3129TIP3   OH230801   1.994   5.281   4.145  0.1358 -0.3322  0.1959
 3129TIP3    H130802   2.015   5.188   4.154 -0.8257 -0.4843  0.9630
 3129TIP3    H230803   2.017   5.319   4.229  0.0408  0.0306  0.0592
 3130TIP3   OH230804   3.384   6.018  11.623  0.2031 -0.3637 -0.0830
 3130TIP3    H130805   3.367   6.112  11.627  0.3169 -0.0913 -4.2266
 3130TIP3    H230806   3.477   6.010  11.643  0.1846  0.4106  0.3239
 3131TIP3   OH230807   5.074   5.552  15.104 -0.1005  0.4160  0.3191
 3131TIP3    H130808   5.066   5.522  15.014 -0.4490 -0.0899  0.5188
 3131TIP3    H230809   5.032   5.484  15.156  1.3674  0.0136  0.9875
 3132TIP3   OH230810   5.503   3.392   0.170 -0.0898 -0.0935 -0.3527
 3132TIP3    H130811   5.594   3.365   0.186 -0.4651 -0.6851  0.8593
 3132TIP3    H230812   5.454   3.310   0.166 -0.9103  0.2856  1.2490
 3133TIP3   OH230813   4.443   4.999  15.481  0.6206  0.2539 -0.1041
 3133TIP3    H130814   4.438   5.075  15.539 -1.0279 -0.1977  0.3714
 3133TIP3    H230815   4.357   4.957  15.489  0.6623 -0.2970 -2.2155
 3134TIP3   OH230816   5.630   2.094  14.843 -0.1763 -0.3508  0.0650
 3134TIP3    H130817   5.550   2.043  14.832  0.2955 -0.8524 -1.2221
 3134TIP3    H230818   5.685   2.040  14.900 -0.1107 -0.7771 -0.3961
 3135TIP3   OH230819   5.967   0.799  10.378 -0.0355  0.4337 -0.6473
 3135TIP3    H130820   5.891   0.848  10.346  0.7076  1.1587 -1.3151
 3135TIP3    H230821   5.937   0.761  10.461 -0.4196  2.5428  0.2029
 3136TIP3   OH230822   2.300   3.966  12.423  0.2089 -0.4920  0.1601
 3136TIP3    H130823   2.353   4.045  12.422 -0.6539  0.0940 -0.4488
 3136TIP3    H230824   2.358   3.898  12.457  1.1337  0.2754  0.1328
 3137TIP3   OH230825   1.771   1.637   0.482 -0.0252 -0.1742 -0.2073
 3137TIP3    H130826   1.773   1.543   0.465 -1.0736 -0.3276  0.4714
 3137TIP3    H230827   1.709   1.647   0.555  1.1096  0.9014  0.6301
 3138TIP3   OH230828   6.273   1.299   3.490 -0.0101 -0.1267 -0.0642
 3138TIP3    H130829   6.291   1.228   3.552 -2.0716 -0.6779 -0.0523
 3138TIP3    H230830   6.317   1.272   3.409  1.1803 -0.2629  0.6106
 3139TIP3   OH230831   2.838   2.167  14.906 -0.1790  0.1321  0.6017
 3139TIP3    H130832   2.833   2.161  15.002  0.0239 -1.9789  0.5186
 3139TIP3    H230833   2.792   2.247  14.884  1.7713  1.8751  2.6360
 3140TIP3   OH230834   3.674   1.636  11.682  1.1564  0.2328 -0.4295
 3140TIP3    H130835   3.719   1.661  11.601  1.5605  0.0900 -0.2503
 3140TIP3    H230836   3.585   1.671  11.672  1.2338  0.3022 -0.8908
 3141TIP3   OH230837   1.459   5.355  13.068 -1.2036 -0.4410 -1.1447
 3141TIP3    H130838   1.465   5.408  12.988 -0.9775 -0.8197 -1.3785
 3141TIP3    H230839   1.367   5.329  13.073 -1.4339  0.4273 -0.7363
 3142TIP3   OH230840   2.761   6.302  17.216  0.3029 -0.1662 -0.1235
 3142TIP3    H130841   2.667   6.319  17.228  0.2749 -0.9847  0.8529
 3142TIP3    H230842   2.767   6.266  17.128 -0.0412  1.7657 -0.9837
 3143TIP3   OH230843   3.378   5.648   5.266 -0.6786 -0.2378 -0.3455
 3143TIP3    H130844   3.413   5.728   5.226  2.6609 -0.3603  2.0919
 3143TIP3    H230845   3.428   5.578   5.225  0.3326 -0.6175  1.4997
 3144TIP3   OH230846   1.022   2.124  10.946 -0.1662 -0.4609  0.0020
 3144TIP3    H130847   1.070   2.120  10.863  2.5685 -1.1271  1.5460
 3144TIP3    H230848   0.939   2.081  10.928  0.2550 -0.2855 -2.4891
 3145TIP3   OH230849   2.703   0.524   0.706 -0.6510  0.0366 -0.2641
 3145TIP3    H130850   2.788   0.545   0.666 -1.1369  0.8961 -0.8526
 3145TIP3    H230851   2.704   0.572   0.789 -0.7051  0.3258 -0.4305
 3146TIP3   OH230852   4.476   2.009   2.537  0.5006 -0.0891 -0.0226
 3146TIP3    H130853   4.515   1.969   2.615  1.6945  2.4033  0.7206
 3146TIP3    H230854   4.538   1.988   2.467  0.6249 -0.3747  0.1714
 3147TIP3   OH230855   6.353   3.403   2.541  0.5233  0.7274  0.2980
 3147TIP3    H130856   6.278   3.364   2.586  0.4899 -1.1029 -1.2837
 3147TIP3    H230857   6.316   3.479   2.495  0.3260  1.8734  2.2517
 3148TIP3   OH230858   1.184   3.261   0.433 -0.7093  0.2158 -0.1172
 3148TIP3    H130859   1.152   3.346   0.401 -1.8910 -0.9723 -2.2084
 3148TIP3    H230860   1.145   3.252   0.520 -2.6937  0.6883 -0.9327
 3149TIP3   OH230861   5.724   1.154  13.226 -0.2329 -0.4054  0.0471
 3149TIP3    H130862   5.798   1.174  13.283  0.1620 -3.2892  0.6484
 3149TIP3    H230863   5.760   1.160  13.137 -0.3128  2.0354  0.1579
 3150TIP3   OH230864   6.306   1.964  11.972 -0.0785 -0.2716  0.9041
 3150TIP3    H130865   6.247   2.039  11.976  0.3063  0.1651 -0.9935
 3150TIP3    H230866   6.391   2.001  11.948  0.4397 -1.1659  1.3084
 3151TIP3   OH230867   2.199   2.628  13.980  0.1331 -0.6260 -0.9120
 3151TIP3    H130868   2.206   2.556  13.918 -1.3176 -0.6956 -1.0141
 3151TIP3    H230869   2.109   2.621  14.014 -0.4378  1.8689 -1.8312
 3152TIP3   OH230870   5.447   6.693   0.803  0.3492 -0.3835  0.0894
 3152TIP3    H130871   5.381   6.692   0.872 -0.3856 -1.4120 -0.5969
 3152TIP3    H230872   5.510   6.759   0.830  0.3173 -1.1022  1.9576
 3153TIP3   OH230873   5.783   1.429  11.492 -0.1995  0.4307 -0.4362
 3153TIP3    H130874   5.698   1.398  11.523  0.0714  1.1003  0.9956
 3153TIP3    H230875   5.841   1.420  11.568  0.1620  3.3452 -0.3050
 3154TIP3   OH230876   5.957   3.838   5.161  0.0276 -0.4818  0.0289
 3154TIP3    H130877   5.960   3.921   5.207  0.8250 -0.3332 -0.2772
 3154TIP3    H230878   5.864   3.824   5.141 -0.3092 -0.4846  1.5388
 3155TIP3   OH230879   0.470   3.711  13.914 -0.1125  0.0608  0.2457
 3155TIP3    H130880   0.490   3.618  13.904 -1.3329 -0.2741  0.7564
 3155TIP3    H230881   0.377   3.718  13.892  0.0715  1.2387 -0.2314
 3156TIP3   OH230882   6.005   3.859  11.405 -0.4192 -0.2184 -0.5734
 3156TIP3    H130883   6.013   3.804  11.483  1.8405  1.4937  0.4534
 3156TIP3    H230884   5.939   3.924  11.429 -0.9662 -0.7134 -0.7248
 3157TIP3   OH230885   0.713   1.401   3.900  0.1573  0.7435 -0.1912
 3157TIP3    H130886   0.719   1.308   3.923  0.6754  0.8889  0.2842
 3157TIP3    H230887   0.774   1.411   3.826 -0.6714  0.5007 -0.9137
 3158TIP3   OH230888   2.987   1.171  12.545 -0.5594 -0.1694  0.3794
 3158TIP3    H130889   2.907   1.215  12.573 -1.1364  0.3341 -2.0124
 3158TIP3    H230890   2.999   1.197  12.454  0.6433 -2.7155 -0.2315
 3159TIP3   OH230891   6.133   4.663  14.531  0.3245  0.7965 -0.7234
 3159TIP3    H130892   6.093   4.584  14.495 -0.8547  2.0392 -2.2156
 3159TIP3    H230893   6.162   4.712  14.454  2.0736  1.2886  0.2369
 3160TIP3   OH230894   5.965   5.347   0.484 -0.2176 -0.4531  0.7746
 3160TIP3    H130895   5.991   5.329   0.574 -2.8372  0.9800  1.8880
 3160TIP3    H230896   5.978   5.264   0.438  1.5633 -1.0699  2.3588
 3161TIP3   OH230897   4.704   4.571   3.666 -0.4533  0.1502 -0.1259
 3161TIP3    H130898   4.616   4.571   3.630 -0.7274  2.2240  0.4571
 3161TIP3    H230899   4.735   4.660   3.651  1.1530 -0.2742  0.6215
 3162TIP3   OH230900   3.593   5.593  12.286 -0.3573 -0.5528  0.5564
 3162TIP3    H130901   3.604   5.688  12.295 -0.4773 -0.2068 -2.5248
 3162TIP3    H230902   3.499   5.579  12.290 -0.3482 -0.5217  0.8715
 3163TIP3   OH230903   0.763   2.819  10.824 -0.5215 -0.2577  0.6015
 3163TIP3    H130904   0.686   2.818  10.767 -0.9859  3.3669  1.0131
 3163TIP3    H230905   0.831   2.861  10.772 -0.2750  0.9601  1.8518
 3164TIP3   OH230906   5.390   0.778  13.461 -0.7031  0.9638  0.4640
 3164TIP3    H130907   5.431   0.858  13.429 -0.6850  1.0297  0.6524
 3164TIP3    H230908   5.463   0.721  13.486 -0.7204  0.9692  0.5266
 3165TIP3   OH230909   0.447   6.376   1.119 -0.0479 -0.4705  0.2213
 3165TIP3    H130910   0.438   6.453   1.062  0.2753 -0.1601  0.5836
 3165TIP3    H230911   0.387   6.311   1.082 -0.2813 -0.0618 -0.1209
 3166TIP3   OH230912   3.699   0.163  14.529  0.3334  0.3527 -0.1156
 3166TIP3    H130913   3.663   0.251  14.515 -0.5214  0.3403  1.8078
 3166TIP3    H230914   3.647   0.106  14.473 -0.9742  0.6962  0.7232
 3167TIP3   OH230915   2.449   5.603   3.280 -0.3108 -0.3357  0.4622
 3167TIP3    H130916   2.396   5.612   3.359  1.5916 -1.4449  1.9131
 3167TIP3    H230917   2.395   5.549   3.221 -1.5821  0.1881  1.1243
 3168TIP3   OH230918   6.107   1.258   1.164 -0.2837 -0.1957 -0.4633
 3168TIP3    H130919   6.176   1.226   1.106 -0.9325  0.4673 -1.6196
 3168TIP3    H230920   6.110   1.354   1.155  0.5671  0.0225  1.7193
 3169TIP3   OH230921   6.285   3.903   4.118 -0.2035  0.1890  0.0575
 3169TIP3    H130922   6.323   3.846   4.185 -2.2409  0.5847  1.5701
 3169TIP3    H230923   6.360   3.929   4.064  1.9412  1.9456  3.6812
 3170TIP3   OH230924   6.653   2.501   0.419  0.1594  0.2798  0.2236
 3170TIP3    H130925   6.714   2.435   0.452 -1.1169  0.1003  2.2625
 3170TIP3    H230926   6.581   2.451   0.382 -0.2396  0.5155  0.6761
 3171TIP3   OH230927   2.770   6.600  14.941 -0.9966  0.4144 -0.3188
 3171TIP3    H130928   2.704   6.559  14.886  0.3662 -2.7537  0.3086
 3171TIP3    H230929   2.852   6.559  14.915  0.5157  3.0276  0.1296
 3172TIP3   OH230930   5.357   4.413   1.736  0.3370  0.2308  0.5998
 3172TIP3    H130931   5.280   4.365   1.705  0.5213 -0.3107  0.9535
 3172TIP3    H230932   5.383   4.365   1.815  3.1049 -1.7473 -1.4141
 3173TIP3   OH230933   0.504   2.791   2.883 -0.0111  0.0115  0.3380
 3173TIP3    H130934   0.513   2.752   2.796 -0.2703 -0.5548  0.5639
 3173TIP3    H230935   0.594   2.797   2.916 -0.0421 -1.2244  0.6628
 3174TIP3   OH230936   5.248   5.279   0.518  0.6793  0.4842  0.3293
 3174TIP3    H130937   5.317   5.338   0.486 -1.0753  2.4488  0.0871
 3174TIP3    H230938   5.233   5.218   0.445  1.4584  0.6525  0.0193
 3175TIP3   OH230939   4.866   1.791   4.070  0.7580  0.0164  0.3189
 3175TIP3    H130940   4.868   1.886   4.079  0.6797 -0.1709  2.6091
 3175TIP3    H230941   4.958   1.764   4.077  0.6252 -0.2001  1.2713
 3176TIP3   OH230942   3.964   1.786   3.114 -0.4281 -0.3656  0.2032
 3176TIP3    H130943   3.916   1.858   3.072 -2.4807 -1.4747  0.5611
 3176TIP3    H230944   3.927   1.781   3.202 -0.2011 -1.7520  0.2290
 3177TIP3   OH230945   2.271   2.120   5.256 -0.5865 -0.5400  0.2061
 3177TIP3    H130946   2.293   2.213   5.263 -0.0268 -0.7608  1.6730
 3177TIP3    H230947   2.256   2.093   5.347 -3.3886 -1.2474 -0.4242
 3178TIP3   OH230948   0.950   1.574   2.254  0.0612 -0.2865 -0.1187
 3178TIP3    H130949   0.883   1.633   2.219  0.9535  0.8760  0.0898
 3178TIP3    H230950   0.933   1.490   2.212 -0.3423  0.4836 -1.5253
 3179TIP3   OH230951   6.107   0.886  13.496 -0.0484 -0.8500 -0.9475
 3179TIP3    H130952   6.153   0.805  13.517  0.9575 -0.2763 -0.8499
 3179TIP3    H230953   6.105   0.888  13.401 -0.9751 -1.4773 -0.9451
 3180TIP3   OH230954   3.260   2.306   6.511 -0.1240 -0.2013  0.0131
 3180TIP3    H130955   3.328   2.363   6.474 -0.1893  0.0361  0.2513
 3180TIP3    H230956   3.308   2.231   6.546  0.0797  0.2246  0.6765
 3181TIP3   OH230957   1.684   5.697   3.033  0.3192  0.0473 -0.3483
 3181TIP3    H130958   1.710   5.617   3.078 -0.2526 -0.4684 -0.9248
 3181TIP3    H230959   1.741   5.765   3.069  0.6171 -0.5689  0.3402
 3182TIP3   OH230960   1.905   6.501  11.226 -0.3376  0.2735 -0.0692
 3182TIP3    H130961   1.878   6.574  11.171 -0.0168  0.9445  0.6451
 3182TIP3    H230962   2.001   6.500  11.219 -0.4632 -1.6403 -2.0248
 3183TIP3   OH230963   5.630   6.395   5.984  0.4595 -0.0449 -0.6002
 3183TIP3    H130964   5.675   6.334   5.927 -0.6864 -0.6178 -0.9131
 3183TIP3    H230965   5.678   6.392   6.067  1.2508 -0.2950 -1.0706
 3184TIP3   OH230966   1.158   0.020   0.914  0.0294 -0.2233 -0.1829
 3184TIP3    H130967   1.130   0.069   0.991  2.2790  1.2938 -0.2939
 3184TIP3    H230968   1.153   0.083   0.841 -0.2483 -1.0983 -0.9342
 3185TIP3   OH230969   4.690   3.825  14.645 -0.0932  0.5570  0.1418
 3185TIP3    H130970   4.652   3.882  14.579  0.4798 -1.2786 -1.8065
 3185TIP3    H230971   4.615   3.791  14.694 -0.4290  3.0418  1.4047
 3186TIP3   OH230972   0.953   0.851  16.832  0.6779  0.1056  0.6846
 3186TIP3    H130973   0.878   0.796  16.857  0.1619  2.0048  3.4805
 3186TIP3    H230974   1.006   0.794  16.775 -0.3922 -2.9233  2.5705
 3187TIP3   OH230975   1.530   1.509  14.560  0.1213 -0.4303 -0.4320
 3187TIP3    H130976   1.505   1.571  14.493 -0.9058  0.7036  0.9639
 3187TIP3    H230977   1.567   1.563  14.630 -0.4730 -1.4106  0.6535
 3188TIP3   OH230978   6.609   0.565  15.314 -0.2372 -0.5627  0.6559
 3188TIP3    H130979   6.594   0.657  15.335  0.8338 -0.5479  1.3558
 3188TIP3    H230980   6.700   0.561  15.286  0.0844 -1.6170  1.8290
 3189TIP3   OH230981   5.230   4.813  13.217  0.7055  0.1338 -0.0859
 3189TIP3    H130982   5.248   4.891  13.164 -1.3584  0.0671 -0.9544
 3189TIP3    H230983   5.151   4.836  13.267  0.7350 -0.9983  0.4957
 3190TIP3   OH230984   2.458   4.984   1.245 -0.2841  0.0677  1.1200
 3190TIP3    H130985   2.513   4.958   1.171  0.3275 -2.3496  2.3836
 3190TIP3    H230986   2.390   5.040   1.206  0.4724 -0.5267 -1.1281
 3191TIP3   OH230987   4.670   0.143   4.571 -0.4398  0.0052 -1.0923
 3191TIP3    H130988   4.584   0.185   4.573 -1.0560 -1.2743  1.0584
 3191TIP3    H230989   4.722   0.191   4.635 -0.0380 -0.1854 -1.2742
 3192TIP3   OH230990   5.079   5.724   0.645 -0.3669 -0.4368  0.1360
 3192TIP3    H130991   5.059   5.672   0.567 -0.0491  0.7287 -0.7354
 3192TIP3    H230992   5.135   5.668   0.698  3.0311  0.3193 -2.4716
 3193TIP3   OH230993   4.991   4.062   1.028  0.2928  0.1981 -0.3381
 3193TIP3    H130994   4.935   4.120   0.977 -0.0746  2.3129  2.3935
 3193TIP3    H230995   5.024   3.999   0.964 -2.0681  1.2848 -2.7152
 3194TIP3   OH230996   1.787   0.479  11.506 -0.6772  0.1882  0.2902
 3194TIP3    H130997   1.713   0.525  11.545 -1.3688 -0.8547  0.2341
 3194TIP3    H230998   1.848   0.465  11.579 -1.7089 -1.2426  0.8985
 3195TIP3   OH230999   5.523   3.677  13.165 -0.1061 -0.0574 -0.4002
 3195TIP3    H131000   5.537   3.655  13.257  1.5598 -0.0759 -0.6308
 3195TIP3    H231001   5.435   3.713  13.162 -0.7033 -1.3494  0.9652
 3196TIP3   OH231002   1.090   2.766   0.794 -0.5025 -0.4363 -0.1109
 3196TIP3    H131003   1.130   2.795   0.712  1.3663 -2.3197  0.1001
 3196TIP3    H231004   1.011   2.720   0.768 -0.6979  0.2467 -0.7528
 3197TIP3   OH231005   2.417   5.392   0.794 -0.5579  0.2809 -0.2458
 3197TIP3    H131006   2.485   5.446   0.835 -0.0582 -0.3785 -0.2119
 3197TIP3    H231007   2.410   5.426   0.705 -0.8087  0.9274  0.0131
 3198TIP3   OH231008   3.872   4.849   1.002 -0.0864  0.2756 -0.0790
 3198TIP3    H131009   3.959   4.852   0.964  0.3021  0.0156  0.7700
 3198TIP3    H231010   3.818   4.803   0.938  0.7345 -0.8745  0.0441
 3199TIP3   OH231011   5.364   1.320   1.576  0.2019  0.7077  0.3413
 3199TIP3    H131012   5.435   1.282   1.627  0.0761  0.3039  0.2158
 3199TIP3    H231013   5.364   1.271   1.493 -2.3137 -1.5611  1.5923
 3200TIP3   OH231014   6.664   5.921  14.526  0.3372  0.1169 -0.4754
 3200TIP3    H131015   6.712   5.894  14.447  1.4982 -2.4185  1.0425
 3200TIP3    H231016   6.712   5.998  14.558  2.3684 -1.3124  0.0198
 3201TIP3   OH231017   4.164   0.344  12.563 -0.7219 -0.4141  0.1732
 3201TIP3    H131018   4.181   0.434  12.534 -1.9234  0.0413  0.8609
 3201TIP3    H231019   4.251   0.305  12.572 -0.1605  0.9432  0.6909
 3202TIP3   OH231020   4.660   0.022   3.122 -0.3886 -0.1060 -0.3205
 3202TIP3    H131021   4.717  -0.054   3.114 -0.6321 -0.2700 -0.5046
 3202TIP3    H231022   4.697   0.087   3.062  1.4848  0.9569  1.9263
 3203TIP3   OH231023   0.148   4.793   2.484 -0.1370  0.4174  0.2682
 3203TIP3    H131024   0.133   4.885   2.462  0.9359  0.3400 -0.7894
 3203TIP3    H231025   0.092   4.744   2.425  1.1854  0.2985 -0.9141
 3204TIP3   OH231026   6.508   3.875   1.594  0.4155 -0.4929 -0.1417
 3204TIP3    H131027   6.441   3.918   1.542 -0.2165 -2.0622 -0.6455
 3204TIP3    H231028   6.588   3.926   1.577  0.0032 -0.4141 -1.8603
 3205TIP3   OH231029   1.882   5.705   6.541  0.4903  0.0248  0.7578
 3205TIP3    H131030   1.874   5.632   6.603 -0.2569  0.5031  1.2265
 3205TIP3    H231031   1.799   5.751   6.547  0.8289  0.7118  0.1989
 3206TIP3   OH231032   6.657   5.109  10.681  0.2105 -0.2440  0.4475
 3206TIP3    H131033   6.576   5.059  10.671 -1.6021  2.5044  0.9211
 3206TIP3    H231034   6.649   5.181  10.618  2.4166 -0.0737  0.3073
 3207TIP3   OH231035   2.201   5.197  13.697  0.3248  0.6074 -0.7169
 3207TIP3    H131036   2.242   5.276  13.731 -1.5040  0.8436  1.0289
 3207TIP3    H231037   2.133   5.228  13.638 -0.5664  0.3716  0.1669
 3208TIP3   OH231038   5.686   2.972   5.128 -0.1516 -0.2649  0.2508
 3208TIP3    H131039   5.665   3.044   5.068  0.3447 -0.3636 -0.0425
 3208TIP3    H231040   5.672   2.893   5.076  0.1576 -0.3526  0.2977
 3209TIP3   OH231041   3.107   6.687   2.314  0.4993 -0.0985 -0.2388
 3209TIP3    H131042   3.032   6.746   2.327  1.3197  0.5273  1.8258
 3209TIP3    H231043   3.168   6.710   2.384  1.4807 -2.4220 -0.3016
 3210TIP3   OH231044   2.854   5.990  17.182  0.5420 -0.0231  0.0882
 3210TIP3    H131045   2.901   5.946  17.111 -1.9797 -1.3393 -0.8276
 3210TIP3    H231046   2.887   6.080  17.180  0.6319 -0.0651 -2.6695
 3211TIP3   OH231047   0.122   4.474   4.875  0.5799 -0.0017 -0.6158
 3211TIP3    H131048   0.113   4.548   4.934 -2.1994  0.7311 -1.8765
 3211TIP3    H231049   0.112   4.511   4.788  2.2190 -1.4346 -1.4640
 3212TIP3   OH231050   4.723   6.262  13.450  0.2662  0.4852  0.0616
 3212TIP3    H131051   4.739   6.279  13.357  3.1816  0.4665  0.5102
 3212TIP3    H231052   4.764   6.177  13.466 -0.3194  0.4271  1.3413
 3213TIP3   OH231053   2.359   4.740  14.261  0.0873 -0.4953  0.1553
 3213TIP3    H131054   2.433   4.789  14.227  0.8874 -0.7980  1.4444
 3213TIP3    H231055   2.311   4.712  14.183  1.1450 -0.0286 -0.6746
 3214TIP3   OH231056   4.495   0.875   1.602  0.8726  0.5647  0.4610
 3214TIP3    H131057   4.400   0.862   1.603  0.8513  0.7582  1.2571
 3214TIP3    H231058   4.530   0.798   1.648  1.0830  0.6167  0.3885
 3215TIP3   OH231059   2.842   1.385  13.195 -0.1544  0.2171  0.2662
 3215TIP3    H131060   2.935   1.408  13.190 -0.4509  1.4466  0.3611
 3215TIP3    H231061   2.841   1.289  13.193  1.0174  0.2287 -1.2328
 3216TIP3   OH231062   4.227   0.730  15.303  0.5114  0.0671 -0.2492
 3216TIP3    H131063   4.240   0.721  15.209 -1.6844  0.7251 -0.6346
 3216TIP3    H231064   4.217   0.640  15.335  3.9660 -0.3630 -0.1859
 3217TIP3   OH231065   2.240   0.055   0.206 -0.1265 -0.2184 -0.4107
 3217TIP3    H131066   2.180   0.068   0.280  0.5171 -0.1473  0.1020
 3217TIP3    H231067   2.267  -0.037   0.214 -1.0836 -0.5860 -1.3335
 3218TIP3   OH231068   3.053   1.939   1.650 -0.6348  0.0207 -0.0409
 3218TIP3    H131069   3.025   1.893   1.728  0.4520  1.1573  1.0437
 3218TIP3    H231070   3.105   2.012   1.682  0.3972  0.1260 -1.8483
 3219TIP3   OH231071   2.333   6.459  14.968  0.3007 -0.3541  0.5848
 3219TIP3    H131072   2.277   6.512  14.911  2.3277  2.0852  0.7854
 3219TIP3    H231073   2.305   6.481  15.057 -0.8568 -1.9176  0.6284
 3220TIP3   OH231074   6.024   4.511  11.683 -0.2179 -1.0010  0.2015
 3220TIP3    H131075   6.031   4.588  11.739 -0.5821 -0.3158 -0.7066
 3220TIP3    H231076   6.070   4.535  11.603 -1.7626 -1.1356 -0.7303
 3221TIP3   OH231077   2.245   2.512   1.405 -0.1075  0.4871  0.2123
 3221TIP3    H131078   2.176   2.478   1.462 -0.2692  0.1517 -0.1748
 3221TIP3    H231079   2.318   2.451   1.417  0.1599  0.9116  0.7127
 3222TIP3   OH231080   5.828   2.753  11.262  0.6056 -0.2846 -0.3262
 3222TIP3    H131081   5.767   2.715  11.325  2.3123 -1.4483  0.6530
 3222TIP3    H231082   5.858   2.834  11.303  2.6444 -1.6485  0.9357
 3223TIP3   OH231083   1.377   0.801   1.032 -0.1548  0.6187 -0.0213
 3223TIP3    H131084   1.286   0.811   1.002 -0.0272  1.7078 -0.0450
 3223TIP3    H231085   1.405   0.718   0.993 -1.2842  0.0364  0.3584
 3224TIP3   OH231086   6.766   1.689  15.072 -0.1404  0.1717 -0.5204
 3224TIP3    H131087   6.760   1.740  15.153 -1.6303 -0.7153 -0.0528
 3224TIP3    H231088   6.801   1.605  15.100 -5.0569 -1.8784  0.0941
 3225TIP3   OH231089   1.113   6.089  13.693  0.0709 -0.6136 -0.1562
 3225TIP3    H131090   1.202   6.113  13.665 -0.2794 -0.6266 -1.2921
 3225TIP3    H231091   1.060   6.097  13.614 -1.4613  1.8701  1.0658
 3226TIP3   OH231092   5.573   5.901  12.969 -0.2904  0.2237 -0.1507
 3226TIP3    H131093   5.528   5.864  13.044 -0.0977  2.2993  1.0263
 3226TIP3    H231094   5.545   5.992  12.967  0.1542  0.3399 -2.2582
 3227TIP3   OH231095   4.793   0.514  14.719 -0.1246 -0.1825 -0.6792
 3227TIP3    H131096   4.710   0.556  14.744 -0.2565 -0.2451 -0.9981
 3227TIP3    H231097   4.821   0.467  14.797  0.3245  0.9810 -0.1355
 3228TIP3   OH231098   3.062   3.356  12.596 -0.2783  0.7335  0.8061
 3228TIP3    H131099   3.126   3.294  12.562  1.3220  2.0552  1.3629
 3228TIP3    H231100   3.080   3.438  12.551 -1.9168  1.0094  0.5980
 3229TIP3   OH231101   5.692   5.553  14.561  0.3322 -0.5194  0.4027
 3229TIP3    H131102   5.686   5.638  14.518 -1.0353 -1.0311 -0.4590
 3229TIP3    H231103   5.679   5.489  14.491  1.1114 -1.4353  1.0802
 3230TIP3   OH231104   6.408   1.015   2.088 -0.5746 -0.2583  0.0412
 3230TIP3    H131105   6.388   0.950   2.020  0.6358  0.0864 -0.6508
 3230TIP3    H231106   6.471   0.972   2.145 -0.7305 -0.1377  0.3069
 3231TIP3   OH231107   2.758   3.413   4.303  0.7283 -0.1174  0.2642
 3231TIP3    H131108   2.710   3.346   4.254  1.1816  2.3744 -3.7283
 3231TIP3    H231109   2.691   3.477   4.327  1.3267  1.2012 -1.5483
 3232TIP3   OH231110   5.242   3.542   4.323 -0.2239  0.4222 -0.1863
 3232TIP3    H131111   5.289   3.501   4.395 -0.0813  0.4147 -0.2843
 3232TIP3    H231112   5.230   3.633   4.350 -0.7411  0.2629  0.1334
 3233TIP3   OH231113   0.666   1.799   3.079 -0.7141  0.0892 -0.0033
 3233TIP3    H131114   0.673   1.870   3.142 -0.7328  1.6714 -1.7533
 3233TIP3    H231115   0.720   1.729   3.116 -0.2977  1.1778  1.4992
 3234TIP3   OH231116   0.871   1.378   1.305 -0.1167 -0.0940  0.2165
 3234TIP3    H131117   0.877   1.448   1.370 -0.6020  0.6007 -0.4800
 3234TIP3    H231118   0.785   1.338   1.318 -0.8547  1.0536 -0.9987
 3235TIP3   OH231119   3.302   0.089  17.152  0.0202 -0.4658 -0.1472
 3235TIP3    H131120   3.266   0.176  17.134  0.2239 -0.3413  0.0453
 3235TIP3    H231121   3.396   0.097  17.135  0.3288 -0.1634  1.5742
 3236TIP3   OH231122   2.432   0.790   0.239 -0.2666 -0.7324  0.0481
 3236TIP3    H131123   2.371   0.730   0.283 -1.0905 -1.4808 -2.0336
 3236TIP3    H231124   2.393   0.876   0.250  0.3199 -0.7092  2.0674
 3237TIP3   OH231125   6.459   0.393  11.137  0.7121  0.4094 -0.0824
 3237TIP3    H131126   6.401   0.401  11.212 -1.2681 -0.0121 -1.5458
 3237TIP3    H231127   6.447   0.473  11.088  0.0596 -0.4276 -1.3031
 3238TIP3   OH231128   4.021   5.761  14.411  0.3774 -0.3229  0.0090
 3238TIP3    H131129   4.000   5.761  14.318 -0.4295  0.6097  0.1880
 3238TIP3    H231130   4.063   5.846  14.427  1.1129 -0.7426  0.3685
 3239TIP3   OH231131   4.090   2.160  15.992 -0.0058  0.2119  0.8983
 3239TIP3    H131132   4.011   2.111  15.972 -1.0013  1.0578  2.6249
 3239TIP3    H231133   4.153   2.093  16.021  0.1160 -0.5190 -0.9718
 3240TIP3   OH231134   6.539   3.138   1.377 -0.5459 -0.1283  0.0331
 3240TIP3    H131135   6.605   3.164   1.313 -1.9413  3.8944  0.0934
 3240TIP3    H231136   6.589   3.109   1.453  1.1392  0.5836 -0.7861
 3241TIP3   OH231137   5.713   6.526   1.486  0.6374  0.5547  0.4948
 3241TIP3    H131138   5.732   6.517   1.579 -1.6120  2.4679  1.1948
 3241TIP3    H231139   5.740   6.443   1.447 -0.7255 -1.2470  3.2831
 3242TIP3   OH231140   4.750   5.355   3.473 -0.3411 -0.4718 -0.7908
 3242TIP3    H131141   4.845   5.347   3.486 -0.8104 -1.2867  2.8081
 3242TIP3    H231142   4.729   5.285   3.412  1.4459  0.1422 -2.1747
 3243TIP3   OH231143   1.179   4.405  14.620  0.3955  0.4305  0.3928
 3243TIP3    H131144   1.214   4.355  14.693 -0.6582 -0.5207  0.2635
 3243TIP3    H231145   1.108   4.351  14.585  1.3409  0.5408 -1.7860
 3244TIP3   OH231146   4.057   1.450  15.530  0.0962  0.0627  0.4498
 3244TIP3    H131147   4.134   1.507  15.523 -0.6685  1.0554  0.1356
 3244TIP3    H231148   4.085   1.368  15.489  1.0863  0.3156  0.5958
 3245TIP3   OH231149   3.673   2.154   2.706  0.2034 -0.2952  0.5199
 3245TIP3    H131150   3.577   2.156   2.708  0.1388 -1.9980 -0.1099
 3245TIP3    H231151   3.699   2.175   2.796 -0.7919 -0.8913  0.9563
 3246TIP3   OH231152   1.061   3.551  13.151  0.1049 -0.1387  0.2581
 3246TIP3    H131153   1.121   3.600  13.207 -0.9988  1.9848 -0.3523
 3246TIP3    H231154   1.085   3.577  13.062 -1.9886  1.1320  0.0200
 3247TIP3   OH231155   4.762   5.021   1.272  0.4167  0.2546  1.0297
 3247TIP3    H131156   4.749   5.114   1.252 -1.0495  0.1203  1.2707
 3247TIP3    H231157   4.741   5.015   1.366 -0.3909 -0.4686  0.8067
 3248TIP3   OH231158   5.335   4.610   2.634  0.0227 -0.7140 -0.5562
 3248TIP3    H131159   5.363   4.678   2.572 -0.6600 -0.6989 -0.8606
 3248TIP3    H231160   5.415   4.580   2.675  0.3520  0.1553 -0.5541
 3249TIP3   OH231161   5.320   4.333   1.166 -0.2078 -0.2638 -0.0508
 3249TIP3    H131162   5.371   4.268   1.118  0.4091 -1.0771  1.6717
 3249TIP3    H231163   5.359   4.417   1.141  1.2880 -0.8000  0.3850
 3250TIP3   OH231164   6.142   5.780  11.526  0.0628  0.3485  0.1153
 3250TIP3    H131165   6.167   5.698  11.483  0.2160  0.4626 -0.0135
 3250TIP3    H231166   6.054   5.764  11.559  0.0435  0.1762 -0.0204
 3251TIP3   OH231167   6.678   2.035  15.772  0.1253 -0.1075  0.2728
 3251TIP3    H131168   6.706   2.018  15.862 -1.1351  0.2036  0.7326
 3251TIP3    H231169   6.743   1.991  15.718  0.5986 -0.7383  1.3465
 3252TIP3   OH231170   4.266   0.341   0.702 -0.0715  0.7895  0.0347
 3252TIP3    H131171   4.320   0.333   0.623  1.3228 -0.6203  1.1042
 3252TIP3    H231172   4.204   0.268   0.696  0.7141  0.0634  0.7604
 3253TIP3   OH231173   3.797   4.813   4.703 -0.0611 -0.6685 -0.6912
 3253TIP3    H131174   3.814   4.903   4.674 -1.8103  0.0394  0.3498
 3253TIP3    H231175   3.733   4.780   4.640 -1.3204 -0.2858  0.3478
 3254TIP3   OH231176   6.124   6.259  15.147  0.2016  0.0511 -0.2571
 3254TIP3    H131177   6.113   6.347  15.183  1.7836  0.8705 -1.7432
 3254TIP3    H231178   6.150   6.206  15.222 -0.3904  0.9243  0.5737
 3255TIP3   OH231179   2.807   4.382   2.257 -0.1620 -0.2871  0.6092
 3255TIP3    H131180   2.894   4.345   2.243 -0.7599 -0.9955 -1.4860
 3255TIP3    H231181   2.768   4.385   2.170 -2.7824 -1.3506  1.6940
 3256TIP3   OH231182   2.157   3.330  14.603  0.2421 -0.0029 -0.0524
 3256TIP3    H131183   2.126   3.342  14.693  0.0603 -1.1247  0.0458
 3256TIP3    H231184   2.077   3.326  14.551  0.3673  1.6099 -0.4108
 3257TIP3   OH231185   0.280   3.034   5.141 -0.3342 -0.9676 -0.2368
 3257TIP3    H131186   0.302   3.026   5.048 -1.9661 -1.0749 -0.6152
 3257TIP3    H231187   0.295   2.946   5.176  1.8552 -0.5450 -0.0370
 3258TIP3   OH231188   5.514   1.077   5.543 -0.5193 -0.4515  0.3585
 3258TIP3    H131189   5.543   1.000   5.493 -0.2963 -0.8744  1.1304
 3258TIP3    H231190   5.423   1.089   5.516 -0.8576 -1.5895  0.9437
 3259TIP3   OH231191   5.818   1.002  15.095  0.1667  0.1046  0.3939
 3259TIP3    H131192   5.813   1.081  15.148 -2.2674  0.5278 -0.4047
 3259TIP3    H231193   5.912   0.988  15.082  0.6498  2.5135  1.0417
 3260TIP3   OH231194   6.473   2.723  17.226  0.1917 -0.1449  0.4463
 3260TIP3    H131195   6.389   2.763  17.248 -0.6051 -1.8193  0.5350
 3260TIP3    H231196   6.469   2.708  17.131 -0.2982 -1.7477  0.7086
 3261TIP3   OH231197   5.469   5.458   0.458 -0.1992  0.0218  0.6426
 3261TIP3    H131198   5.451   5.517   0.531 -0.0564  0.8022  0.0505
 3261TIP3    H231199   5.475   5.515   0.382  2.9758 -0.3774  0.5295
 3262TIP3   OH231200   0.565   1.248  14.045 -0.4076  0.0418  0.7100
 3262TIP3    H131201   0.481   1.293  14.051 -0.3435  0.4030 -0.7624
 3262TIP3    H231202   0.611   1.271  14.125 -1.2699  0.7546  1.0069
 3263TIP3   OH231203   1.983   3.668   0.099 -0.0739 -0.0292  0.5106
 3263TIP3    H131204   1.971   3.606   0.027  1.5378  1.3763 -1.0019
 3263TIP3    H231205   2.046   3.625   0.157 -0.7397 -0.8032  0.6755
 3264TIP3   OH231206   4.751   6.472   6.402  0.3033  0.0743 -0.0960
 3264TIP3    H131207   4.799   6.554   6.385 -1.2211  0.5242 -2.4080
 3264TIP3    H231208   4.686   6.497   6.468  0.3806  0.5351 -0.1866
 3265TIP3   OH231209   0.891   2.036   3.790 -0.3840  0.0211  0.2122
 3265TIP3    H131210   0.819   1.998   3.841  0.2447 -0.0436  1.0614
 3265TIP3    H231211   0.958   1.967   3.788 -0.3431  0.0731 -0.5920
 3266TIP3   OH231212   5.892   4.865  15.133  0.2414  1.2185  0.0042
 3266TIP3    H131213   5.939   4.945  15.156 -0.6236  2.4404 -2.3070
 3266TIP3    H231214   5.838   4.890  15.058  0.0307 -1.5702 -0.8200
 3267TIP3   OH231215   6.650   3.063   0.177  0.0061  0.2571 -0.5575
 3267TIP3    H131216   6.699   2.982   0.163  1.3128  0.8445  0.5081
 3267TIP3    H231217   6.623   3.059   0.268 -1.8702 -0.0070 -1.1062
 3268TIP3   OH231218   5.058   3.433   4.152  0.8421  0.1973 -0.0787
 3268TIP3    H131219   5.122   3.483   4.203  1.9092 -0.9557 -0.2694
 3268TIP3    H231220   5.092   3.433   4.063  1.5331 -1.9194  0.1493
 3269TIP3   OH231221   4.455   1.603  14.717 -0.3874  0.1629 -0.5301
 3269TIP3    H131222   4.370   1.617  14.760 -0.2259  1.5035 -0.6377
 3269TIP3    H231223   4.432   1.574  14.629 -0.7190 -1.8482  0.1796
 3270TIP3   OH231224   3.360   5.661  16.320  0.3124 -0.2391  0.9228
 3270TIP3    H131225   3.311   5.596  16.270  2.0242 -0.3000 -0.7824
 3270TIP3    H231226   3.409   5.610  16.385  0.3890 -0.4821  0.6721
 3271TIP3   OH231227   0.841   6.725   0.799  0.5852  0.0052 -0.6139
 3271TIP3    H131228   0.875   6.636   0.792  0.5698 -0.0768  0.3563
 3271TIP3    H231229   0.912   6.781   0.767  0.3755 -0.3903 -1.7949
 3272TIP3   OH231230   6.426   5.343   3.625  0.1637 -0.1055  0.0262
 3272TIP3    H131231   6.451   5.420   3.575  1.1394  0.7383  1.7655
 3272TIP3    H231232   6.503   5.286   3.622  0.6566  0.4503  1.4764
 3273TIP3   OH231233   0.152   5.330   0.558  0.4477  0.6375  0.1074
 3273TIP3    H131234   0.190   5.246   0.584 -1.5911 -0.1324  0.6652
 3273TIP3    H231235   0.100   5.310   0.480 -0.3578  1.3201  0.4661
 3274TIP3   OH231236   4.547   4.630   5.393  0.1802  0.2462 -0.5106
 3274TIP3    H131237   4.602   4.577   5.335 -1.9816  1.1321 -3.4359
 3274TIP3    H231238   4.570   4.720   5.373  0.6316  0.5510  1.2791
 3275TIP3   OH231239   5.337   3.369   1.901 -0.0240 -0.5761  0.1828
 3275TIP3    H131240   5.255   3.324   1.922 -0.4510  0.7290  1.3890
 3275TIP3    H231241   5.344   3.438   1.967  1.8653 -0.4451 -0.1466
 3276TIP3   OH231242   1.424   4.195  14.455  0.3115 -0.3779 -0.0672
 3276TIP3    H131243   1.393   4.251  14.384 -0.9649 -1.0868 -0.0879
 3276TIP3    H231244   1.429   4.108  14.416  2.6893 -0.2224 -0.1515
 3277TIP3   OH231245   0.873   1.972  14.386 -0.4070  0.1810 -0.2634
 3277TIP3    H131246   0.780   1.967  14.363 -0.3812  1.7276 -0.7410
 3277TIP3    H231247   0.877   1.937  14.475 -1.7131  1.7159  0.4211
 3278TIP3   OH231248   6.335   1.661   1.192  0.1734 -0.5067  0.0033
 3278TIP3    H131249   6.254   1.691   1.233  0.5618 -0.8879  1.0723
 3278TIP3    H231250   6.329   1.693   1.102 -1.8160 -1.7070 -0.3422
 3279TIP3   OH231251   6.287   6.255   1.484  0.4547 -0.1593  0.4771
 3279TIP3    H131252   6.317   6.256   1.575  0.0395  1.5216  0.6166
 3279TIP3    H231253   6.366   6.235   1.433  1.5351  2.6284  0.9598
 3280TIP3   OH231254   3.880   3.061   3.776 -0.0428  0.0058  0.2399
 3280TIP3    H131255   3.802   3.088   3.727 -0.2540 -1.3726 -0.2104
 3280TIP3    H231256   3.872   3.106   3.860 -0.4228  1.2562 -0.4448
 3281TIP3   OH231257   1.959   0.862  11.170 -0.1084 -0.8190  0.0215
 3281TIP3    H131258   2.036   0.882  11.116 -0.0381 -2.3047 -0.4419
 3281TIP3    H231259   1.944   0.769  11.157 -3.2372 -0.1621 -1.5044
 3282TIP3   OH231260   2.594   3.296  11.203 -0.6300 -0.2193  0.3474
 3282TIP3    H131261   2.509   3.295  11.159  0.1954  1.2056 -1.3470
 3282TIP3    H231262   2.654   3.332  11.138  0.8246  1.0647  2.3394
 3283TIP3   OH231263   3.292   3.295   0.474  0.1269 -0.0488 -0.1792
 3283TIP3    H131264   3.283   3.297   0.379 -0.8719 -0.6639 -0.1089
 3283TIP3    H231265   3.363   3.356   0.493  0.1277  0.3066 -1.2952
 3284TIP3   OH231266   4.942   0.665   2.059  0.5637 -0.0461  0.1756
 3284TIP3    H131267   4.920   0.721   2.133  1.0304  0.5626 -0.1383
 3284TIP3    H231268   4.918   0.717   1.982  1.3444 -0.1203 -0.1242
 3285TIP3   OH231269   3.606   2.617   1.919  0.0424  0.4856  0.3250
 3285TIP3    H131270   3.701   2.625   1.908  0.0923 -0.1295  0.2696
 3285TIP3    H231271   3.589   2.650   2.007  0.8104 -2.8990  1.8208
 3286TIP3   OH231272   5.602   0.382  14.311 -0.8763 -0.0226  0.5862
 3286TIP3    H131273   5.660   0.334  14.371  0.3911  0.1346 -0.4758
 3286TIP3    H231274   5.611   0.336  14.227 -1.2696  0.8021  0.0851
 3287TIP3   OH231275   6.223   3.093  11.456 -0.1354 -0.6361  0.2440
 3287TIP3    H131276   6.254   3.182  11.473 -0.5954 -0.7483  1.6584
 3287TIP3    H231277   6.155   3.078  11.521  0.0048 -2.0561  0.0723
 3288TIP3   OH231278   3.590   1.816   5.805 -0.0487 -0.3771  0.0664
 3288TIP3    H131279   3.660   1.841   5.864  0.5237 -0.5678 -0.5302
 3288TIP3    H231280   3.629   1.820   5.717 -0.4991 -1.4162 -0.1963
 3289TIP3   OH231281   6.256   0.938  12.919  0.1285 -0.2539 -0.1240
 3289TIP3    H131282   6.342   0.928  12.878  0.4598 -0.8722  0.7079
 3289TIP3    H231283   6.201   0.873  12.877  0.4264 -0.7783  0.2873
 3290TIP3   OH231284   4.045   0.495   3.181  0.2366 -0.3476 -0.5475
 3290TIP3    H131285   4.102   0.561   3.222 -0.9046  1.5472 -1.9659
 3290TIP3    H231286   4.101   0.454   3.115  0.6443 -0.0514 -0.3930
 3291TIP3   OH231287   3.640   3.254  12.422  0.0413 -0.2428 -0.3547
 3291TIP3    H131288   3.667   3.244  12.514 -0.0740 -0.3769 -0.3367
 3291TIP3    H231289   3.564   3.197  12.413  1.6023 -2.2782 -1.2141
 3292TIP3   OH231290   0.052   3.816   6.751  0.1777  0.5040  0.0063
 3292TIP3    H131291   0.007   3.799   6.669  0.4661 -1.3724  0.2230
 3292TIP3    H231292   0.145   3.809   6.730  0.2263 -2.0159  0.8778
 3293TIP3   OH231293   0.516   1.053  12.853  0.5618 -0.0706 -0.0093
 3293TIP3    H131294   0.532   1.146  12.864  0.2446 -0.1465  1.1361
 3293TIP3    H231295   0.601   1.017  12.829  0.8515  0.3876  0.3296
 3294TIP3   OH231296   5.023   6.086  14.954 -0.1627  0.2049  0.0145
 3294TIP3    H131297   5.031   5.993  14.973  0.4036 -0.3083 -2.5247
 3294TIP3    H231298   5.041   6.130  15.037  0.2557 -1.9224  1.0659
 3295TIP3   OH231299   2.762   0.465   1.073  0.2959 -0.1967  0.0470
 3295TIP3    H131300   2.713   0.545   1.056  1.7685  0.4735 -1.1369
 3295TIP3    H231301   2.851   0.495   1.094  0.4583 -1.4389  1.2094
 3296TIP3   OH231302   1.588   1.287  16.349 -0.6567  0.5197  0.8289
 3296TIP3    H131303   1.574   1.194  16.366  0.9005 -0.4311 -2.7467
 3296TIP3    H231304   1.666   1.308  16.400  0.3673 -0.7523 -0.1651
 3297TIP3   OH231305   6.051   1.869  15.968  0.2194 -0.0989 -0.3135
 3297TIP3    H131306   6.089   1.880  16.055  0.3579  2.3610 -0.6662
 3297TIP3    H231307   6.065   1.776  15.948  3.8664  0.1669  0.5776
 3298TIP3   OH231308   6.072   2.455  13.976  0.5972  0.4206  0.5258
 3298TIP3    H131309   6.118   2.371  13.975  0.0513  0.1149  0.9540
 3298TIP3    H231310   6.105   2.501  13.898 -0.5392 -0.9785 -0.8097
 3299TIP3   OH231311   6.142   0.340  13.383  0.3434  0.3738  0.0241
 3299TIP3    H131312   6.181   0.289  13.313  0.4236  0.6695 -0.1482
 3299TIP3    H231313   6.141   0.282  13.459 -0.3635 -0.1789 -0.4007
 3300TIP3   OH231314   0.695   1.457   1.859  0.3746  0.9689  0.4697
 3300TIP3    H131315   0.679   1.414   1.774  0.6930  0.8313  0.4802
 3300TIP3    H231316   0.607   1.470   1.895  0.2792  0.0255  0.6106
 3301TIP3   OH231317   5.380   6.310   2.004 -0.3118 -0.5137  0.6293
 3301TIP3    H131318   5.472   6.306   2.031  0.0915  1.7772 -0.2406
 3301TIP3    H231319   5.373   6.244   1.935  0.5132 -1.2002  1.1909
 3302TIP3   OH231320   5.413   6.255  11.709  0.6645 -0.1596  0.0354
 3302TIP3    H131321   5.357   6.285  11.780  0.6009  2.9610 -1.2598
 3302TIP3    H231322   5.353   6.217  11.645  0.2510  1.1439 -0.3560
 3303TIP3   OH231323   3.784   1.208   0.951  0.6496  0.5578  0.2924
 3303TIP3    H131324   3.781   1.184   0.858 -0.1544 -0.6001  0.5943
 3303TIP3    H231325   3.871   1.245   0.964  0.7736  0.7074 -0.9220
 3304TIP3   OH231326   0.878   4.854  13.453 -0.1825  0.3090  0.0060
 3304TIP3    H131327   0.926   4.886  13.529 -0.7086  1.2579 -0.0619
 3304TIP3    H231328   0.804   4.914  13.444 -1.3297 -1.0593  0.0493
 3305TIP3   OH231329   0.435   0.297  17.144 -0.2679 -0.3973  0.1628
 3305TIP3    H131330   0.513   0.277  17.195  0.8042 -0.9660 -1.6493
 3305TIP3    H231331   0.468   0.315  17.056 -2.1139  0.0661 -0.4551
 3306TIP3   OH231332   2.592   3.933  10.202 -0.1628  0.3234  0.6182
 3306TIP3    H131333   2.626   4.021  10.188 -1.7900  0.9603  0.5846
 3306TIP3    H231334   2.503   3.936  10.167  0.3972 -1.8698 -1.1192
 3307TIP3   OH231335   3.945   4.993   4.969  0.4391 -0.1848  0.1572
 3307TIP3    H131336   3.905   5.035   5.045  2.4866 -0.0028  1.1753
 3307TIP3    H231337   3.977   5.066   4.915  0.6890 -0.3458  0.0848
 3308TIP3   OH231338   2.995   1.603   0.618  0.8583  0.2021 -0.4664
 3308TIP3    H131339   3.026   1.515   0.638  0.3882  0.5355  1.8807
 3308TIP3    H231340   3.052   1.634   0.548  0.6441 -2.1796 -1.7384
 3309TIP3   OH231341   6.561   2.622   4.875  0.4622 -0.2803  0.4042
 3309TIP3    H131342   6.535   2.641   4.965 -1.2610 -0.2421 -0.0954
 3309TIP3    H231343   6.492   2.565   4.842 -0.2052  1.7374 -1.7110
 3310TIP3   OH231344   2.574   3.268  15.536  0.1787 -0.1295  0.0573
 3310TIP3    H131345   2.667   3.257  15.513  0.6275  0.0979  1.7288
 3310TIP3    H231346   2.564   3.224  15.620 -1.7353 -2.0321 -1.1144
 3311TIP3   OH231347   5.731   5.421  11.201  0.1341 -0.1996 -0.0724
 3311TIP3    H131348   5.776   5.466  11.273  0.0212 -0.9042  0.4449
 3311TIP3    H231349   5.724   5.331  11.231  1.7932 -0.9269 -1.7640
 3312TIP3   OH231350   5.539   3.043  12.778  0.1786  0.0727 -0.0003
 3312TIP3    H131351   5.626   3.039  12.737  0.5701 -0.8648  0.9104
 3312TIP3    H231352   5.553   3.089  12.860 -0.5066  1.4333 -0.6244
 3313TIP3   OH231353   0.586   5.992  14.298  0.0152  0.0116  0.4061
 3313TIP3    H131354   0.599   6.075  14.344  0.9871 -0.3238  0.7529
 3313TIP3    H231355   0.672   5.972  14.262 -0.5234 -0.1978 -0.7855
 3314TIP3   OH231356   5.464   3.611  14.163  0.4309 -0.2232 -0.3912
 3314TIP3    H131357   5.510   3.692  14.187  1.4714 -1.0484  0.4842
 3314TIP3    H231358   5.381   3.616  14.210  0.8513 -0.0414  0.3520
 3315TIP3   OH231359   2.323   3.520  14.758  0.7809  0.4315 -0.3201
 3315TIP3    H131360   2.371   3.452  14.806  0.6317 -0.6227 -1.6329
 3315TIP3    H231361   2.282   3.473  14.685 -0.3862  1.7224 -0.5043
 3316TIP3   OH231362   2.579   0.535  17.009 -0.4759 -0.9533  0.9568
 3316TIP3    H131363   2.535   0.609  17.051 -0.3635  0.8020 -1.9441
 3316TIP3    H231364   2.671   0.542  17.038 -0.7257 -0.7665  1.7251
 3317TIP3   OH231365   0.727   1.713   2.177 -0.0280  0.6614 -0.5691
 3317TIP3    H131366   0.660   1.734   2.113 -0.9084  0.2773  0.2188
 3317TIP3    H231367   0.681   1.712   2.261  0.0475 -3.9808 -0.5028
 3318TIP3   OH231368   4.450   5.934  16.198 -0.0206  0.2454 -0.0403
 3318TIP3    H131369   4.519   5.999  16.186  1.8105 -1.5061  0.8181
 3318TIP3    H231370   4.437   5.929  16.293 -0.7172 -0.0908 -0.1454
 3319TIP3   OH231371   1.479   5.071   3.665  0.0108 -0.0469 -0.2650
 3319TIP3    H131372   1.469   5.145   3.726  0.5566  0.0569 -0.2973
 3319TIP3    H231373   1.556   5.094   3.613  2.3129 -2.2761  2.0511
 3320TIP3   OH231374   0.057   1.020   1.552  0.0652 -0.0107  0.4489
 3320TIP3    H131375  -0.018   1.000   1.607 -0.3393 -0.7831 -0.3659
 3320TIP3    H231376   0.111   0.941   1.555  1.3588  0.8943  1.8221
 3321TIP3   OH231377   5.359   3.029  12.334  0.2173  0.6269 -0.0440
 3321TIP3    H131378   5.430   3.047  12.272  0.3233 -2.3139 -0.8415
 3321TIP3    H231379   5.399   3.045  12.420  2.2837 -2.1048 -0.4114
 3322TIP3   OH231380   4.476   2.350   0.271  0.0968  0.2014  0.1374
 3322TIP3    H131381   4.555   2.351   0.217  0.6207  0.1970  0.8933
 3322TIP3    H231382   4.434   2.267   0.249  0.9859 -0.4058  0.6933
 3323TIP3   OH231383   3.197   6.487   6.623 -0.4650 -0.0357  0.0823
 3323TIP3    H131384   3.196   6.569   6.672 -2.0470 -0.2082  0.3590
 3323TIP3    H231385   3.129   6.499   6.556  0.6700 -0.3601 -1.1559
 3324TIP3   OH231386   1.770   3.071  13.956  0.4187  0.3589  0.6430
 3324TIP3    H131387   1.719   3.139  14.000  0.4964  0.7085  0.1896
 3324TIP3    H231388   1.835   3.044  14.021  0.9247  1.3030  0.5437
 3325TIP3   OH231389   6.103   0.904  16.052 -0.3885 -0.3000  0.0766
 3325TIP3    H131390   6.146   0.986  16.028 -2.6447  1.1033  0.6781
 3325TIP3    H231391   6.090   0.859  15.968  0.7108  0.0237 -0.2750
 3326TIP3   OH231392   4.673   5.590  12.721 -0.1078  0.4366 -0.4287
 3326TIP3    H131393   4.604   5.638  12.767  0.9788  2.6488 -1.0404
 3326TIP3    H231394   4.748   5.594  12.780  0.0767 -0.2597 -0.6142
 3327TIP3   OH231395   5.481   1.642  17.202 -0.1106  0.2442  0.0727
 3327TIP3    H131396   5.475   1.578  17.130 -0.1809  0.1019  0.2054
 3327TIP3    H231397   5.468   1.590  17.281  1.4366  0.1482  0.2879
 3328TIP3   OH231398   0.045   4.384   0.750 -0.4280 -0.6038 -0.0514
 3328TIP3    H131399   0.139   4.393   0.766 -0.4416 -0.9922  0.2569
 3328TIP3    H231400   0.015   4.325   0.819 -0.9695 -0.1616  0.0929
 3329TIP3   OH231401   1.626   1.446   2.636 -0.1886 -0.2967  0.3031
 3329TIP3    H131402   1.538   1.433   2.601 -0.3798  0.1230  0.6191
 3329TIP3    H231403   1.631   1.541   2.651 -0.3859 -0.5653  2.1347
 3330TIP3   OH231404   3.713   2.638  14.358 -0.5011  0.2424 -0.0858
 3330TIP3    H131405   3.797   2.625  14.402 -1.0736  1.7530  1.5392
 3330TIP3    H231406   3.724   2.717  14.307 -1.1556  0.8967  0.7633
 3331TIP3   OH231407   4.689   6.373  13.185 -0.0200 -0.1794 -0.2760
 3331TIP3    H131408   4.762   6.435  13.187 -0.1456 -0.0420  0.2626
 3331TIP3    H231409   4.620   6.419  13.138 -0.3818  0.4020  0.8032
 3332TIP3   OH231410   5.524   5.382  15.478  0.0364  0.1532 -0.5544
 3332TIP3    H131411   5.450   5.321  15.483 -0.6922  1.0140 -0.8188
 3332TIP3    H231412   5.526   5.424  15.564  0.8447 -0.5847 -0.2023
 3333TIP3   OH231413   1.775   2.235   1.223  0.5674 -0.7508  0.4330
 3333TIP3    H131414   1.790   2.142   1.240 -0.2468 -0.8902  0.3731
 3333TIP3    H231415   1.736   2.237   1.136  2.2731 -0.2212 -0.3546
 3334TIP3   OH231416   2.622   2.957   0.562  0.1924  0.1807  0.1403
 3334TIP3    H131417   2.559   2.927   0.496 -0.9345  1.2855  0.6819
 3334TIP3    H231418   2.573   2.953   0.644  1.7452 -1.6790  1.0016
 3335TIP3   OH231419   0.024   5.822   1.620  0.0810 -0.1101  0.6627
 3335TIP3    H131420   0.115   5.852   1.619  0.2766 -0.6764 -1.0835
 3335TIP3    H231421   0.030   5.729   1.642 -0.0292 -0.2502  0.1189
 3336TIP3   OH231422   2.294   2.807   0.617  0.3075  0.2050  0.6615
 3336TIP3    H131423   2.276   2.894   0.581  0.8967 -0.9668 -2.6503
 3336TIP3    H231424   2.372   2.819   0.671  1.9739  1.2774 -1.8960
 3337TIP3   OH231425   4.697   5.020   2.177 -0.2733 -0.6123 -0.1729
 3337TIP3    H131426   4.721   5.040   2.087 -0.0413  0.0692  0.0354
 3337TIP3    H231427   4.665   5.104   2.212  1.1616 -0.4901  0.8652
 3338TIP3   OH231428   5.335   4.013  13.980  0.3837  0.1122 -0.0369
 3338TIP3    H131429   5.320   4.041  13.889 -0.1051  1.9788  0.6004
 3338TIP3    H231430   5.267   3.948  13.996  0.5655 -0.3505 -1.0449
 3339TIP3   OH231431   1.399   4.455  14.309 -0.2822  0.1925 -0.3348
 3339TIP3    H131432   1.415   4.515  14.382 -0.6573  0.2042 -0.2634
 3339TIP3    H231433   1.476   4.465  14.253 -0.2247  0.5509 -0.1941
 3340TIP3   OH231434   5.694   3.527  14.441  0.2918  0.0839  0.1428
 3340TIP3    H131435   5.728   3.459  14.499  1.2763  0.4332 -0.0130
 3340TIP3    H231436   5.605   3.544  14.472 -0.6912 -2.6483 -1.0239
 3341TIP3   OH231437   2.341   4.423   0.247 -0.3035 -0.0830  0.1765
 3341TIP3    H131438   2.245   4.424   0.245 -0.3419 -2.7237 -0.7104
 3341TIP3    H231439   2.363   4.352   0.307  1.1234  0.3008  0.1296
 3342TIP3   OH231440   5.470   4.973   0.011  0.0515  0.0336 -0.4152
 3342TIP3    H131441   5.490   4.883   0.034 -0.3046 -0.3703 -1.6213
 3342TIP3    H231442   5.519   4.989  -0.070 -0.7398  0.5555 -0.8032
 3343TIP3   OH231443   1.582   4.886   2.294  0.3374 -0.1523 -0.5508
 3343TIP3    H131444   1.525   4.819   2.333 -1.1514  1.7116  0.5814
 3343TIP3    H231445   1.521   4.946   2.250  1.4030  1.8860  0.6841
 3344TIP3   OH231446   0.264   4.004  11.866 -0.1896 -0.3830  0.0185
 3344TIP3    H131447   0.210   3.930  11.837 -2.2702  0.9097  0.4599
 3344TIP3    H231448   0.278   4.055  11.786  0.3038 -0.6729 -0.0800
 3345TIP3   OH231449   0.541   3.681   4.979 -0.4128 -0.0463 -0.3944
 3345TIP3    H131450   0.564   3.607   4.922  2.6263  0.4698  0.0765
 3345TIP3    H231451   0.533   3.756   4.919 -0.7877 -0.1958 -0.5382
 3346TIP3   OH231452   3.384   6.243   0.239  0.7124 -0.1487  0.0311
 3346TIP3    H131453   3.420   6.319   0.285  0.6532  1.1813 -2.0713
 3346TIP3    H231454   3.292   6.264   0.226  0.9356 -0.0817 -1.5214
 3347TIP3   OH231455   5.761   5.482   4.649 -0.7737 -0.1469  0.7535
 3347TIP3    H131456   5.685   5.468   4.706 -1.5125 -2.2141 -0.6885
 3347TIP3    H231457   5.770   5.400   4.601 -0.1784  1.5461 -2.1080
 3348TIP3   OH231458   6.474   2.091  12.465 -0.7451 -0.5922  0.4338
 3348TIP3    H131459   6.540   2.103  12.534 -0.1067 -0.4337 -0.2017
 3348TIP3    H231460   6.505   2.014  12.417 -1.0614 -0.5495  0.1685
 3349TIP3   OH231461   5.874   0.893   6.529  0.1211 -0.6793 -0.0823
 3349TIP3    H131462   5.923   0.968   6.493  0.0891 -0.0816  1.0984
 3349TIP3    H231463   5.827   0.929   6.604 -0.2278 -1.8001  0.2458
 3350TIP3   OH231464   1.751   3.891  12.227  0.1554  0.1121  0.1727
 3350TIP3    H131465   1.753   3.930  12.315  0.3623 -0.6952  0.5280
 3350TIP3    H231466   1.740   3.798  12.243  1.4661 -0.1906 -0.6320
 3351TIP3   OH231467   6.718   5.790  12.290 -0.0222 -0.5633  0.4323
 3351TIP3    H131468   6.650   5.754  12.347 -2.5224 -1.7795 -3.1167
 3351TIP3    H231469   6.781   5.718  12.281  0.9723  0.0188  2.4725
 3352TIP3   OH231470   3.239   2.721  11.951  0.1518  0.0940  0.6316
 3352TIP3    H131471   3.234   2.647  11.890  1.2462  1.4455 -1.1499
 3352TIP3    H231472   3.221   2.682  12.037  3.0691 -2.7350  0.0874
 3353TIP3   OH231473   1.097   0.306  12.883 -0.3125  0.0810 -0.2054
 3353TIP3    H131474   1.132   0.340  12.964 -0.7870  0.4883 -0.1693
 3353TIP3    H231475   1.173   0.275  12.834 -0.0324 -0.1768  0.3979
 3354TIP3   OH231476   0.873   5.195   5.777  0.1846 -0.1744  0.4463
 3354TIP3    H131477   0.897   5.121   5.721 -1.9531 -0.2403 -0.4089
 3354TIP3    H231478   0.885   5.163   5.866 -1.7524 -1.9083  0.0997
 3355TIP3   OH231479   4.733   6.302   3.747  0.2011  0.3493 -0.1804
 3355TIP3    H131480   4.752   6.265   3.833  1.5095  0.0550 -0.5743
 3355TIP3    H231481   4.692   6.230   3.699 -0.3606  0.4552  0.1464
 3356TIP3   OH231482   0.396   3.134   1.808 -0.2487  0.3884  0.0514
 3356TIP3    H131483   0.487   3.105   1.809  0.6882  3.1887  1.3899
 3356TIP3    H231484   0.370   3.135   1.900 -1.1940  0.9683 -0.2169
 3357TIP3   OH231485   2.346   5.923   1.846  0.0031  0.0836  0.3194
 3357TIP3    H131486   2.277   5.945   1.784 -0.9482  1.0915  1.7108
 3357TIP3    H231487   2.308   5.939   1.932  0.7991 -2.7226  1.2567
 3358TIP3   OH231488   1.209   3.584  16.750 -0.5227 -0.1206  0.0825
 3358TIP3    H131489   1.179   3.587  16.660  0.5727  0.7117 -0.2582
 3358TIP3    H231490   1.151   3.644  16.797 -1.6912 -1.2585  0.1279
 3359TIP3   OH231491   2.801   2.241  12.282 -0.2296  0.5755  0.3681
 3359TIP3    H131492   2.774   2.251  12.374 -0.7593  1.1378  0.1489
 3359TIP3    H231493   2.719   2.234  12.234  0.0534  0.0584 -0.0465
 3360TIP3   OH231494   1.350   5.126  16.850 -0.6062  0.0432 -0.4477
 3360TIP3    H131495   1.322   5.199  16.794  0.6712  1.0576  0.2151
 3360TIP3    H231496   1.388   5.063  16.789  1.3109  1.3925 -0.7298
 3361TIP3   OH231497   4.317   2.797  13.607 -0.0401 -0.4661  0.5682
 3361TIP3    H131498   4.225   2.823  13.606  0.0111 -0.2680  0.7539
 3361TIP3    H231499   4.330   2.763  13.696 -0.1059 -1.1263  0.3326
 3362TIP3   OH231500   1.099   4.124  11.301 -0.4017  0.3023  0.1950
 3362TIP3    H131501   1.011   4.094  11.280 -0.9431  1.2141  1.0752
 3362TIP3    H231502   1.135   4.152  11.217 -0.4475 -1.3256 -0.3795
 3363TIP3   OH231503   1.369   4.062  11.409  0.3406 -0.0241  0.3040
 3363TIP3    H131504   1.296   4.081  11.351 -1.3360 -1.0850  2.0068
 3363TIP3    H231505   1.427   4.138  11.401 -0.8188  0.7224 -1.2471
 3364TIP3   OH231506   0.212   4.126   1.980  0.1748  0.4307 -0.2109
 3364TIP3    H131507   0.243   4.205   2.023  0.1701 -1.5218  3.5438
 3364TIP3    H231508   0.118   4.142   1.967  0.1993  1.1128  0.3712
 3365TIP3   OH231509   4.048   0.560   2.789 -0.1166 -0.7830 -0.3794
 3365TIP3    H131510   4.117   0.539   2.853  0.3121 -0.1609 -0.6378
 3365TIP3    H231511   4.036   0.654   2.797 -0.2324 -0.7392 -1.0527
 3366TIP3   OH231512   6.737   2.251  11.135  0.3700 -0.4765 -0.5068
 3366TIP3    H131513   6.782   2.319  11.087  0.5964 -0.2379  0.0449
 3366TIP3    H231514   6.747   2.172  11.081  2.5318 -0.7245  0.2109
 3367TIP3   OH231515   6.669   3.125  13.292  0.1533 -0.2872  0.4538
 3367TIP3    H131516   6.580   3.136  13.324  0.1762  0.6070  0.2079
 3367TIP3    H231517   6.722   3.114  13.371 -0.4634 -3.0842  0.5375
 3368TIP3   OH231518   6.620   3.388   3.599 -0.4483 -0.6131 -0.1217
 3368TIP3    H131519   6.683   3.457   3.619 -1.0479 -0.1874  0.3227
 3368TIP3    H231520   6.655   3.346   3.521  1.7372 -2.0106  1.5089
 3369TIP3   OH231521   5.077   4.339   5.288  0.2772 -0.1506 -0.2475
 3369TIP3    H131522   5.165   4.315   5.260  0.9283  2.3542 -0.4422
 3369TIP3    H231523   5.091   4.400   5.360 -1.3492 -1.5750  1.3289
 3370TIP3   OH231524   4.971   4.421  14.315  0.0406  0.2723 -0.2985
 3370TIP3    H131525   5.042   4.486  14.321  0.4163 -0.2007  0.3903
 3370TIP3    H231526   5.004   4.356  14.252 -0.5111  0.9605 -1.3135
 3371TIP3   OH231527   5.830   3.519   1.300  0.2425 -0.1243  0.0562
 3371TIP3    H131528   5.861   3.496   1.387  2.0226  2.0416  0.0212
 3371TIP3    H231529   5.908   3.524   1.246 -0.8473 -1.5287 -1.7317
 3372TIP3   OH231530   1.382   2.147   3.788  0.1159 -0.2052 -0.0295
 3372TIP3    H131531   1.293   2.145   3.753 -0.1128  1.3351  0.4103
 3372TIP3    H231532   1.393   2.063   3.832 -1.3575 -0.1550  0.4530
 3373TIP3   OH231533   4.425   0.254  15.801 -0.4872  0.2037 -0.0156
 3373TIP3    H131534   4.500   0.206  15.768 -0.3144 -0.1129  0.8139
 3373TIP3    H231535   4.453   0.346  15.803 -0.5901  0.2560 -0.9818
 3374TIP3   OH231536   4.480   5.952  15.374 -0.3507  0.2724  0.1271
 3374TIP3    H131537   4.472   6.045  15.354  0.3017 -0.5523 -4.3939
 3374TIP3    H231538   4.400   5.913  15.341  0.3908 -1.0995 -0.0685
 3375TIP3   OH231539   4.546   2.018  13.433 -0.3386 -0.3317 -0.2440
 3375TIP3    H131540   4.631   1.975  13.437 -0.4204 -0.4507  0.2266
 3375TIP3    H231541   4.540   2.067  13.515 -1.2903 -1.3992  0.3362
 3376TIP3   OH231542   3.240   5.800  16.098  0.1994 -0.1859  0.3318
 3376TIP3    H131543   3.219   5.744  16.172 -1.5237  0.9327  0.7489
 3376TIP3    H231544   3.253   5.887  16.137  0.3974  0.1834 -0.5457
 3377TIP3   OH231545   3.760   1.629   4.505 -0.5701  0.0764  0.4061
 3377TIP3    H131546   3.776   1.691   4.576 -1.4198  2.1243 -1.1429
 3377TIP3    H231547   3.666   1.635   4.489 -0.4029 -0.4713 -0.8086
 3378TIP3   OH231548   2.744   0.143  13.919 -0.3972 -0.4589  0.0664
 3378TIP3    H131549   2.786   0.113  14.000 -0.2289  1.1297  0.5768
 3378TIP3    H231550   2.658   0.174  13.948  0.9109  3.2640  0.1931
 3379TIP3   OH231551   4.292   4.763   5.412  0.0704 -0.6183  0.4084
 3379TIP3    H131552   4.379   4.724   5.403  0.7691  0.8244  0.8419
 3379TIP3    H231553   4.251   4.716   5.485  0.8758 -0.5971  0.8706
 3380TIP3   OH231554   4.967   3.771  15.015  0.0187 -0.3495  0.2496
 3380TIP3    H131555   4.920   3.711  15.072  0.3948 -0.1238  0.8059
 3380TIP3    H231556   4.953   3.737  14.927 -3.0781  1.0168  0.1705
 3381TIP3   OH231557   2.766   3.546  10.835  0.4140 -0.6269 -0.1003
 3381TIP3    H131558   2.783   3.562  10.743 -0.2250  2.3355  0.2644
 3381TIP3    H231559   2.851   3.554  10.877  0.3110  0.5185 -0.1042
 3382TIP3   OH231560   0.627   2.645  15.783 -0.5223  0.1170 -0.0947
 3382TIP3    H131561   0.629   2.740  15.770 -1.1922 -0.2346 -3.0074
 3382TIP3    H231562   0.585   2.634  15.869 -1.1040  2.4181 -0.0403
 3383TIP3   OH231563   2.571   4.500  16.989 -0.2281  0.1567  0.6173
 3383TIP3    H131564   2.611   4.496  17.076  0.5169 -1.0785  0.2303
 3383TIP3    H231565   2.537   4.412  16.974 -0.3164  0.3525 -0.3576
 3384TIP3   OH231566   2.274   0.913  13.634  0.1150 -0.5814  0.0416
 3384TIP3    H131567   2.311   0.878  13.554  2.2444 -0.1677  0.8154
 3384TIP3    H231568   2.207   0.850  13.660  0.1799 -1.2707 -1.4524
 3385TIP3   OH231569   0.898   6.694   1.332 -0.7050 -0.1530 -0.3197
 3385TIP3    H131570   0.959   6.630   1.295 -0.2747  0.8431 -1.3422
 3385TIP3    H231571   0.924   6.702   1.423  0.3218 -0.1668 -0.6112
 3386TIP3   OH231572   2.395   4.815   3.221 -0.2495 -0.0666  0.4135
 3386TIP3    H131573   2.477   4.807   3.173 -0.7355  0.2916 -0.4824
 3386TIP3    H231574   2.380   4.728   3.257  0.8170  0.0108  1.0683
 3387TIP3   OH231575   3.101   2.763  14.906 -0.0326  0.6580 -0.4091
 3387TIP3    H131576   3.076   2.738  14.995 -1.2887  1.2076 -0.6098
 3387TIP3    H231577   3.109   2.858  14.909  0.8014  0.6059 -0.6751
 3388TIP3   OH231578   3.033   4.591  12.968 -0.4360  0.1064  0.5057
 3388TIP3    H131579   3.058   4.668  12.915  1.0272  0.6597  1.9479
 3388TIP3    H231580   2.944   4.610  12.996 -0.7710  0.3972 -0.7066
 3389TIP3   OH231581   2.433   6.522   4.600 -0.2000 -0.1805  0.2956
 3389TIP3    H131582   2.445   6.551   4.691  2.7743 -1.1387  0.2649
 3389TIP3    H231583   2.484   6.584   4.548  0.9071 -1.6336 -0.3824
 3390TIP3   OH231584   4.448   4.108   2.973  0.4251  0.4799 -0.0151
 3390TIP3    H131585   4.485   4.021   2.959 -0.3660 -0.1093  1.3549
 3390TIP3    H231586   4.490   4.139   3.054  0.3558  1.1703 -0.2417
 3391TIP3   OH231587   3.146   4.781   5.921 -0.0806  0.4091  0.5177
 3391TIP3    H131588   3.154   4.693   5.958  2.4479 -0.3599 -1.6830
 3391TIP3    H231589   3.101   4.767   5.838  0.0642  1.2270  0.3047
 3392TIP3   OH231590   1.398   4.621  15.815  0.2296 -0.2940  0.4931
 3392TIP3    H131591   1.381   4.619  15.720 -0.1520  0.9126  0.5225
 3392TIP3    H231592   1.317   4.590  15.854  0.1592 -0.1807  0.4389
 3393TIP3   OH231593   5.005   6.379  14.300 -0.7078 -0.4211 -0.3087
 3393TIP3    H131594   4.977   6.291  14.277 -2.1004 -0.0731  0.0353
 3393TIP3    H231595   5.021   6.422  14.216  0.5883 -1.1849 -0.4657
 3394TIP3   OH231596   6.365   3.907   0.237 -0.2718 -0.6250 -0.0570
 3394TIP3    H131597   6.270   3.921   0.229 -0.2515  0.8295  2.0511
 3394TIP3    H231598   6.404   3.971   0.177 -0.5941 -0.9564 -0.6296
 3395TIP3   OH231599   4.164   3.413  11.603  0.3931 -0.2786  0.0738
 3395TIP3    H131600   4.148   3.450  11.690 -0.4545  0.1701 -0.2676
 3395TIP3    H231601   4.242   3.459  11.571  1.1262 -0.9560  0.8812
 3396TIP3   OH231602   3.708   4.855   0.583  0.2380 -0.1729 -0.1414
 3396TIP3    H131603   3.630   4.897   0.547  0.0099 -0.3213  0.1673
 3396TIP3    H231604   3.675   4.807   0.660  0.4148 -1.2496 -0.7312
 3397TIP3   OH231605   1.256   6.084  14.847  0.3437  0.0496 -0.6990
 3397TIP3    H131606   1.284   6.014  14.907 -3.0655 -0.5997  0.2334
 3397TIP3    H231607   1.297   6.062  14.764  0.9007 -1.9739  0.0766
 3398TIP3   OH231608   5.392   4.943   1.501  0.3911 -0.1294  0.2341
 3398TIP3    H131609   5.386   4.904   1.588 -0.9252 -0.0147  0.1974
 3398TIP3    H231610   5.403   5.037   1.517 -0.4284 -0.0362  0.2787
 3399TIP3   OH231611   0.719   3.197  15.709  0.4545  0.0964  0.0215
 3399TIP3    H131612   0.795   3.212  15.653  0.3306  2.4365  0.4410
 3399TIP3    H231613   0.650   3.252  15.670 -0.9027 -1.6094 -0.0680
 3400TIP3   OH231614   6.394   5.166  14.187 -0.2350  0.0298  0.3882
 3400TIP3    H131615   6.471   5.196  14.236  1.7620 -0.9418 -1.9974
 3400TIP3    H231616   6.404   5.208  14.101 -2.7050  0.3222  0.2158
 3401TIP3   OH231617   1.756   1.374  13.915  0.6863 -0.2277  0.0527
 3401TIP3    H131618   1.822   1.307  13.932  0.0825 -0.5796  1.0663
 3401TIP3    H231619   1.694   1.333  13.856  1.2071  0.0081 -0.6724
 3402TIP3   OH231620   1.026   6.586  15.829  0.0092  0.2642  0.2847
 3402TIP3    H131621   1.103   6.631  15.865 -0.3286  0.4593  0.7679
 3402TIP3    H231622   0.998   6.527  15.898 -1.8756  2.1114  1.1692
 3403TIP3   OH231623   2.770   0.248  12.944 -0.1524  0.5987 -0.0149
 3403TIP3    H131624   2.680   0.215  12.941 -0.3146  1.1945 -2.5880
 3403TIP3    H231625   2.825   0.170  12.932 -0.4667  0.7692 -2.9141
 3404TIP3   OH231626   5.551   0.611  14.073 -0.6775  0.2667  0.1796
 3404TIP3    H131627   5.575   0.577  14.159  3.1053  0.4337 -0.7137
 3404TIP3    H231628   5.589   0.699  14.071 -0.6338  0.2214 -1.6673
 3405TIP3   OH231629   5.962   2.322   1.835 -0.3713  0.1474 -0.0565
 3405TIP3    H131630   5.997   2.238   1.804  3.0491  1.6006 -0.3856
 3405TIP3    H231631   5.990   2.326   1.927  0.9293  1.6365 -0.5036
 3406TIP3   OH231632   1.356   6.031   2.261 -0.5475  0.4773  0.3461
 3406TIP3    H131633   1.339   6.053   2.169  3.7189 -1.2370 -0.9495
 3406TIP3    H231634   1.330   5.939   2.269 -0.2154  0.4094  0.6584
 3407TIP3   OH231635   5.128   2.768  12.917 -0.4154 -0.5271  0.0930
 3407TIP3    H131636   5.129   2.746  12.824 -1.4545 -1.8173  0.3743
 3407TIP3    H231637   5.119   2.684  12.961  0.0673  0.0796  1.3637
 3408TIP3   OH231638   4.281   5.030   2.981 -0.4711  0.0153  0.2202
 3408TIP3    H131639   4.274   4.940   3.011  0.1768  0.3506  1.4250
 3408TIP3    H231640   4.321   5.077   3.054 -2.5874  1.6910  0.3531
 3409TIP3   OH231641   2.428   4.418  16.485  0.1281  0.0927  0.1944
 3409TIP3    H131642   2.467   4.506  16.490 -0.7793  0.5283 -0.3941
 3409TIP3    H231643   2.500   4.360  16.510  0.5112  1.0512  1.4373
 3410TIP3   OH231644   1.696   1.739   0.229  0.3169  0.4041 -0.0137
 3410TIP3    H131645   1.746   1.681   0.172  1.2004  1.5400 -0.3925
 3410TIP3    H231646   1.710   1.704   0.317  1.1906  0.2928 -0.1966
 3411TIP3   OH231647   4.451   4.079   5.036 -0.0099 -0.0683  0.1676
 3411TIP3    H131648   4.512   4.027   4.984  1.7927  1.8492  0.2603
 3411TIP3    H231649   4.453   4.166   4.995  0.0850  0.9849  2.3564
 3412TIP3   OH231650   1.516   5.588  10.349 -0.1627 -0.1054 -0.4654
 3412TIP3    H131651   1.498   5.509  10.399 -0.7628 -0.0822 -0.6417
 3412TIP3    H231652   1.611   5.600  10.356 -0.3369  0.4287  1.4641
 3413TIP3   OH231653   2.550   5.797   5.152 -0.4096  0.0210  0.4967
 3413TIP3    H131654   2.643   5.806   5.173 -0.5974  0.0189  1.3832
 3413TIP3    H231655   2.506   5.837   5.227 -1.1035  1.4191 -0.6460
 3414TIP3   OH231656   6.258   0.926   4.342  0.6559 -0.1108 -0.1710
 3414TIP3    H131657   6.226   0.850   4.295 -0.3837  0.2410 -0.0451
 3414TIP3    H231658   6.305   0.890   4.417  0.6295 -0.6288 -0.4030
 3415TIP3   OH231659   2.390   5.321   1.067  0.3218 -0.3903  0.3825
 3415TIP3    H131660   2.318   5.258   1.058  0.4371 -0.5299  0.4340
 3415TIP3    H231661   2.408   5.350   0.978 -0.1956  0.0910  0.4320
 3416TIP3   OH231662   2.302   2.766  10.255 -0.2103 -0.0571  0.0658
 3416TIP3    H131663   2.212   2.772  10.287  0.0315 -2.2784  1.2821
 3416TIP3    H231664   2.300   2.805  10.168 -2.2467  0.3256  0.2699
 3417TIP3   OH231665   0.195   2.282   5.706  0.4857  0.2392 -0.5955
 3417TIP3    H131666   0.242   2.222   5.648  0.1061 -0.4407 -0.2076
 3417TIP3    H231667   0.226   2.369   5.682  1.1305 -0.1273 -1.0814
 3418TIP3   OH231668   0.554   0.744   3.907  0.6582  0.3691  0.1965
 3418TIP3    H131669   0.462   0.739   3.932  1.2252 -0.2952  2.2528
 3418TIP3    H231670   0.554   0.796   3.827 -1.5634 -0.1475 -0.1939
 3419TIP3   OH231671   0.119   4.072   0.839  0.0540  0.0796  0.4231
 3419TIP3    H131672   0.164   4.088   0.756  0.9646 -1.5783  0.5588
 3419TIP3    H231673   0.030   4.049   0.814  0.6556 -1.6941 -0.2284
 3420TIP3   OH231674   2.210   5.541  14.821 -0.3239  0.2519 -0.0701
 3420TIP3    H131675   2.136   5.594  14.791  0.3993  0.3340 -1.7287
 3420TIP3    H231676   2.247   5.503  14.742  2.5015  1.5810  0.5494
 3421TIP3   OH231677   1.030   5.942  11.320 -0.5284  0.1352  0.0976
 3421TIP3    H131678   1.083   5.874  11.362  1.3085  1.8364  0.5975
 3421TIP3    H231679   0.979   5.895  11.254 -0.7346 -2.0058  1.7453
 3422TIP3   OH231680   0.622   2.220  17.050  0.0626 -0.4056  0.0696
 3422TIP3    H131681   0.677   2.164  16.995 -0.6531 -0.1013 -0.9813
 3422TIP3    H231682   0.681   2.287  17.084  0.5107 -0.5959 -0.3375
 3423TIP3   OH231683   6.390   2.599   1.903 -0.3866  0.2077 -0.1794
 3423TIP3    H131684   6.456   2.646   1.954 -0.3109 -0.2230  0.1159
 3423TIP3    H231685   6.318   2.584   1.965 -0.0718 -0.7938 -0.0493
 3424TIP3   OH231686   6.328   5.268  15.034  0.0397 -0.6781 -0.2796
 3424TIP3    H131687   6.324   5.329  14.960  0.5611  1.3610  1.3083
 3424TIP3    H231688   6.404   5.214  15.017  0.5027  0.1701 -0.9623
 3425TIP3   OH231689   5.421   6.568   5.275 -0.2056  0.8244 -0.1728
 3425TIP3    H131690   5.403   6.518   5.195  1.8571 -0.1774 -0.0383
 3425TIP3    H231691   5.381   6.516   5.345 -1.1410  1.1909 -0.4252
 3426TIP3   OH231692   2.106   1.316   2.658 -0.2024 -0.0305 -0.3263
 3426TIP3    H131693   2.065   1.231   2.640  1.1493 -0.6645 -0.4716
 3426TIP3    H231694   2.189   1.294   2.700  0.5446  1.1955 -1.1428
 3427TIP3   OH231695   5.119   1.153  15.248 -0.5384  0.5051 -0.0406
 3427TIP3    H131696   5.129   1.061  15.270 -0.5132  0.8167  1.2893
 3427TIP3    H231697   5.194   1.197  15.290 -2.2001  1.5343  1.9511
 3428TIP3   OH231698   2.268   2.151   6.540 -0.0739 -0.0256 -0.7595
 3428TIP3    H131699   2.293   2.066   6.577 -0.0715 -0.3929 -1.5921
 3428TIP3    H231700   2.318   2.157   6.459  0.1129  0.8882 -0.5810
 3429TIP3   OH231701   0.990   3.916   3.791 -0.0555 -0.1648 -0.0681
 3429TIP3    H131702   0.991   3.997   3.741  0.0506  0.3450  0.7471
 3429TIP3    H231703   1.071   3.917   3.841  0.2554 -1.0848 -0.5320
 3430TIP3   OH231704   6.784   0.691  14.555 -0.0455  0.2047  0.1298
 3430TIP3    H131705   6.837   0.693  14.475 -1.4402 -1.2824 -0.8839
 3430TIP3    H231706   6.770   0.783  14.577  1.5117  0.6238 -0.5526
 3431TIP3   OH231707   5.999   5.698   0.743 -0.5295  0.3802 -0.2393
 3431TIP3    H131708   5.919   5.645   0.739  0.2879 -0.9196  0.2711
 3431TIP3    H231709   6.056   5.649   0.802 -0.2145  2.4704  1.2165
 3432TIP3   OH231710   6.311   6.509   1.353  0.4279 -0.0159 -0.0093
 3432TIP3    H131711   6.275   6.430   1.394 -0.1342 -0.0339 -0.5274
 3432TIP3    H231712   6.350   6.558   1.425  2.1584 -1.5044  0.1084
 3433TIP3   OH231713   5.457   1.275  11.986 -0.0010 -0.1702  0.0244
 3433TIP3    H131714   5.376   1.245  12.027 -0.3922  1.3782  0.3840
 3433TIP3    H231715   5.433   1.352  11.936  1.2751  0.4110  0.2744
 3434TIP3   OH231716   0.196   2.083   2.588  0.6138 -0.3936  0.2527
 3434TIP3    H131717   0.247   2.032   2.526 -0.3932 -1.2784  0.1350
 3434TIP3    H231718   0.243   2.074   2.671  1.3736 -0.0836 -0.1353
 3435TIP3   OH231719   1.898   5.445  12.900  0.0113 -0.1989  0.9652
 3435TIP3    H131720   1.872   5.357  12.928  0.3390 -0.0344  1.8019
 3435TIP3    H231721   1.839   5.465  12.827  1.0655 -1.7782 -0.3410
 3436TIP3   OH231722   6.231   3.102   1.392  0.3368 -0.4051  0.0968
 3436TIP3    H131723   6.266   3.014   1.379  1.1168 -0.0295 -0.3663
 3436TIP3    H231724   6.309   3.157   1.399 -0.1544  0.2428  0.4060
 3437TIP3   OH231725   4.754   3.092   5.133 -0.3055 -0.1067  0.2702
 3437TIP3    H131726   4.661   3.087   5.112 -0.2922  0.8336 -0.0014
 3437TIP3    H231727   4.793   3.019   5.084 -0.5183  1.0332 -1.6247
 3438TIP3   OH231728   0.266   1.829   4.438 -0.1519 -0.3025 -0.3016
 3438TIP3    H131729   0.221   1.908   4.406  0.0284  0.2583  0.8058
 3438TIP3    H231730   0.262   1.768   4.365  0.6659  1.1323 -1.5967
 3439TIP3   OH231731   5.824   5.450  15.163  0.4200 -0.4425  0.2038
 3439TIP3    H131732   5.908   5.466  15.119  1.1797 -0.4263  1.6256
 3439TIP3    H231733   5.819   5.518  15.230  0.3097 -1.7720  1.5599
 3440TIP3   OH231734   4.137   0.111  15.200  0.4243 -0.7774 -0.2579
 3440TIP3    H131735   4.214   0.063  15.169  0.2124 -2.5553  1.7669
 3440TIP3    H231736   4.066   0.083  15.142  0.3863 -2.6806  0.6701
 3441TIP3   OH231737   0.787   0.183  11.019  0.1105 -0.4211 -0.1710
 3441TIP3    H131738   0.718   0.139  10.970  0.3215  0.4718 -1.3016
 3441TIP3    H231739   0.860   0.121  11.019  0.2014 -0.3263 -1.2320
 3442TIP3   OH231740   3.947   4.894   2.347 -0.3396 -0.0467 -0.1880
 3442TIP3    H131741   3.961   4.799   2.340 -1.8389 -0.2915  0.0141
 3442TIP3    H231742   3.945   4.911   2.442  0.0612  0.2035 -0.2255
 3443TIP3   OH231743   2.177   2.468  15.361  0.6930  0.0030 -0.1434
 3443TIP3    H131744   2.122   2.493  15.435  0.1944  1.1238 -0.8716
 3443TIP3    H231745   2.193   2.550  15.315  2.5182 -0.4014 -0.2596
 3444TIP3   OH231746   5.755   1.768   4.784 -0.5760 -0.4154  0.2180
 3444TIP3    H131747   5.814   1.798   4.715 -0.1520  0.0988  0.7971
 3444TIP3    H231748   5.693   1.840   4.795 -1.0871 -0.7942 -0.1177
 3445TIP3   OH231749   2.113   2.281  14.045  0.5228 -0.4569 -0.2938
 3445TIP3    H131750   2.116   2.209  14.107  0.0195 -0.1310  0.1166
 3445TIP3    H231751   2.202   2.318  14.046  0.7101 -0.9093 -0.3167
 3446TIP3   OH231752   2.538   0.253  16.374  0.8986 -0.3820  0.0021
 3446TIP3    H131753   2.480   0.216  16.307  0.9037  0.9948 -0.7708
 3446TIP3    H231754   2.622   0.262  16.329  1.4683 -1.4740  0.8364
 3447TIP3   OH231755   1.823   4.974   2.415 -0.0177 -0.1484 -0.1294
 3447TIP3    H131756   1.766   5.045   2.444  0.5998  0.8409 -1.3168
 3447TIP3    H231757   1.763   4.908   2.381 -0.4844  0.7009 -0.9721
 3448TIP3   OH231758   5.265   6.764   5.493 -0.5975  0.4758 -0.3507
 3448TIP3    H131759   5.249   6.844   5.543 -2.0336  0.0877 -0.1748
 3448TIP3    H231760   5.360   6.753   5.495 -0.4687  1.6461  0.4418
 3449TIP3   OH231761   1.731   1.971   0.104  0.4254 -0.2977 -0.0398
 3449TIP3    H131762   1.698   2.023   0.177 -0.5821 -0.9661 -0.0043
 3449TIP3    H231763   1.723   1.881   0.133  0.6657 -0.5392 -0.7106
 3450TIP3   OH231764   5.728   2.524   3.267 -0.3754 -0.8001  0.7340
 3450TIP3    H131765   5.696   2.468   3.338  1.2271  0.4992  2.5424
 3450TIP3    H231766   5.823   2.528   3.281 -0.2438  0.8412 -0.4698
 3451TIP3   OH231767   0.905   0.857   5.399  0.5888  0.2972 -0.0787
 3451TIP3    H131768   0.828   0.902   5.433  1.7614  1.4721  1.0792
 3451TIP3    H231769   0.897   0.767   5.431 -1.4593 -0.1969 -1.8944
 3452TIP3   OH231770   5.108   3.953   4.783 -0.6919 -0.1199 -0.6331
 3452TIP3    H131771   5.048   4.021   4.817 -1.4438  0.5371 -3.1837
 3452TIP3    H231772   5.138   3.988   4.700  1.5410 -1.4778 -0.4244
 3453TIP3   OH231773   6.019   0.688  15.043 -0.0178  0.5292 -0.0354
 3453TIP3    H131774   6.022   0.768  14.990  0.1345  0.2762 -0.4093
 3453TIP3    H231775   6.028   0.617  14.979  3.1322  0.2955  0.6102
 3454TIP3   OH231776   1.641   4.329  13.238 -0.1139 -0.7989  0.1933
 3454TIP3    H131777   1.683   4.406  13.276 -0.6721 -0.2556 -0.2896
 3454TIP3    H231778   1.639   4.347  13.144  0.0430 -1.5449  0.0443
 3455TIP3   OH231779   1.791   4.410   2.698  0.1975  0.7478  0.0168
 3455TIP3    H131780   1.765   4.417   2.790 -0.5146  0.2280 -0.1364
 3455TIP3    H231781   1.875   4.364   2.699 -0.2661 -0.1046  0.3566
 3456TIP3   OH231782   5.437   3.137  15.081  0.1852 -0.8278 -0.4721
 3456TIP3    H131783   5.349   3.165  15.054 -0.1603 -1.3226  0.1149
 3456TIP3    H231784   5.496   3.194  15.032 -0.4948  1.1314  0.9532
 3457TIP3   OH231785   3.037   4.923  14.949  0.7388 -1.0392  0.2334
 3457TIP3    H131786   3.106   4.988  14.960  0.0519 -0.5212  1.6147
 3457TIP3    H231787   2.983   4.931  15.028 -1.3166 -0.9315 -1.1297
 3458TIP3   OH231788   3.931   5.389   0.887  0.0062 -0.5389 -0.2678
 3458TIP3    H131789   4.018   5.398   0.925 -0.2033  0.1757  0.0594
 3458TIP3    H231790   3.918   5.294   0.878  0.1362 -0.7058  1.2702
 3459TIP3   OH231791   4.346   1.302   0.411 -0.3056 -0.1290  0.4281
 3459TIP3    H131792   4.377   1.213   0.429  0.5610  0.3266  1.2250
 3459TIP3    H231793   4.301   1.328   0.491  0.4102  0.5550  0.6192
 3460TIP3   OH231794   0.064   5.439  17.073 -0.1187  0.1742  0.3546
 3460TIP3    H131795  -0.004   5.505  17.084 -0.6873 -0.1502 -1.0671
 3460TIP3    H231796   0.131   5.483  17.020  2.1926  1.4678  4.2022
 3461TIP3   OH231797   3.965   2.453  16.268 -0.4465  0.1255 -0.3969
 3461TIP3    H131798   4.008   2.371  16.246 -0.8612  0.1983 -1.5042
 3461TIP3    H231799   3.944   2.445  16.361  0.8317 -0.4109 -0.1474
 3462TIP3   OH231800   2.799   4.622  11.510  0.0810  0.1537  0.2035
 3462TIP3    H131801   2.766   4.698  11.462 -1.1508 -0.8289 -0.5296
 3462TIP3    H231802   2.843   4.660  11.587 -0.9063  1.5917  0.0885
 3463TIP3   OH231803   2.647   2.088  16.403  0.5163  0.5796  0.0238
 3463TIP3    H131804   2.592   2.033  16.347  2.2065  2.1698 -3.3554
 3463TIP3    H231805   2.634   2.177  16.370  1.5918  1.5714  2.1794
 3464TIP3   OH231806   3.831   5.946  14.154  0.2374  0.0952 -0.2656
 3464TIP3    H131807   3.810   5.853  14.144  1.3764 -0.4210  1.7725
 3464TIP3    H231808   3.764   5.980  14.214  0.7643  0.1885  0.2846
 3465TIP3   OH231809   6.694   5.708  13.486 -0.2341 -0.4841  0.9115
 3465TIP3    H131810   6.731   5.775  13.543  1.0267 -0.5609  0.2100
 3465TIP3    H231811   6.727   5.626  13.521  1.5553 -0.4604 -0.5966
 3466TIP3   OH231812   1.660   3.082   5.007  0.0088  0.4010 -0.4315
 3466TIP3    H131813   1.706   3.022   4.947 -0.9939 -0.2651 -0.5489
 3466TIP3    H231814   1.683   3.051   5.094  3.3741  2.7997 -0.3803
 3467TIP3   OH231815   0.456   1.421   4.698  0.3325  0.2451 -0.1692
 3467TIP3    H131816   0.549   1.424   4.677  0.9182 -4.7593  1.0575
 3467TIP3    H231817   0.449   1.462   4.784  1.5487 -0.0407  0.0771
 3468TIP3   OH231818   6.334   4.382  11.257 -0.1117  0.1833 -0.0523
 3468TIP3    H131819   6.416   4.399  11.304  0.6413 -1.3402 -0.7764
 3468TIP3    H231820   6.294   4.309  11.305 -0.0066 -0.4637 -0.9161
 3469TIP3   OH231821   0.109   0.120  15.160 -0.1182 -0.3692 -0.4027
 3469TIP3    H131822   0.188   0.087  15.203  1.2809  1.0438 -1.8309
 3469TIP3    H231823   0.079   0.048  15.105  0.3146 -0.8222 -0.0490
 3470TIP3   OH231824   3.569   2.006   1.748 -0.1868  0.1001  0.4123
 3470TIP3    H131825   3.612   2.016   1.833 -0.5242 -0.6405  0.6769
 3470TIP3    H231826   3.509   2.081   1.742  0.3527  0.5422  0.5133
 3471TIP3   OH231827   3.542   6.144  14.843  0.4943  0.2377 -0.1656
 3471TIP3    H131828   3.493   6.136  14.761 -1.5491  1.9581  0.8158
 3471TIP3    H231829   3.585   6.229  14.837 -0.2602  0.7003  0.8280
 3472TIP3   OH231830   5.215   4.135   0.792 -0.1830  0.0687  0.4760
 3472TIP3    H131831   5.123   4.112   0.790  0.1815 -1.3430 -0.8928
 3472TIP3    H231832   5.255   4.072   0.853  0.1282 -0.3512 -0.1516
 3473TIP3   OH231833   1.454   0.100   5.316  0.0316 -0.3019 -0.3506
 3473TIP3    H131834   1.384   0.050   5.357 -1.9656  0.7598 -2.3964
 3473TIP3    H231835   1.466   0.060   5.230 -0.0462  1.2863 -1.1202
 3474TIP3   OH231836   6.610   0.152  11.849 -0.1009  0.4712  0.2140
 3474TIP3    H131837   6.547   0.223  11.842 -1.0091 -0.2476  0.8008
 3474TIP3    H231838   6.572   0.093  11.915  0.5579 -0.6191 -0.3582
 3475TIP3   OH231839   3.970   1.650  14.565  0.1406 -0.3630 -0.3070
 3475TIP3    H131840   4.008   1.711  14.628  1.7086  0.3220 -1.8669
 3475TIP3    H231841   3.884   1.628  14.601  0.6656  0.6594  1.6301
 3476TIP3   OH231842   5.543   6.304   1.727  0.3080  0.6096  0.0028
 3476TIP3    H131843   5.471   6.257   1.769 -0.5183  1.8358 -0.0323
 3476TIP3    H231844   5.620   6.248   1.742 -0.6512 -0.7317 -0.0156
 3477TIP3   OH231845   4.107   2.618   1.018  0.3984 -0.0984 -0.1087
 3477TIP3    H131846   4.072   2.553   1.079  0.7134  0.5736  0.8188
 3477TIP3    H231847   4.201   2.617   1.035  0.4185  0.4888 -0.1856
 3478TIP3   OH231848   2.305   5.762  11.160 -0.1471  0.7123 -0.0615
 3478TIP3    H131849   2.290   5.671  11.136 -0.7658  0.8626 -0.2734
 3478TIP3    H231850   2.390   5.784  11.123  0.1729  0.1118  0.3190
 3479TIP3   OH231851   4.637   1.630   5.856  0.1893 -0.2584  0.3020
 3479TIP3    H131852   4.577   1.698   5.824 -0.5965 -0.6936  0.8389
 3479TIP3    H231853   4.700   1.618   5.785 -1.1731 -0.7822 -0.8430
 3480TIP3   OH231854   0.716   4.244  14.775 -0.0437 -0.5168  0.8876
 3480TIP3    H131855   0.766   4.186  14.717  0.9842  0.6882  0.5338
 3480TIP3    H231856   0.778   4.267  14.844 -0.6890 -0.4619  1.4472
 3481TIP3   OH231857   0.652   5.625  13.573 -0.8168  0.5571  0.0771
 3481TIP3    H131858   0.668   5.717  13.554  1.4006  0.4223  1.2011
 3481TIP3    H231859   0.698   5.608  13.655 -0.1400 -1.8425 -0.7426
 3482TIP3   OH231860   2.320   3.885   0.086  0.1190 -0.0036 -0.3108
 3482TIP3    H131861   2.274   3.871   0.004 -1.5935 -0.2863  0.6729
 3482TIP3    H231862   2.282   3.965   0.122 -0.2154 -0.7092  0.9311
 3483TIP3   OH231863   5.579   0.663   4.512  0.5371 -0.2650  0.4152
 3483TIP3    H131864   5.500   0.610   4.497 -0.0300  0.4449  0.9035
 3483TIP3    H231865   5.644   0.600   4.544 -0.5183 -0.4640  2.2391
 3484TIP3   OH231866   6.714   6.145   1.116 -0.3695 -0.1126 -0.2771
 3484TIP3    H131867   6.660   6.165   1.192  2.4244 -0.4581  1.9104
 3484TIP3    H231868   6.707   6.222   1.060 -0.6205  1.1859  1.4887
 3485TIP3   OH231869   2.922   3.601   1.684  0.3728  0.2787  0.1101
 3485TIP3    H131870   2.934   3.589   1.590 -1.0564 -2.1878  0.2180
 3485TIP3    H231871   2.969   3.528   1.724 -0.4911  0.3232  1.2315
 3486TIP3   OH231872   0.217   0.500  15.735  0.3052  0.6701 -0.2406
 3486TIP3    H131873   0.303   0.523  15.769  1.0328 -0.6352 -1.1237
 3486TIP3    H231874   0.182   0.438  15.799 -1.2169  3.3959  1.6066
 3487TIP3   OH231875   3.897   5.807  11.653 -0.3750 -0.1202 -0.7818
 3487TIP3    H131876   3.847   5.849  11.584  1.2866  1.8332 -0.8320
 3487TIP3    H231877   3.988   5.834  11.637  0.2433 -0.8908  1.2616
 3488TIP3   OH231878   6.473   1.363   5.645 -0.5345  0.0695  0.2309
 3488TIP3    H131879   6.564   1.337   5.663 -0.3704  0.7887  0.4697
 3488TIP3    H231880   6.447   1.308   5.571  0.4730  0.6372 -0.5660
 3489TIP3   OH231881   0.821   2.505   5.326  0.4976 -0.1925  0.1733
 3489TIP3    H131882   0.799   2.456   5.246  0.3470 -1.6988  1.1226
 3489TIP3    H231883   0.752   2.570   5.334 -0.3348 -1.0343 -0.0959
 3490TIP3   OH231884   0.472   2.834  13.959  0.4195  0.3751 -0.2479
 3490TIP3    H131885   0.523   2.861  13.883  0.9249 -2.1928 -0.8382
 3490TIP3    H231886   0.426   2.914  13.986  0.0744  1.2898 -3.3603
 3491TIP3   OH231887   6.046   1.566   1.247 -0.4482 -0.3194  0.1183
 3491TIP3    H131888   6.059   1.555   1.153 -2.6947  0.7532 -0.3478
 3491TIP3    H231889   6.036   1.660   1.259  4.3325  0.0696  2.0989
 3492TIP3   OH231890   1.305   2.987   4.481  0.0773 -0.5688 -0.1459
 3492TIP3    H131891   1.217   2.950   4.494 -0.2229  0.3822  0.6020
 3492TIP3    H231892   1.334   3.012   4.568  0.3969  0.6665 -0.5938
 3493TIP3   OH231893   2.792   2.655   5.400  0.4468  0.5829  0.1224
 3493TIP3    H131894   2.863   2.600   5.432 -1.7241 -1.3804  1.7336
 3493TIP3    H231895   2.774   2.716   5.471 -1.1371 -0.5839  0.7419
 3494TIP3   OH231896   3.458   1.082  11.545 -0.2646 -0.0584  0.3132
 3494TIP3    H131897   3.502   1.099  11.629 -0.4856  1.4862  0.1237
 3494TIP3    H231898   3.372   1.047  11.570 -0.2973  0.3190  0.7455
 3495TIP3   OH231899   4.979   3.673   3.740  0.3717 -0.1321 -0.3993
 3495TIP3    H131900   4.978   3.704   3.649  0.3066 -0.4696 -0.5120
 3495TIP3    H231901   5.063   3.630   3.750  1.3385  1.8563  0.3505
 3496TIP3   OH231902   6.660   5.271   5.615 -0.4152 -0.1318  0.9115
 3496TIP3    H131903   6.615   5.233   5.541  0.6988 -0.4146  0.3666
 3496TIP3    H231904   6.746   5.229   5.615 -0.8242 -1.0686  3.0984
 3497TIP3   OH231905   4.153   6.622  14.552  0.1471 -0.0705  0.3999
 3497TIP3    H131906   4.092   6.695  14.566 -0.0680  0.0796 -1.2862
 3497TIP3    H231907   4.168   6.587  14.640 -1.6033  0.5100  0.9531
 3498TIP3   OH231908   0.652   5.488   1.710  0.0721 -0.6918 -0.1875
 3498TIP3    H131909   0.609   5.549   1.770  1.3252 -0.1893  0.2336
 3498TIP3    H231910   0.728   5.457   1.758  0.6606 -0.8899 -1.2205
 3499TIP3   OH231911   5.589   1.916  13.912 -0.3236  0.1979 -0.5671
 3499TIP3    H131912   5.514   1.971  13.935  0.2571  0.6151  0.3691
 3499TIP3    H231913   5.555   1.855  13.846 -1.8528 -0.4848  0.7987
 3500TIP3   OH231914   4.531   0.284   5.506 -0.2722 -0.5653 -0.3644
 3500TIP3    H131915   4.606   0.327   5.464  0.2260  0.6272  1.6914
 3500TIP3    H231916   4.477   0.356   5.538  0.9596 -1.4101  3.8352
 3501TIP3   OH231917   1.377   3.723   3.857 -0.0625 -0.1784  0.0136
 3501TIP3    H131918   1.437   3.786   3.896 -1.4509  0.1484  1.6612
 3501TIP3    H231919   1.312   3.776   3.812 -0.0824 -0.4988 -0.3434
 3502TIP3   OH231920   1.000   3.156   0.622 -0.8151  0.8837 -0.2266
 3502TIP3    H131921   0.995   3.083   0.561 -2.5848  0.4329  0.4266
 3502TIP3    H231922   0.915   3.199   0.616 -0.7921  1.2231  1.4180
 3503TIP3   OH231923   1.252   4.657  13.804  0.0888  0.8264 -0.5768
 3503TIP3    H131924   1.232   4.749  13.820  1.2988  1.3013 -1.6924
 3503TIP3    H231925   1.324   4.637  13.862 -0.3641  0.4980 -0.1265
 3504TIP3   OH231926   0.756   2.474   2.759  0.5907 -0.0087 -0.1658
 3504TIP3    H131927   0.688   2.436   2.814  0.3543  0.9686  0.2170
 3504TIP3    H231928   0.807   2.399   2.729  0.2552 -0.6087  0.7593
 3505TIP3   OH231929   0.051   1.863  11.883  0.0368 -0.0081  0.2298
 3505TIP3    H131930  -0.017   1.805  11.851  0.1138 -0.1790  0.3775
 3505TIP3    H231931   0.129   1.838  11.834  0.1026 -0.1221  0.3923
 3506TIP3   OH231932   0.027   4.866  16.088  0.6425  0.0153  0.4349
 3506TIP3    H131933   0.092   4.904  16.030 -0.6721  2.0576  0.2405
 3506TIP3    H231934   0.073   4.795  16.133  1.9264 -0.9684 -2.3766
 3507TIP3   OH231935   5.605   6.257  11.030  0.0226 -0.0915 -0.6209
 3507TIP3    H131936   5.655   6.188  10.986 -0.0403  0.0084 -0.8522
 3507TIP3    H231937   5.595   6.325  10.963 -0.4202 -0.1102 -0.5769
 3508TIP3   OH231938   0.995   4.255  14.061  0.5137 -0.2957 -0.0426
 3508TIP3    H131939   1.031   4.316  13.996  1.2948 -0.4852  0.2034
 3508TIP3    H231940   0.993   4.306  14.142 -1.5256  0.3060 -0.4351
 3509TIP3   OH231941   3.687   6.146   4.986  0.2164 -0.2858  0.1957
 3509TIP3    H131942   3.646   6.066   5.020  0.0774 -0.3049 -0.0106
 3509TIP3    H231943   3.688   6.133   4.891  2.7873 -1.2954  0.3224
 3510TIP3   OH231944   4.356   5.698   4.356 -0.0452 -0.1422 -0.1894
 3510TIP3    H131945   4.415   5.657   4.293 -0.5658 -0.5318 -0.4224
 3510TIP3    H231946   4.363   5.643   4.434 -0.7765 -0.7010 -0.5160
 3511TIP3   OH231947   5.532   2.746  12.762  0.1724 -0.6418 -0.2119
 3511TIP3    H131948   5.615   2.743  12.715  1.2381  0.5540  1.5331
 3511TIP3    H231949   5.510   2.839  12.766 -0.0902 -0.7520  1.2905
 3512TIP3   OH231950   6.331   3.237  10.758 -0.0628 -0.2673  0.1031
 3512TIP3    H131951   6.416   3.197  10.777 -0.8175 -2.3452 -0.7499
 3512TIP3    H231952   6.290   3.246  10.845  0.7983  0.2342  0.4634
 3513TIP3   OH231953   5.587   4.858  12.863 -0.2120 -0.6769 -0.7637
 3513TIP3    H131954   5.514   4.886  12.807  0.1599  1.1585 -0.3525
 3513TIP3    H231955   5.546   4.831  12.945 -0.3745  1.4977 -0.0920
 3514TIP3   OH231956   4.446   4.614   3.047  0.0832  0.1306  0.7815
 3514TIP3    H131957   4.404   4.543   2.998  0.1865  1.3781 -1.1769
 3514TIP3    H231958   4.536   4.615   3.014 -0.2180  1.8753 -0.0382
 3515TIP3   OH231959   0.423   3.917  14.105  0.6758 -0.7406 -0.1112
 3515TIP3    H131960   0.373   3.987  14.064  2.2484 -0.2420 -1.2387
 3515TIP3    H231961   0.435   3.852  14.035 -1.1994 -2.3862  1.0608
 3516TIP3   OH231962   4.970   4.154   4.873  0.7019  0.1339 -0.5656
 3516TIP3    H131963   5.015   4.239   4.874  0.3231  0.3228  1.1521
 3516TIP3    H231964   4.884   4.174   4.834  0.9237  0.3645 -0.9497
 3517TIP3   OH231965   0.625   4.475  17.038  0.6164 -0.0212 -0.1163
 3517TIP3    H131966   0.695   4.537  17.059  0.5130 -0.2355  0.8764
 3517TIP3    H231967   0.647   4.444  16.950  1.3859  0.4373 -0.0976
 3518TIP3   OH231968   4.585   1.535  16.524 -0.6627 -0.1213  0.6946
 3518TIP3    H131969   4.586   1.622  16.564  0.4285 -0.4033  1.3122
 3518TIP3    H231970   4.576   1.552  16.430  1.4967  0.7668  0.6167
 3519TIP3   OH231971   2.898   6.298   3.040  0.4255  0.1700  0.4203
 3519TIP3    H131972   2.912   6.260   3.127  0.5206 -0.2288  0.2335
 3519TIP3    H231973   2.892   6.222   2.982 -0.0275  0.4195  0.1372
 3520TIP3   OH231974   4.287   2.417  11.916  0.1694 -0.4140 -0.0203
 3520TIP3    H131975   4.327   2.494  11.955  3.1903 -1.3268 -1.1866
 3520TIP3    H231976   4.247   2.449  11.835  1.0936  0.0094 -0.3158
 3521TIP3   OH231977   4.885   1.385   1.142  0.0171  0.6310  0.1543
 3521TIP3    H131978   4.870   1.410   1.233 -0.5071 -1.2378  0.6074
 3521TIP3    H231979   4.809   1.330   1.120 -0.3349  1.8328 -1.6994
 3522TIP3   OH231980   6.719   3.984  15.563  0.2029 -0.1785 -0.2473
 3522TIP3    H131981   6.626   3.990  15.544 -0.2871 -4.7006  0.3472
 3522TIP3    H231982   6.761   3.968  15.478  0.5499  2.2838 -0.5784
 3523TIP3   OH231983   4.747   5.976  15.006  0.2161  0.4962  0.1628
 3523TIP3    H131984   4.831   6.012  14.977  0.5447 -0.9947 -0.7795
 3523TIP3    H231985   4.716   5.925  14.932 -1.3822  0.7642  0.6303
 3524TIP3   OH231986   1.165   2.773  13.125  0.1043 -0.4403 -0.3407
 3524TIP3    H131987   1.181   2.774  13.220  0.2709  1.9625 -0.3588
 3524TIP3    H231988   1.247   2.805  13.087  0.2957 -2.0877 -1.3712
 3525TIP3   OH231989   5.020   0.749  15.857  0.7197 -0.3686 -0.4422
 3525TIP3    H131990   4.945   0.778  15.805  1.3174 -1.2858 -1.8577
 3525TIP3    H231991   5.012   0.654  15.859  1.0290 -0.3746  0.6671
 3526TIP3   OH231992   0.735   5.077   3.121  0.1631  0.4530 -0.0933
 3526TIP3    H131993   0.698   4.997   3.085  0.4022  0.8063 -1.1656
 3526TIP3    H231994   0.805   5.101   3.059 -0.4353  1.9200 -0.2319
 3527TIP3   OH231995   5.088   5.626   2.259 -0.5348  0.0661 -0.1416
 3527TIP3    H131996   5.049   5.650   2.175  1.1335  0.8855 -0.7132
 3527TIP3    H231997   5.182   5.621   2.241 -0.2915 -1.0925  1.3658
 3528TIP3   OH231998   2.606   2.348   0.237 -0.1564  0.1793  0.3645
 3528TIP3    H131999   2.575   2.336   0.327  0.8655  1.9368  0.9714
 3528TIP3    H232000   2.582   2.267   0.192  0.7355 -1.3660  2.6282
 3529TIP3   OH232001   3.840   5.247   3.419 -0.2475  0.0324 -0.3580
 3529TIP3    H132002   3.793   5.199   3.487  0.2265  0.7210  0.4710
 3529TIP3    H232003   3.932   5.222   3.430  0.1419  1.8319  0.7116
 3530TIP3   OH232004   2.081   0.462   2.808 -0.2844 -0.0341 -0.1128
 3530TIP3    H132005   2.160   0.415   2.783  1.5823  2.1549  1.5522
 3530TIP3    H232006   2.033   0.471   2.725  1.7957 -0.2360 -1.3922
 3531TIP3   OH232007   1.543   3.257   9.957  0.0406  0.0994 -0.0574
 3531TIP3    H132008   1.593   3.292  10.031 -0.1265  1.3244 -0.5026
 3531TIP3    H232009   1.489   3.188   9.995 -0.9656  1.5497  1.2367
 3532TIP3   OH232010   2.110   0.081   4.439 -0.4473  0.2100  0.0184
 3532TIP3    H132011   2.192   0.070   4.392 -0.1350  2.5169 -0.0417
 3532TIP3    H232012   2.130   0.055   4.529  0.4180  0.9604  0.0522
 3533TIP3   OH232013   5.752   4.200   4.691 -0.2073 -0.0376  0.3475
 3533TIP3    H132014   5.732   4.133   4.756  2.4013  0.7706  2.0842
 3533TIP3    H232015   5.838   4.176   4.657  1.0129  2.6713  1.4036
 3534TIP3   OH232016   0.796   2.134   1.979 -0.4151 -0.0769 -0.2669
 3534TIP3    H132017   0.751   2.133   1.894 -0.4253  0.7929 -0.2817
 3534TIP3    H232018   0.877   2.183   1.962 -0.4873  0.2288  0.2577
 3535TIP3   OH232019   6.041   4.184   3.450 -0.6480  0.0051  0.1050
 3535TIP3    H132020   5.965   4.223   3.407 -1.3752 -1.0019  0.4808
 3535TIP3    H232021   6.075   4.122   3.386  0.4250  1.1081 -0.4307
 3536TIP3   OH232022   0.217   0.213  11.412  0.0786 -0.6449 -0.0331
 3536TIP3    H132023   0.156   0.259  11.354 -1.0502  0.2001  1.7729
 3536TIP3    H232024   0.162   0.153  11.461  0.8043 -0.3911  1.1052
 3537TIP3   OH232025   4.003   0.887   1.490 -0.5152  0.2203  0.3122
 3537TIP3    H132026   4.088   0.921   1.519 -0.3113  2.2982 -2.4637
 3537TIP3    H232027   3.955   0.965   1.462 -2.5009 -1.1661 -0.2278
 3538TIP3   OH232028   1.065   5.326   0.997  0.0256 -0.2283 -0.5071
 3538TIP3    H132029   1.149   5.301   0.958 -0.0402  0.2306 -0.9559
 3538TIP3    H232030   1.050   5.416   0.966 -1.0612 -0.6250 -1.1571
 3539TIP3   OH232031   1.672   3.483  10.951  0.4652  0.2635 -0.2660
 3539TIP3    H132032   1.578   3.466  10.965  0.5742 -0.0505  0.0775
 3539TIP3    H232033   1.687   3.568  10.992  0.8202 -0.7246  1.7034
 3540TIP3   OH232034   2.183   2.245   4.841 -0.5014 -0.0952 -0.2066
 3540TIP3    H132035   2.142   2.194   4.771  0.6129 -2.4598  0.7934
 3540TIP3    H232036   2.131   2.224   4.919 -0.7653  1.2618 -0.0097
 3541TIP3   OH232037   0.793   1.043  11.538  0.4046 -0.1470 -0.8827
 3541TIP3    H132038   0.824   1.132  11.554 -0.2388 -0.3289  1.5633
 3541TIP3    H232039   0.748   1.049  11.454 -1.9070  2.4667  0.4456
 3542TIP3   OH232040   5.741   4.736  17.188 -0.2139 -0.0512  0.2309
 3542TIP3    H132041   5.822   4.741  17.240  0.1641 -0.0313 -0.3565
 3542TIP3    H232042   5.740   4.818  17.138 -0.7333  0.0654  0.4299
 3543TIP3   OH232043   4.834   6.077  16.746 -0.3092 -0.1680  0.5021
 3543TIP3    H132044   4.770   6.040  16.807 -0.0424 -0.6098  0.5132
 3543TIP3    H232045   4.918   6.044  16.777 -0.4331 -2.6823 -1.7789
 3544TIP3   OH232046   2.230   3.553   2.966 -0.1581  0.3245 -0.1898
 3544TIP3    H132047   2.230   3.536   2.872 -0.1858  0.0074 -0.1342
 3544TIP3    H232048   2.141   3.582   2.985 -1.0522 -2.5396  0.2474
 3545TIP3   OH232049   1.515   5.615   2.261 -0.3426 -0.5262  0.1834
 3545TIP3    H132050   1.508   5.680   2.191  0.3121  0.0535  0.6514
 3545TIP3    H232051   1.591   5.643   2.312 -1.6168 -0.1915  1.9162
 3546TIP3   OH232052   0.862   6.222   0.235 -0.4003  0.1098 -0.0834
 3546TIP3    H132053   0.921   6.168   0.288 -0.6722 -0.0046  0.1031
 3546TIP3    H232054   0.795   6.251   0.297  0.9830  2.5481  0.3537
 3547TIP3   OH232055   3.015   4.057  15.718  0.4295  0.7778 -0.2550
 3547TIP3    H132056   2.980   4.088  15.635 -2.5175 -1.7197 -0.0401
 3547TIP3    H232057   3.088   4.001  15.694  0.3809  1.0724 -1.0905
 3548TIP3   OH232058   3.960   1.586  15.279  0.3459  0.1409 -0.0182
 3548TIP3    H132059   4.043   1.567  15.324  0.5490  0.4099 -0.2712
 3548TIP3    H232060   3.899   1.607  15.349 -0.4975 -3.5673  0.4354
 3549TIP3   OH232061   2.451   2.004   1.952 -0.5078  0.1261  0.0315
 3549TIP3    H132062   2.519   2.071   1.947  1.4191 -1.8159 -0.3564
 3549TIP3    H232063   2.481   1.945   2.021 -2.6044  0.1039  0.9432
 3550TIP3   OH232064   6.372   4.948  14.697 -0.2633 -0.2906  0.6207
 3550TIP3    H132065   6.328   4.872  14.734  0.4319  0.2369  2.6169
 3550TIP3    H232066   6.465   4.926  14.699 -0.0579  0.5672  1.1775
 3551TIP3   OH232067   2.236   0.364  14.893  0.5960 -0.0427 -0.6413
 3551TIP3    H132068   2.193   0.321  14.819 -1.0543 -0.8649  0.7721
 3551TIP3    H232069   2.212   0.456  14.885  0.4975 -0.1126 -1.1696
 3552TIP3   OH232070   1.632   5.715   2.763 -0.0229  0.2774 -0.2318
 3552TIP3    H132071   1.540   5.690   2.762 -0.1204  0.6339 -1.3915
 3552TIP3    H232072   1.657   5.715   2.855 -1.1079 -0.0927  0.0609
 3553TIP3   OH232073   0.883   4.242  16.651  0.4062 -0.5000 -0.1493
 3553TIP3    H132074   0.857   4.292  16.574  1.4615 -1.0368 -0.8608
 3553TIP3    H232075   0.871   4.151  16.625 -1.0856 -0.6597  0.9918
 3554TIP3   OH232076   2.477   0.467  13.637 -0.2389  0.6706 -0.4527
 3554TIP3    H132077   2.472   0.508  13.550  1.0883  0.8552 -0.4484
 3554TIP3    H232078   2.434   0.383  13.626  0.1203  0.5968 -1.3579
 3555TIP3   OH232079   3.940   5.542  15.604 -0.0128 -0.4816  0.5498
 3555TIP3    H132080   3.929   5.481  15.530 -0.5666 -0.4358  0.5932
 3555TIP3    H232081   3.853   5.578  15.618  0.5215  1.0952 -0.1367
 3556TIP3   OH232082   4.329   1.666   5.055 -0.7048  0.2169  0.0445
 3556TIP3    H132083   4.355   1.634   5.141  0.5399 -0.3490 -0.5270
 3556TIP3    H232084   4.320   1.760   5.066 -0.4097  0.1616  0.7609
 3557TIP3   OH232085   2.144   0.023  11.181  0.6313 -0.5862  0.4211
 3557TIP3    H132086   2.202  -0.037  11.227  0.4642 -0.5438  0.6895
 3557TIP3    H232087   2.072  -0.032  11.150  0.3231 -0.4680  0.9361
 3558TIP3   OH232088   5.926   1.590   6.370  0.1171 -0.1717  0.1257
 3558TIP3    H132089   6.000   1.615   6.314  0.8751  0.1087  1.2288
 3558TIP3    H232090   5.916   1.663   6.431 -1.0556 -0.2279 -0.0051
 3559TIP3   OH232091   1.776   3.541   5.645 -0.0267 -0.3997 -0.0814
 3559TIP3    H132092   1.825   3.597   5.585 -1.2550 -0.1583 -0.8752
 3559TIP3    H232093   1.796   3.575   5.732 -0.2835  0.8820 -0.5146
 3560TIP3   OH232094   6.388   5.370   4.953 -0.3795  0.5637 -0.1190
 3560TIP3    H132095   6.372   5.292   4.900  1.2342  2.3896 -3.4240
 3560TIP3    H232096   6.468   5.349   5.001 -0.2979 -0.0626 -0.5203
 3561TIP3   OH232097   6.044   5.339   2.779 -0.1306 -0.5896  0.6026
 3561TIP3    H132098   6.130   5.348   2.820  1.0940 -1.0143 -1.8166
 3561TIP3    H232099   6.008   5.428   2.781  0.4547 -0.3572  1.3929
 3562TIP3   OH232100   1.267   5.258  13.529 -0.2156 -0.6797  0.3188
 3562TIP3    H132101   1.338   5.313  13.496  0.9874 -2.1395  0.4456
 3562TIP3    H232102   1.289   5.244  13.621  0.0444 -2.2564  0.0224
 3563TIP3   OH232103   6.607   2.947   4.715 -0.1818 -0.4735  0.8190
 3563TIP3    H132104   6.568   3.026   4.679 -0.4354 -1.3286 -0.8360
 3563TIP3    H232105   6.535   2.900   4.756 -0.6360 -1.2759 -0.8353
 3564TIP3   OH232106   2.027   1.037  14.458  0.0836 -0.0447  0.2694
 3564TIP3    H132107   2.069   0.972  14.402 -0.1547  0.3752 -0.4083
 3564TIP3    H232108   1.933   1.020  14.448  0.0593 -0.3273  0.9825
 3565TIP3   OH232109   6.225   6.068  12.056  0.2202  0.1601  0.3813
 3565TIP3    H132110   6.259   6.046  11.969  1.0450 -0.9055  0.9628
 3565TIP3    H232111   6.276   6.145  12.082  0.1833  0.2982  0.0482
 3566TIP3   OH232112   5.993   3.055  12.347 -0.7816  0.2337 -0.0625
 3566TIP3    H132113   6.067   3.037  12.406 -1.8153 -0.4460  1.0588
 3566TIP3    H232114   5.925   2.994  12.375 -1.6161  0.5431 -1.3788
 3567TIP3   OH232115   6.652   2.812  11.601  0.3729  0.1377 -0.2644
 3567TIP3    H132116   6.727   2.832  11.544  1.3022 -1.1066  0.4802
 3567TIP3    H232117   6.576   2.817  11.543  0.8103  3.2533 -0.6356
 3568TIP3   OH232118   3.540   3.041  15.423  0.2555  0.3761 -0.3158
 3568TIP3    H132119   3.556   3.095  15.346 -0.8834  0.0334 -0.8034
 3568TIP3    H232120   3.481   2.972  15.392 -0.9557  0.7578  1.0742
 3569TIP3   OH232121   6.446   3.616  13.242  0.2574 -0.4327 -0.1418
 3569TIP3    H132122   6.376   3.614  13.308  1.2265  1.3082  0.9933
 3569TIP3    H232123   6.461   3.710  13.227  0.2284 -0.8170 -2.6661
 3570TIP3   OH232124   5.876   5.541  13.474 -0.1086 -0.7197  0.7322
 3570TIP3    H132125   5.884   5.455  13.515 -1.2991 -0.7093  0.9830
 3570TIP3    H232126   5.955   5.549  13.420 -0.5727 -2.4579 -0.2176
 3571TIP3   OH232127   1.964   4.439  11.516 -0.1127 -0.0071  1.2912
 3571TIP3    H132128   1.882   4.391  11.513  0.3814 -1.0136  2.9612
 3571TIP3    H232129   2.032   4.372  11.514  0.6470  0.7484  1.1738
 3572TIP3   OH232130   5.142   4.216  11.831 -0.1126  0.4386 -0.3195
 3572TIP3    H132131   5.049   4.232  11.814  0.3853  1.2633 -2.3729
 3572TIP3    H232132   5.170   4.292  11.882 -0.7824 -0.3292  1.2473
 3573TIP3   OH232133   5.120   3.962   1.733 -0.2807 -0.2393 -0.2613
 3573TIP3    H132134   5.079   3.886   1.773 -0.0468  0.3413  1.1113
 3573TIP3    H232135   5.065   3.983   1.657 -2.3290  0.3461  1.3600
 3574TIP3   OH232136   2.701   3.929   2.559 -0.9115  0.1623  0.3785
 3574TIP3    H132137   2.707   3.985   2.482 -1.3551 -0.2333  0.0494
 3574TIP3    H232138   2.670   3.845   2.525 -0.4171 -0.2293  0.8861
 3575TIP3   OH232139   3.667   3.300   3.965  0.5957 -0.7757  0.4182
 3575TIP3    H132140   3.714   3.349   3.898 -0.1915 -1.3947 -0.6001
 3575TIP3    H232141   3.579   3.289   3.930 -0.7804  1.6301  2.9477
 3576TIP3   OH232142   3.106   3.172  11.371  0.4420 -0.3433  0.2967
 3576TIP3    H132143   3.077   3.085  11.400  0.9420 -0.0233  1.7739
 3576TIP3    H232144   3.029   3.208  11.326  0.5452 -1.9265 -1.2010
 3577TIP3   OH232145   3.607   3.750   5.904 -0.0884  0.3335 -0.0764
 3577TIP3    H132146   3.621   3.754   5.998 -0.3660 -0.1294 -0.0157
 3577TIP3    H232147   3.667   3.682   5.874 -1.3983 -0.8859  0.0329
 3578TIP3   OH232148   4.767   0.715  14.458 -0.7077 -0.3271 -0.4174
 3578TIP3    H132149   4.855   0.705  14.495 -0.7511  0.6300 -0.0444
 3578TIP3    H232150   4.780   0.710  14.363 -0.4210 -1.4415 -0.3268
 3579TIP3   OH232151   6.449   4.423  15.384  0.0003  0.4455  0.3439
 3579TIP3    H132152   6.360   4.428  15.347 -1.7138  0.5531  4.2028
 3579TIP3    H232153   6.490   4.349  15.340 -2.8130 -0.9966  0.0308
 3580TIP3   OH232154   2.491   3.295  12.377 -0.3386 -0.0885  0.2436
 3580TIP3    H132155   2.520   3.271  12.465 -3.8141  0.0715  1.4889
 3580TIP3    H232156   2.452   3.215  12.342  1.6750 -0.3602 -1.5100
 3581TIP3   OH232157   4.155   2.530  10.471  0.3346  0.4597 -0.1475
 3581TIP3    H132158   4.216   2.491  10.534 -0.0785 -2.2824 -1.3612
 3581TIP3    H232159   4.204   2.601  10.430  2.2351 -0.7896 -0.0809
 3582TIP3   OH232160   1.194   3.434   6.451 -0.8269  0.5801  0.1601
 3582TIP3    H132161   1.182   3.367   6.383  1.6227 -0.7109  0.9605
 3582TIP3    H232162   1.223   3.512   6.403 -2.9905  0.9075 -0.6912
 3583TIP3   OH232163   5.457   1.825  11.965  0.2114  0.3140 -0.8756
 3583TIP3    H132164   5.469   1.730  11.956 -1.3488  0.2334 -2.3903
 3583TIP3    H232165   5.367   1.835  11.994  0.7702  1.2966  0.5610
 3584TIP3   OH232166   0.512   5.090  12.440  0.5563 -0.2033  0.2471
 3584TIP3    H132167   0.592   5.070  12.487  0.7254 -0.5947 -0.2000
 3584TIP3    H232168   0.442   5.052  12.494  0.6641  0.2079  0.6771
 3585TIP3   OH232169   4.589   6.123   3.385  0.3695 -0.9924 -0.0604
 3585TIP3    H132170   4.569   6.052   3.446  0.0970 -1.2149 -0.4126
 3585TIP3    H232171   4.607   6.079   3.302 -1.2388 -0.5601 -0.6534
 3586TIP3   OH232172   3.922   5.902  13.678  0.3683  0.0671  0.2127
 3586TIP3    H132173   3.975   5.914  13.756  0.8752 -0.3217 -0.0710
 3586TIP3    H232174   3.862   5.830  13.701 -1.0098  1.4355  1.0333
 3587TIP3   OH232175   4.163   0.819   0.909  0.3599  0.7291  0.2803
 3587TIP3    H132176   4.214   0.892   0.874  0.1648  1.1444  0.8589
 3587TIP3    H232177   4.089   0.810   0.849  1.4558 -0.3004 -0.9334
 3588TIP3   OH232178   1.426   4.366  13.724 -0.1098 -0.0560  0.2089
 3588TIP3    H132179   1.443   4.331  13.637 -0.1318  0.3699  0.0363
 3588TIP3    H232180   1.454   4.457  13.720  0.3628 -0.1744  0.7933
 3589TIP3   OH232181   0.966   4.051   0.925 -0.5741 -0.2832 -0.7352
 3589TIP3    H132182   0.978   4.076   0.834 -0.8207 -1.3928 -1.0779
 3589TIP3    H232183   0.877   4.017   0.930 -0.3552 -0.7937 -0.2091
 3590TIP3   OH232184   1.368   2.746  15.788 -0.6364 -0.2935 -0.3364
 3590TIP3    H132185   1.290   2.691  15.777 -0.5001 -0.5997  0.2335
 3590TIP3    H232186   1.348   2.826  15.739 -0.7057 -0.9844 -1.4574
 3591TIP3   OH232187   2.832   0.330   3.532  0.7639  0.5395  0.1820
 3591TIP3    H132188   2.899   0.305   3.595  0.8353 -1.3679 -0.5942
 3591TIP3    H232189   2.880   0.357   3.454  0.6505  0.4658  0.0852
 3592TIP3   OH232190   1.087   1.114   0.408  0.0387 -0.1529  0.0868
 3592TIP3    H132191   1.002   1.147   0.436 -0.6433 -1.9395  0.2208
 3592TIP3    H232192   1.126   1.079   0.488  0.5426 -0.0685 -0.1256
 3593TIP3   OH232193   2.288   4.617   6.372 -0.0771 -0.2403 -0.1797
 3593TIP3    H132194   2.369   4.620   6.321 -0.5933 -2.5867 -1.1776
 3593TIP3    H232195   2.315   4.629   6.463  1.5138 -2.0703 -0.3990
 3594TIP3   OH232196   4.255   1.800   4.694 -0.4777  0.0168 -0.0451
 3594TIP3    H132197   4.213   1.816   4.609 -0.9357 -1.1264 -0.0337
 3594TIP3    H232198   4.198   1.738   4.739  0.1984 -0.0329  0.7630
 3595TIP3   OH232199   2.736   1.010   5.730 -0.3983  0.3050 -0.3667
 3595TIP3    H132200   2.687   1.089   5.707  0.5284  1.2190  0.7286
 3595TIP3    H232201   2.826   1.040   5.743 -0.5693 -0.3625  2.9554
 3596TIP3   OH232202   2.391   2.977  13.838 -0.0888  0.0479 -0.1943
 3596TIP3    H132203   2.421   3.056  13.882  0.3501 -0.8664  1.2141
 3596TIP3    H232204   2.296   2.988  13.832 -0.2288 -0.0477  1.5337
 3597TIP3   OH232205   2.318   5.665   6.382 -0.1494  0.2816 -0.9533
 3597TIP3    H132206   2.226   5.654   6.358 -0.2201 -1.7915  0.2101
 3597TIP3    H232207   2.366   5.647   6.301 -0.7228  1.1571 -1.5070
 3598TIP3   OH232208   3.160   1.721  11.729  0.8748 -0.6990  0.2734
 3598TIP3    H132209   3.139   1.671  11.808  1.8183 -0.9981  0.3327
 3598TIP3    H232210   3.132   1.810  11.749 -0.9924 -1.2217  0.0988
 3599TIP3   OH232211   3.094   6.062  15.167  0.0309 -0.6421  1.1925
 3599TIP3    H132212   3.118   6.146  15.127  1.5274 -0.9343  1.4393
 3599TIP3    H232213   3.004   6.074  15.195 -0.0101  0.6402  0.5574
 3600TIP3   OH232214   4.696   6.172  16.374  0.2245 -0.2475  0.2574
 3600TIP3    H132215   4.690   6.194  16.467 -0.0979  0.6577  0.0281
 3600TIP3    H232216   4.781   6.207  16.347 -0.1367  0.4196 -0.0282
 3601TIP3   OH232217   5.568   6.732  11.504  0.0325 -0.3825  0.4744
 3601TIP3    H132218   5.613   6.784  11.570 -1.5937  0.4573  0.9422
 3601TIP3    H232219   5.569   6.643  11.540  0.2370 -0.1530  1.0455
 3602TIP3   OH232220   6.744   3.538   1.304 -0.0925 -0.0514  0.2482
 3602TIP3    H132221   6.695   3.577   1.377  0.3748  0.3521  0.3421
 3602TIP3    H232222   6.734   3.600   1.232  0.4768  0.1426  0.3357
 3603TIP3   OH232223   2.067   1.861   1.266  0.2379  0.0896  0.3378
 3603TIP3    H132224   1.997   1.920   1.236  1.3368  0.4288 -1.6083
 3603TIP3    H232225   2.021   1.780   1.290 -0.5995 -0.5842 -3.3111
 3604TIP3   OH232226   2.052   0.684   0.893 -0.1255 -0.4318 -0.3138
 3604TIP3    H132227   2.012   0.771   0.900 -0.0308 -0.4499  0.5042
 3604TIP3    H232228   2.046   0.648   0.982  0.3652 -1.0238 -0.5218
 3605TIP3   OH232229   5.639   4.441   0.567  0.5776 -0.3233 -0.2401
 3605TIP3    H132230   5.584   4.405   0.637  1.3795  0.5829  0.8724
 3605TIP3    H232231   5.619   4.387   0.490 -0.6259 -1.0558  0.5811
 3606TIP3   OH232232   0.710   6.398   6.166 -0.2688  0.3076 -0.1642
 3606TIP3    H132233   0.664   6.395   6.250 -2.5711 -1.9152 -1.4270
 3606TIP3    H232234   0.651   6.444   6.107  0.3531 -0.1061 -1.1340
 3607TIP3   OH232235   5.312   4.944  11.300  0.0791  0.1981  0.3397
 3607TIP3    H132236   5.299   4.867  11.355  1.4828 -0.0491  0.3289
 3607TIP3    H232237   5.225   4.962  11.263 -0.2679 -1.3396  0.3816
 3608TIP3   OH232238   4.651   4.625  11.762  0.4594  0.4383  0.1125
 3608TIP3    H132239   4.568   4.666  11.787 -0.5400 -0.2362 -1.9329
 3608TIP3    H232240   4.625   4.544  11.719  2.1832  0.2555 -0.6306
 3609TIP3   OH232241   1.165   6.061  16.767  0.1725 -0.2024  0.1197
 3609TIP3    H132242   1.160   5.972  16.802  0.4081 -0.7126 -1.1029
 3609TIP3    H232243   1.077   6.078  16.733 -0.5625  0.9632  2.5025
 3610TIP3   OH232244   6.040   2.392   3.345 -0.1355 -0.0705 -0.2179
 3610TIP3    H132245   6.011   2.482   3.327  0.9177  0.9889  3.0527
 3610TIP3    H232246   6.129   2.389   3.310 -0.4551 -0.1091 -1.0455
 3611TIP3   OH232247   5.906   2.659  10.968 -0.3005 -0.3562  0.3244
 3611TIP3    H132248   5.928   2.665  10.875 -0.8548 -0.0226  0.2153
 3611TIP3    H232249   5.833   2.719  10.979 -0.0497 -0.1882  1.0345
 3612TIP3   OH232250   0.259   2.361  14.846  0.2196 -0.1921  0.3675
 3612TIP3    H132251   0.201   2.285  14.841 -0.0584 -0.0510  1.2642
 3612TIP3    H232252   0.223   2.424  14.783 -1.1469  0.2458  1.5555
 3613TIP3   OH232253   3.097   0.804  12.196 -0.3161  0.2553 -0.3876
 3613TIP3    H132254   3.103   0.816  12.291  0.1756  3.4985 -0.7888
 3613TIP3    H232255   3.139   0.719  12.180  1.6426  0.7057  2.0442
 3614TIP3   OH232256   6.469   6.015   1.012  0.3819  0.4276  0.2411
 3614TIP3    H132257   6.546   6.071   1.020  0.4502  0.8160 -2.4465
 3614TIP3    H232258   6.500   5.928   1.035  1.6674  0.5689 -0.8797
 3615TIP3   OH232259   1.727   3.455  13.777 -0.5967  0.1183 -0.3937
 3615TIP3    H132260   1.667   3.512  13.729 -2.2958 -0.4876  0.9567
 3615TIP3    H232261   1.729   3.374  13.726 -0.7086  0.2484 -0.6039
 3616TIP3   OH232262   1.692   0.084  14.586 -0.2393 -0.1398  0.0178
 3616TIP3    H132263   1.747   0.009  14.563 -2.6208 -1.8760 -0.2378
 3616TIP3    H232264   1.737   0.125  14.660  1.8040 -1.0001 -0.7215
 3617TIP3   OH232265   1.575   2.007   2.199 -0.1758 -0.3071  0.2269
 3617TIP3    H132266   1.500   1.970   2.245 -1.3611 -0.4304 -1.7529
 3617TIP3    H232267   1.537   2.071   2.138  1.2489 -0.9053 -1.3218
 3618TIP3   OH232268   5.643   3.139  16.577  0.2066 -0.6532 -0.1059
 3618TIP3    H132269   5.606   3.223  16.553 -2.6394 -1.5905  0.7420
 3618TIP3    H232270   5.635   3.136  16.673  0.9613 -1.5903 -0.0580
 3619TIP3   OH232271   0.586   2.425   2.350 -0.9759 -0.0288  0.5973
 3619TIP3    H132272   0.678   2.432   2.374 -1.0154 -1.5150  1.1983
 3619TIP3    H232273   0.587   2.407   2.256 -0.6631  0.2545  0.5469
 3620TIP3   OH232274   2.507   1.406   6.658 -0.3283 -0.4482  0.4225
 3620TIP3    H132275   2.526   1.327   6.608  0.4691  0.8252 -1.3358
 3620TIP3    H232276   2.427   1.441   6.620  0.2951  0.5390 -0.0406
 3621TIP3   OH232277   2.158   1.109   2.337  0.3849  0.1189 -0.5821
 3621TIP3    H132278   2.215   1.185   2.324 -0.9936  0.8270 -2.8433
 3621TIP3    H232279   2.070   1.146   2.346  0.1474 -1.0034  2.1696
 3622TIP3   OH232280   0.283   6.265   1.912 -0.0231  0.1959  0.7551
 3622TIP3    H132281   0.238   6.212   1.978  2.3823  0.3019  2.5623
 3622TIP3    H232282   0.325   6.202   1.854  1.9394  0.0134  2.2775
 3623TIP3   OH232283   1.840   5.822  15.039  0.1285  0.1632 -0.2676
 3623TIP3    H132284   1.891   5.742  15.054  0.5978  0.0489 -2.3066
 3623TIP3    H232285   1.767   5.816  15.101 -1.6809 -3.4642 -2.5975
 3624TIP3   OH232286   6.205   5.773   1.365  0.0300  0.1532 -0.3235
 3624TIP3    H132287   6.175   5.795   1.453 -2.3049  1.6283 -1.4380
 3624TIP3    H232288   6.294   5.808   1.361  0.5669 -0.8914  1.7827
 3625TIP3   OH232289   3.162   2.076  12.414 -0.4067 -0.0453 -0.2008
 3625TIP3    H132290   3.140   2.167  12.390  0.5398 -0.0790 -1.2576
 3625TIP3    H232291   3.257   2.073  12.408 -0.5231 -1.5160 -1.7176
 3626TIP3   OH232292   0.652   2.313   4.079 -0.0049  0.5861 -0.2057
 3626TIP3    H132293   0.631   2.278   4.166  0.5220  1.0776  0.1341
 3626TIP3    H232294   0.617   2.402   4.080  0.2238  0.6805 -0.3982
 3627TIP3   OH232295   3.954   3.428   2.848  0.0913  0.1541  0.2384
 3627TIP3    H132296   3.921   3.402   2.934 -2.7056 -1.1658 -1.1635
 3627TIP3    H232297   3.904   3.375   2.786  1.3647  1.7661 -2.2647
 3628TIP3   OH232298   0.349   0.243   0.755  0.0082  0.1706 -0.1308
 3628TIP3    H132299   0.367   0.248   0.661 -2.5344  2.3800 -0.5697
 3628TIP3    H232300   0.432   0.265   0.797  1.1714 -0.8867 -1.8479
 3629TIP3   OH232301   1.820   0.583   5.233 -0.1833  0.4335  0.2728
 3629TIP3    H132302   1.731   0.598   5.201 -0.7711  0.7214  1.9840
 3629TIP3    H232303   1.811   0.582   5.329  1.3788 -1.2486  0.4264
 3630TIP3   OH232304   5.712   6.615   5.158 -0.1916 -0.1943  0.0501
 3630TIP3    H132305   5.623   6.640   5.182 -0.1237  1.3577 -1.2414
 3630TIP3    H232306   5.719   6.638   5.066  0.9382 -2.0986 -0.3723
 3631TIP3   OH232307   5.729   1.894   3.633 -0.2602 -0.5737  0.2995
 3631TIP3    H132308   5.775   1.821   3.591  0.5121 -0.3118  0.6817
 3631TIP3    H232309   5.771   1.903   3.718 -0.9976 -0.3015  0.6463
 3632TIP3   OH232310   2.548   5.013  14.256 -0.5110 -0.0827  0.6133
 3632TIP3    H132311   2.517   5.002  14.346 -0.4287  0.3850  0.6985
 3632TIP3    H232312   2.637   5.046  14.264 -0.1919 -0.8606  0.3618
 3633TIP3   OH232313   3.171   3.421   2.882  0.4729 -0.3399 -0.3662
 3633TIP3    H132314   3.145   3.461   2.965 -2.5738 -1.8546 -0.5257
 3633TIP3    H232315   3.127   3.474   2.816  1.5319 -0.1599 -0.9332
 3634TIP3   OH232316   0.715   1.326   4.570  0.7876  0.2614  0.2467
 3634TIP3    H132317   0.677   1.306   4.484  0.7151 -0.5844  0.4754
 3634TIP3    H232318   0.809   1.312   4.558  1.0094  2.0133 -0.2210
 3635TIP3   OH232319   3.193   6.008   1.499 -0.5085  0.0532  0.0997
 3635TIP3    H132320   3.230   6.077   1.445 -0.3308  0.7216  1.0670
 3635TIP3    H232321   3.261   5.989   1.564 -1.4014  0.5091  1.1991
 3636TIP3   OH232322   6.046   0.213  12.270  0.3170 -0.1981 -0.4263
 3636TIP3    H132323   6.139   0.197  12.284  0.2669 -0.5237 -0.4522
 3636TIP3    H232324   6.018   0.143  12.211 -0.3029 -1.0859  0.8880
 3637TIP3   OH232325   4.448   1.873   0.244 -0.3735 -0.1927  0.2717
 3637TIP3    H132326   4.514   1.861   0.175 -1.8966 -1.6246 -0.9795
 3637TIP3    H232327   4.493   1.847   0.325  0.9401 -0.0585 -0.3964
 3638TIP3   OH232328   3.935   0.258  17.227 -0.1587 -0.0362  0.4002
 3638TIP3    H132329   4.014   0.213  17.256  0.1292  0.0024 -0.3167
 3638TIP3    H232330   3.868   0.190  17.226  0.0396 -0.2299  0.2885
 3639TIP3   OH232331   1.499   3.896  10.219  0.7087 -0.3276  0.0551
 3639TIP3    H132332   1.529   3.902  10.129 -0.6995 -0.0384 -0.3972
 3639TIP3    H232333   1.556   3.830  10.259  0.1284 -1.8248 -1.5350
 3640TIP3   OH232334   1.553   6.076   3.181 -0.5027  0.0680  0.1198
 3640TIP3    H132335   1.579   6.150   3.125 -2.2725  0.5065 -0.1471
 3640TIP3    H232336   1.511   6.015   3.121 -2.5167  0.5901  0.9652
 3641TIP3   OH232337   0.163   4.563   1.086 -0.2399 -0.1636  0.6405
 3641TIP3    H132338   0.181   4.566   1.180 -1.5115  1.2384  0.8695
 3641TIP3    H232339   0.067   4.569   1.080 -0.0382  2.6977 -0.7974
 3642TIP3   OH232340   2.304   6.533  15.244  0.2345  0.5886 -1.0168
 3642TIP3    H132341   2.273   6.620  15.269  1.2382  0.8944 -0.7919
 3642TIP3    H232342   2.393   6.528  15.279  0.4272 -0.2800 -1.5903
 3643TIP3   OH232343   0.392   6.155  14.146  0.5631  0.6844 -0.0763
 3643TIP3    H132344   0.427   6.090  14.207  1.0956 -0.4057 -1.5040
 3643TIP3    H232345   0.311   6.186  14.187  1.0404  0.1499  1.2888
 3644TIP3   OH232346   1.461   2.752   5.910  0.2110  0.2580 -0.0479
 3644TIP3    H132347   1.438   2.832   5.957  0.2308  0.9234 -1.1493
 3644TIP3    H232348   1.541   2.774   5.862  0.2417 -0.4346 -0.3275
 3645TIP3   OH232349   2.233   1.110  12.170 -0.5553 -0.3880  0.3252
 3645TIP3    H132350   2.149   1.157  12.164 -0.4653 -0.1523  0.8935
 3645TIP3    H232351   2.221   1.034  12.114 -0.0978  1.2010 -2.0037
 3646TIP3   OH232352   1.459   2.894  11.496 -0.4449 -0.1345  0.1012
 3646TIP3    H132353   1.490   2.981  11.519 -1.0578 -0.3508  1.8457
 3646TIP3    H232354   1.369   2.906  11.466 -0.3609 -0.0994 -0.1333
 3647TIP3   OH232355   2.153   0.160   2.200 -0.4072 -0.4811  0.1444
 3647TIP3    H132356   2.162   0.104   2.277  0.0510 -1.5433 -0.6627
 3647TIP3    H232357   2.092   0.228   2.227 -0.5883 -1.0860  1.3125
 3648TIP3   OH232358   2.792   4.925  12.279 -0.1068  1.1859  0.3318
 3648TIP3    H132359   2.856   4.878  12.333 -0.5820  0.3308  0.1702
 3648TIP3    H232360   2.835   4.934  12.194  0.0515  1.1741  0.4101
 3649TIP3   OH232361   4.713   5.008  13.466  0.4317 -0.0150 -0.4233
 3649TIP3    H132362   4.638   4.949  13.470 -0.1583  0.7692  0.2634
 3649TIP3    H232363   4.773   4.976  13.534  0.6983 -0.5977 -0.9255
 3650TIP3   OH232364   1.395   2.342   6.312 -0.2430  0.4157 -0.2853
 3650TIP3    H132365   1.363   2.252   6.313  2.6940 -0.6830  2.1480
 3650TIP3    H232366   1.485   2.335   6.280 -0.0169  2.5015 -0.1863
 3651TIP3   OH232367   1.239   1.007  11.106 -1.0616  0.3804 -0.4918
 3651TIP3    H132368   1.277   0.932  11.153  0.4742  1.3229 -0.2255
 3651TIP3    H232369   1.221   1.071  11.175  0.9719  1.6737 -1.1296
 3652TIP3   OH232370   2.288   6.669   1.327 -0.5297  1.1141 -0.8818
 3652TIP3    H132371   2.355   6.637   1.266  0.3300  1.1211  0.0502
 3652TIP3    H232372   2.336   6.687   1.408 -1.7589  0.5965 -0.0263
 3653TIP3   OH232373   1.208   4.484  10.973 -0.3408 -0.6323 -0.1810
 3653TIP3    H132374   1.302   4.504  10.965 -0.4475 -0.8918 -2.4019
 3653TIP3    H232375   1.175   4.550  11.033  0.7591  1.2443 -1.5727
 3654TIP3   OH232376   0.766   1.163   3.994  0.2303 -0.2907 -0.3547
 3654TIP3    H132377   0.734   1.103   4.063  0.9512  1.3221  1.4202
 3654TIP3    H232378   0.829   1.111   3.944 -1.0638 -1.8025 -0.4533
 3655TIP3   OH232379   6.165   0.060  16.703  0.2655  0.2532  0.2654
 3655TIP3    H132380   6.195  -0.025  16.734  0.0043 -0.5151 -1.4795
 3655TIP3    H232381   6.168   0.053  16.607 -0.8182  1.8202  0.0831
 3656TIP3   OH232382   6.727   2.265   5.182 -0.2807  0.4409  0.0626
 3656TIP3    H132383   6.738   2.212   5.261  0.4827  2.4376  1.3068
 3656TIP3    H232384   6.685   2.345   5.212 -1.5661  0.5131 -1.8371
 3657TIP3   OH232385   2.431   1.658   3.487 -0.0529 -0.2674 -0.3544
 3657TIP3    H132386   2.375   1.688   3.558  2.5392 -0.2188  1.7226
 3657TIP3    H232387   2.413   1.564   3.480 -0.3309 -0.2620  0.3444
 3658TIP3   OH232388   5.581   6.469  11.572 -0.1944 -0.0206  0.1249
 3658TIP3    H132389   5.666   6.432  11.546 -0.3102 -0.4717  0.3722
 3658TIP3    H232390   5.562   6.428  11.656 -0.4879  0.3568  0.2442
 3659TIP3   OH232391   5.222   6.170   2.549 -0.1916  0.3548  0.4788
 3659TIP3    H132392   5.284   6.127   2.608 -1.5397 -0.0734  1.6118
 3659TIP3    H232393   5.258   6.258   2.536  1.0506 -0.1401  0.4847
 3660TIP3   OH232394   1.632   2.116  16.513  0.1760  0.2405  0.6347
 3660TIP3    H132395   1.656   2.204  16.540  0.5600  0.2280  0.3504
 3660TIP3    H232396   1.635   2.064  16.593 -1.7623  0.8471  1.1087
 3661TIP3   OH232397   4.987   1.982   2.996 -0.1112 -0.3628 -0.2258
 3661TIP3    H132398   4.939   1.920   2.941  1.2217 -0.5464 -1.1878
 3661TIP3    H232399   4.952   2.068   2.972 -0.7075 -0.5780 -0.1464
 3662TIP3   OH232400   1.223   0.634  15.466  0.1722  0.5492 -0.9192
 3662TIP3    H132401   1.155   0.677  15.413 -0.6407 -0.6894 -0.9123
 3662TIP3    H232402   1.173   0.583  15.530  1.1263  0.1459 -0.5015
 3663TIP3   OH232403   2.941   2.145   1.083 -0.4595  0.3194  0.3471
 3663TIP3    H132404   2.952   2.223   1.030  0.7494  0.6854  1.1173
 3663TIP3    H232405   3.009   2.084   1.053 -0.5173  0.0886  0.6689
 3664TIP3   OH232406   1.313   3.008   4.201  0.2382  0.7650 -0.9792
 3664TIP3    H132407   1.220   2.993   4.189  0.2008 -1.0996  1.3312
 3664TIP3    H232408   1.321   3.036   4.292  2.0754 -0.3256 -0.7819
 3665TIP3   OH232409   5.949   6.083  13.513 -0.6098  0.2279 -0.6115
 3665TIP3    H132410   5.956   5.994  13.546  0.6146  0.9245  1.1092
 3665TIP3    H232411   5.935   6.073  13.419  1.4991 -1.7516 -0.7578
 3666TIP3   OH232412   2.209   6.499  16.495  0.1069  0.3848 -0.7202
 3666TIP3    H132413   2.166   6.450  16.426 -0.6593  0.3504 -0.2220
 3666TIP3    H232414   2.167   6.470  16.576  1.4043 -0.0199 -0.1752
 3667TIP3   OH232415   5.136   5.997  15.288  0.0378 -0.5225  0.0552
 3667TIP3    H132416   5.196   6.011  15.215 -0.7104 -1.1411 -0.6992
 3667TIP3    H232417   5.134   5.902  15.300  1.2791 -0.3411  1.8599
 3668TIP3   OH232418   0.081   6.573   3.452  0.3459  0.5204  0.5240
 3668TIP3    H132419   0.098   6.536   3.365 -0.6505  0.2175  0.4542
 3668TIP3    H232420   0.087   6.667   3.440  0.9982  0.4557  0.3016
 3669TIP3   OH232421   0.541   5.380   2.905  0.1291  0.0349  0.3852
 3669TIP3    H132422   0.600   5.446   2.942  0.2221  1.8967 -2.9202
 3669TIP3    H232423   0.455   5.402   2.941  0.6965 -0.0483  1.8309
 3670TIP3   OH232424   3.937   6.455   1.467  0.3852 -0.0952 -0.1681
 3670TIP3    H132425   3.956   6.405   1.389  1.6931 -0.0338  0.0920
 3670TIP3    H232426   3.935   6.391   1.538  1.9329  0.1696  0.1454
 3671TIP3   OH232427   1.943   3.803  13.944 -0.1672 -0.6202 -0.2843
 3671TIP3    H132428   1.922   3.771  14.032  0.8406 -2.0242 -0.5401
 3671TIP3    H232429   2.036   3.825  13.948  0.6016 -3.3721 -1.7513
 3672TIP3   OH232430   2.113   1.080  16.551 -0.4735 -0.1746 -0.0732
 3672TIP3    H132431   2.049   1.118  16.611 -1.4643 -2.8248  0.6079
 3672TIP3    H232432   2.183   1.146  16.545 -1.2239  0.8996  2.5608
 3673TIP3   OH232433   3.821   3.501   1.980  0.2076  0.1486  0.3109
 3673TIP3    H132434   3.887   3.521   1.914 -0.0365 -0.2298 -0.0521
 3673TIP3    H232435   3.791   3.586   2.011  1.5838  0.3345  1.2137
 3674TIP3   OH232436   3.107   3.669   1.144  0.1358  0.1741  0.1838
 3674TIP3    H132437   3.132   3.757   1.172  2.6653 -0.4433 -0.0685
 3674TIP3    H232438   3.119   3.615   1.222  0.4206 -0.2857 -0.1793
 3675TIP3   OH232439   5.662   4.121  10.917 -0.1617 -0.3685  0.5681
 3675TIP3    H132440   5.757   4.112  10.925 -0.2960 -0.9376  1.5376
 3675TIP3    H232441   5.627   4.048  10.967 -1.0932 -0.8750 -0.8049
 3676TIP3   OH232442   1.205   5.268  13.098  0.0234  0.6119  0.0362
 3676TIP3    H132443   1.132   5.291  13.040 -0.7045 -0.0260  0.6994
 3676TIP3    H232444   1.225   5.177  13.076 -0.3165  0.3395  0.8603
 3677TIP3   OH232445   0.863   1.527  12.724 -0.3341 -0.4652 -0.0134
 3677TIP3    H132446   0.805   1.490  12.657 -0.1483  0.0224 -0.4509
 3677TIP3    H232447   0.817   1.605  12.755  1.4617  1.6987 -2.5776
 3678TIP3   OH232448   2.617   4.835  16.635 -0.1645  0.1002  0.0542
 3678TIP3    H132449   2.648   4.781  16.707  1.8744 -0.2161 -1.0354
 3678TIP3    H232450   2.594   4.773  16.566  1.1247  0.5531 -0.7946
 3679TIP3   OH232451   4.002   2.941  15.937 -0.3155  0.3906  0.0832
 3679TIP3    H132452   3.914   2.974  15.955 -0.7120 -1.3636  1.5922
 3679TIP3    H232453   4.010   2.864  15.994  2.7741  1.4407  1.1844
 3680TIP3   OH232454   1.025   1.876  13.868  0.0465 -0.2891  0.0140
 3680TIP3    H132455   0.970   1.942  13.827 -0.7338 -0.8520  0.1563
 3680TIP3    H232456   0.969   1.799  13.878  0.1123 -0.0620  2.4298
 3681TIP3   OH232457   2.649   2.618   2.029 -0.8717 -0.0666 -0.5491
 3681TIP3    H132458   2.734   2.577   2.048 -0.6282 -0.3115 -2.0846
 3681TIP3    H232459   2.664   2.667   1.948 -1.6466  1.6193  0.2922
 3682TIP3   OH232460   6.060   2.400  14.584 -0.2794  0.0270  0.4832
 3682TIP3    H132461   6.051   2.493  14.562 -1.3107 -0.3429 -0.7490
 3682TIP3    H232462   6.022   2.393  14.671  1.2487  1.0301  1.2507
 3683TIP3   OH232463   4.510   1.521   4.225 -0.1254  0.1544  0.0744
 3683TIP3    H132464   4.514   1.511   4.130 -2.3657 -0.4195  0.0198
 3683TIP3    H232465   4.581   1.466   4.259  1.8145  1.7016 -1.3078
 3684TIP3   OH232466   5.044   3.023  14.890  0.8102  0.7687 -0.2224
 3684TIP3    H132467   5.030   3.057  14.978 -0.7778  1.4206 -0.7035
 3684TIP3    H232468   5.132   3.053  14.866  1.3221  0.4247  1.2020
 3685TIP3   OH232469   0.318   6.536  12.123  0.1186  0.3133  0.2296
 3685TIP3    H132470   0.390   6.473  12.136  1.1130  1.4369  0.2182
 3685TIP3    H232471   0.241   6.481  12.109  1.2513 -0.9312 -1.3874
 3686TIP3   OH232472   6.511   5.595   1.266  0.6241 -0.1115  0.2372
 3686TIP3    H132473   6.443   5.541   1.305  0.6975 -1.7481 -1.8471
 3686TIP3    H232474   6.582   5.594   1.330 -0.1353 -0.8338  1.0792
 3687TIP3   OH232475   3.186   3.330   5.245  0.0946  0.0962  0.4139
 3687TIP3    H132476   3.131   3.406   5.264 -1.9266 -1.1340 -0.3329
 3687TIP3    H232477   3.261   3.366   5.197 -2.5679  1.2655 -3.1146
 3688TIP3   OH232478   0.659   1.371   2.370 -0.0358 -0.1050 -1.0899
 3688TIP3    H132479   0.705   1.393   2.289  0.2448  0.2908 -0.8275
 3688TIP3    H232480   0.688   1.438   2.433 -3.4445  2.1563 -1.7701
 3689TIP3   OH232481   6.774   2.337  13.890 -0.1801 -0.1875  0.5362
 3689TIP3    H132482   6.837   2.374  13.952  0.3407  0.4903 -0.3895
 3689TIP3    H232483   6.771   2.244  13.912  0.3184 -0.0291  1.3021
 3690TIP3   OH232484   0.975   5.930  11.623  0.3102 -0.0219  0.4823
 3690TIP3    H132485   0.985   5.966  11.535  0.9052 -2.7895 -0.6232
 3690TIP3    H232486   0.887   5.959  11.650  0.2692  1.1664 -0.8508
 3691TIP3   OH232487   1.701   4.708   2.973 -0.0961 -0.5374 -0.8573
 3691TIP3    H132488   1.690   4.760   3.052  2.4858  0.6307 -1.1887
 3691TIP3    H232489   1.731   4.623   3.004  0.9362 -0.0747 -0.5508
 3692TIP3   OH232490   6.386   0.117  11.066 -0.0279 -0.1159  0.3409
 3692TIP3    H132491   6.406   0.206  11.096 -1.3261  0.6850 -1.1063
 3692TIP3    H232492   6.311   0.127  11.008  0.2597 -2.0827 -0.4206
 3693TIP3   OH232493   4.384   6.179   1.302 -0.0731 -0.1821 -0.1955
 3693TIP3    H132494   4.335   6.203   1.223 -1.1912  3.2498  1.4110
 3693TIP3    H232495   4.469   6.151   1.270 -0.6742  0.6896 -2.6672
 3694TIP3   OH232496   3.969   2.342   3.679 -0.4069  0.2383 -0.4163
 3694TIP3    H132497   3.941   2.271   3.738 -1.3225  0.1711 -0.9133
 3694TIP3    H232498   3.958   2.305   3.591  3.7110 -0.6803 -0.6347
 3695TIP3   OH232499   6.623   2.518   0.120  0.0440  0.1499 -0.1468
 3695TIP3    H132500   6.570   2.596   0.104  1.4098  0.8365 -1.3737
 3695TIP3    H232501   6.565   2.460   0.170 -1.5362  1.2693 -0.6410
 3696TIP3   OH232502   0.611   6.582  12.577  1.1074 -0.2667 -0.6081
 3696TIP3    H132503   0.583   6.665  12.616  1.4123 -0.3127 -0.2876
 3696TIP3    H232504   0.583   6.515  12.639 -1.8624 -0.6869 -2.2793
 3697TIP3   OH232505   3.024   1.640  14.436 -0.1812  0.2133  0.1348
 3697TIP3    H132506   3.035   1.558  14.389  1.5576 -0.2119  1.2553
 3697TIP3    H232507   2.935   1.669  14.413  0.2792 -0.4530 -2.6229
 3698TIP3   OH232508   1.465   2.979  10.663 -0.4566 -0.4944  0.4128
 3698TIP3    H132509   1.382   2.992  10.709 -0.9335 -0.4302 -0.4510
 3698TIP3    H232510   1.483   2.885  10.672 -0.3863 -0.4258  0.9977
 3699TIP3   OH232511   4.227   3.083  14.345  0.2733  0.0712 -0.5481
 3699TIP3    H132512   4.163   3.097  14.414 -0.0936 -0.2505 -0.8154
 3699TIP3    H232513   4.265   2.997  14.365 -0.1307 -0.2128 -0.9702
 3700TIP3   OH232514   4.881   3.725  12.723 -0.2319  0.2597 -0.1837
 3700TIP3    H132515   4.817   3.669  12.768  0.2285  0.0480  0.2183
 3700TIP3    H232516   4.857   3.719  12.631 -0.7911  0.1798 -0.0351
 3701TIP3   OH232517   5.561   2.128  16.429 -0.3212  0.2546 -0.0080
 3701TIP3    H132518   5.527   2.207  16.471  0.2380  2.1340 -2.9883
 3701TIP3    H232519   5.542   2.139  16.336 -0.3507 -3.2025 -0.4796
 3702TIP3   OH232520   5.473   1.666   6.278 -0.4009 -0.4198 -0.3669
 3702TIP3    H132521   5.401   1.679   6.340  1.2018  1.2113  1.2018
 3702TIP3    H232522   5.548   1.709   6.319  1.1958 -1.0867 -2.5156
 3703TIP3   OH232523   1.105   0.530   2.195 -0.0525  0.3934 -0.4208
 3703TIP3    H132524   1.142   0.502   2.279 -0.5411  3.1020  0.7194
 3703TIP3    H232525   1.181   0.560   2.145  0.1290 -0.3990 -0.6268
 3704TIP3   OH232526   4.065   6.476  13.154 -0.0312 -0.2270 -0.2051
 3704TIP3    H132527   4.161   6.474  13.163  0.0665  1.6734 -0.5644
 3704TIP3    H232528   4.047   6.428  13.074  0.9782  2.8806 -2.3756
 3705TIP3   OH232529   6.327   5.658  16.781  0.2870  0.4254  0.1310
 3705TIP3    H132530   6.292   5.569  16.790  0.0800  0.3721 -1.2162
 3705TIP3    H232531   6.403   5.650  16.725  1.0932  0.9067  1.1319
 3706TIP3   OH232532   1.368   1.262   0.785  0.2427  0.2307 -0.2150
 3706TIP3    H132533   1.402   1.325   0.848 -1.9303  0.8821  0.3715
 3706TIP3    H232534   1.295   1.220   0.831  0.5551 -1.4617 -1.2308
 3707TIP3   OH232535   4.783   3.985   3.613 -0.7774  0.1381 -0.1300
 3707TIP3    H132536   4.738   3.915   3.661 -2.7352  0.8455 -0.8859
 3707TIP3    H232537   4.716   4.052   3.601  0.4829  1.1932 -1.3573
 3708TIP3   OH232538   1.801   2.387  13.065 -0.0601  0.4465  0.2115
 3708TIP3    H132539   1.749   2.381  12.984  1.0516 -0.3402 -0.4621
 3708TIP3    H232540   1.776   2.310  13.116 -0.1474  0.4941  0.2394
 3709TIP3   OH232541   4.137   2.902   0.734  0.3212 -0.0036 -1.0033
 3709TIP3    H132542   4.209   2.888   0.796  0.4463 -1.0225 -1.3705
 3709TIP3    H232543   4.173   2.963   0.669  0.4020  0.5581 -0.4294
 3710TIP3   OH232544   3.597   5.262  11.657  0.7180 -0.4800  0.7151
 3710TIP3    H132545   3.689   5.238  11.645  0.7449 -0.4710  0.9003
 3710TIP3    H232546   3.549   5.180  11.647  0.8369 -0.6689  1.6684
 3711TIP3   OH232547   2.596   2.916  16.067 -0.0021 -0.3918 -0.3832
 3711TIP3    H132548   2.645   2.847  16.023 -0.0070 -0.4145 -0.3541
 3711TIP3    H232549   2.636   2.997  16.036 -0.2089 -0.3983 -0.6668
 3712TIP3   OH232550   4.500   4.899  14.572  0.0267  0.3284 -0.8257
 3712TIP3    H132551   4.579   4.867  14.617 -0.2819  2.5172  1.3746
 3712TIP3    H232552   4.429   4.848  14.610  0.1951 -0.5794 -1.7107
 3713TIP3   OH232553   1.307   2.516  17.191  0.3267  0.2332 -0.1800
 3713TIP3    H132554   1.242   2.585  17.177 -1.4406 -1.0834  1.2586
 3713TIP3    H232555   1.320   2.477  17.105  0.0846  1.2674 -0.6918
 3714TIP3   OH232556   5.962   5.167   6.233 -0.7695  0.5799 -0.1097
 3714TIP3    H132557   5.987   5.155   6.325  1.8400 -1.8922 -1.0597
 3714TIP3    H232558   5.948   5.261   6.224 -2.0200  0.7463  3.0267
 3715TIP3   OH232559   6.457   5.295  13.958 -0.3120  0.7694  0.1133
 3715TIP3    H132560   6.474   5.255  13.873 -0.6192  0.0539  0.3873
 3715TIP3    H232561   6.411   5.376  13.937 -1.1096  0.1983 -0.3667
 3716TIP3   OH232562   5.256   1.570   1.429 -0.7111  0.0472 -0.3120
 3716TIP3    H132563   5.251   1.652   1.479  0.9984 -2.0120  3.3843
 3716TIP3    H232564   5.335   1.580   1.376  0.3325  0.2282  1.2451
 3717TIP3   OH232565   3.670   0.399  12.078 -0.2392  0.3742  0.2021
 3717TIP3    H132566   3.749   0.396  12.132 -0.6139  1.0764  0.8080
 3717TIP3    H232567   3.621   0.320  12.103  0.5255 -0.3546 -0.5851
 3718TIP3   OH232568   5.727   2.599   0.638 -0.1303  0.0118 -0.0590
 3718TIP3    H132569   5.692   2.620   0.552 -1.5192 -0.5813  0.3440
 3718TIP3    H232570   5.732   2.683   0.684 -0.3337  0.1988 -0.3816
 3719TIP3   OH232571   5.760   1.695  11.811  0.2176 -0.5329 -0.0754
 3719TIP3    H132572   5.813   1.616  11.798 -0.7488 -1.1596 -0.3011
 3719TIP3    H232573   5.673   1.671  11.779 -0.1240  0.5842 -0.0132
 3720TIP3   OH232574   5.645   4.739  15.299 -0.3251  0.2346 -0.2913
 3720TIP3    H132575   5.606   4.725  15.213  1.0004 -0.4159 -0.7803
 3720TIP3    H232576   5.727   4.785  15.282  0.2988 -0.5445  0.5748
 3721TIP3   OH232577   5.991   1.947   4.296 -0.6629  0.4070  0.0947
 3721TIP3    H132578   5.903   1.963   4.264 -1.1768 -1.0635  0.7226
 3721TIP3    H232579   5.986   1.863   4.341  0.8156  0.7905  1.0504
 3722TIP3   OH232580   1.499   1.412   0.982  0.0513 -0.0658 -0.2308
 3722TIP3    H132581   1.508   1.480   0.916  2.1081 -0.4986 -0.4115
 3722TIP3    H232582   1.482   1.459   1.063 -0.2641  0.5712 -0.6653
 3723TIP3   OH232583   3.118   1.076   5.623 -0.1705 -0.0454 -0.7022
 3723TIP3    H132584   3.077   0.990   5.624  0.8747 -0.5559 -0.4912
 3723TIP3    H232585   3.058   1.132   5.671  1.7351 -1.9121  4.2431
 3724TIP3   OH232586   3.560   4.955   0.842  0.2384  0.6658  0.1439
 3724TIP3    H132587   3.488   4.967   0.904 -0.5639  0.4260 -0.7333
 3724TIP3    H232588   3.602   4.873   0.868 -0.9580 -0.1534 -0.4741
 3725TIP3   OH232589   4.409   4.827  11.452 -0.0780 -0.5521 -0.5825
 3725TIP3    H132590   4.494   4.824  11.495 -0.8406 -1.1064  0.9272
 3725TIP3    H232591   4.364   4.749  11.484 -1.1369 -0.2784 -1.3990
 3726TIP3   OH232592   2.474   3.184  17.169 -0.5832 -0.4489 -0.0810
 3726TIP3    H132593   2.466   3.204  17.076  0.4506 -0.5858 -0.1976
 3726TIP3    H232594   2.450   3.092  17.176  0.1498 -0.6590 -0.3288
 3727TIP3   OH232595   1.195   4.589   2.315 -0.0757 -0.0728 -0.1810
 3727TIP3    H132596   1.220   4.539   2.238  0.8699  0.7346 -0.4050
 3727TIP3    H232597   1.144   4.528   2.368 -0.0242 -0.8776 -1.0524
 3728TIP3   OH232598   0.747   3.472   3.029 -0.1014  0.6486 -0.3497
 3728TIP3    H132599   0.656   3.444   3.037 -0.4232  2.0830  1.3429
 3728TIP3    H232600   0.792   3.428   3.100  0.3026  0.8230 -0.4977
 3729TIP3   OH232601   0.720   3.809   4.274 -0.1979  0.1292 -0.6182
 3729TIP3    H132602   0.698   3.719   4.250 -0.2284  0.0725 -0.3774
 3729TIP3    H232603   0.802   3.803   4.321 -1.4511 -0.0609  1.5887
 3730TIP3   OH232604   0.336   0.667   4.057  0.1356  0.4278  0.0344
 3730TIP3    H132605   0.281   0.736   4.094 -0.4857  0.0663 -0.2107
 3730TIP3    H232606   0.381   0.628   4.133  0.6585  1.2436  0.1477
 3731TIP3   OH232607   6.236   4.098   1.125 -0.0369 -0.1501  0.2229
 3731TIP3    H132608   6.259   4.030   1.190  0.4686  0.5712  0.8063
 3731TIP3    H232609   6.193   4.166   1.176  2.0227  1.2649  0.1185
 3732TIP3   OH232610   6.454   3.713  10.593 -0.2906  0.0981 -0.3933
 3732TIP3    H132611   6.425   3.651  10.527 -1.7336 -0.9340  1.1565
 3732TIP3    H232612   6.517   3.665  10.646 -0.3506  0.3879 -0.0512
 3733TIP3   OH232613   4.314   0.218  13.456 -0.3112  0.3443 -0.1213
 3733TIP3    H132614   4.230   0.172  13.457  0.1617 -0.5319  1.0924
 3733TIP3    H232615   4.379   0.147  13.452  0.3506  1.0380 -1.9251
 3734TIP3   OH232616   1.808   6.704   0.769  0.7380 -0.3481  0.2994
 3734TIP3    H132617   1.887   6.751   0.743  0.2843  0.7923  0.9762
 3734TIP3    H232618   1.841   6.623   0.808  1.4988 -0.9177 -1.4526
 3735TIP3   OH232619   3.753   4.829   5.379 -0.2736  0.1290 -0.2066
 3735TIP3    H132620   3.767   4.880   5.458  0.0098  0.1314 -0.2585
 3735TIP3    H232621   3.823   4.764   5.378 -2.0762 -1.8964  1.1507
 3736TIP3   OH232622   5.278   6.717  14.116 -0.1383 -0.3903  0.6380
 3736TIP3    H132623   5.185   6.706  14.097 -0.0300 -2.3424  1.1332
 3736TIP3    H232624   5.290   6.812  14.124 -1.6639 -0.0036 -1.4277
 3737TIP3   OH232625   3.879   2.324   0.474  0.1994  0.4484  0.2800
 3737TIP3    H132626   3.822   2.248   0.457  1.7816 -0.7092  0.0149
 3737TIP3    H232627   3.856   2.352   0.562 -1.2541  0.4083 -0.0826
 3738TIP3   OH232628   0.083   5.132   0.973  0.5237  0.3306 -0.4337
 3738TIP3    H132629   0.125   5.218   0.971 -0.1316  0.6913  1.0883
 3738TIP3    H232630   0.109   5.091   0.890  0.0150  2.3632 -1.6198
 3739TIP3   OH232631   2.640   1.689  13.588 -0.5316  0.0114 -0.0371
 3739TIP3    H132632   2.634   1.784  13.589  1.4554  0.1530 -0.4225
 3739TIP3    H232633   2.620   1.664  13.498  1.3014  0.2483 -0.5245
 3740TIP3   OH232634   3.754   5.137  17.132  0.0516 -0.4030  0.2946
 3740TIP3    H132635   3.707   5.068  17.178 -0.8962 -1.5963 -2.3230
 3740TIP3    H232636   3.844   5.106  17.127 -0.4131 -1.5926 -1.0579
 3741TIP3   OH232637   1.564   0.337  14.897  0.2715 -0.1439  0.2959
 3741TIP3    H132638   1.643   0.303  14.855  0.4422  0.8565 -0.2145
 3741TIP3    H232639   1.594   0.415  14.944 -0.5709  0.7587 -0.6353
 3742TIP3   OH232640   4.204   2.927   0.042  0.3526 -0.1967  0.3580
 3742TIP3    H132641   4.192   2.979  -0.038 -0.7965 -0.4144  0.3788
 3742TIP3    H232642   4.146   2.852   0.030 -0.0147 -0.1086  1.5077
 3743TIP3   OH232643   2.585   6.714   1.825 -0.3511  0.5015 -0.8108
 3743TIP3    H132644   2.667   6.670   1.848  0.4811  1.5456 -1.7350
 3743TIP3    H232645   2.580   6.788   1.886 -1.9505 -1.0712  1.0085
 3744TIP3   OH232646   4.247   3.841  14.534 -0.2544 -0.4778  0.2285
 3744TIP3    H132647   4.165   3.799  14.510 -0.2123  0.3382 -1.3941
 3744TIP3    H232648   4.225   3.894  14.610 -1.4146  0.3486 -0.6724
 3745TIP3   OH232649   0.899   1.739   4.028 -0.0562  0.2334 -0.0413
 3745TIP3    H132650   0.805   1.744   4.011 -0.5251 -1.4156  1.8613
 3745TIP3    H232651   0.925   1.654   3.993 -0.0562 -0.9766  2.7101
 3746TIP3   OH232652   0.611   2.050   6.391  0.6138  0.3024 -0.4998
 3746TIP3    H132653   0.632   2.037   6.483 -0.1188 -0.8553 -0.4839
 3746TIP3    H232654   0.684   2.010   6.343  0.1172 -0.7007 -0.4273
 3747TIP3   OH232655   6.183   3.765   5.731 -0.4868  0.2257  0.5656
 3747TIP3    H132656   6.218   3.835   5.675  2.3300  1.2225  3.4744
 3747TIP3    H232657   6.168   3.692   5.671 -0.9473  2.3971 -2.0779
 3748TIP3   OH232658   6.124   4.914  12.842 -0.2963  0.1807  0.9382
 3748TIP3    H132659   6.063   4.915  12.768  0.3999 -0.1545  0.3599
 3748TIP3    H232660   6.155   5.004  12.849  1.4220 -0.2483 -0.6722
 3749TIP3   OH232661   6.356   1.838  12.906 -0.7278 -0.1294  0.0949
 3749TIP3    H132662   6.406   1.864  12.828 -1.0823 -0.3499 -0.2060
 3749TIP3    H232663   6.265   1.832  12.876 -0.8748 -0.1613  0.5387
 3750TIP3   OH232664   5.099   6.224  13.690 -0.7479 -0.5563  0.5684
 3750TIP3    H132665   5.029   6.166  13.721 -1.0422 -0.7037 -0.3321
 3750TIP3    H232666   5.052   6.297  13.648 -0.3812 -1.3722 -1.3279
 3751TIP3   OH232667   3.626   6.174   1.219 -0.0778  0.8456 -0.3712
 3751TIP3    H132668   3.693   6.147   1.283  1.1871 -0.2002 -2.1044
 3751TIP3    H232669   3.553   6.113   1.234 -0.5809  1.8280  1.3558
 3752TIP3   OH232670   2.228   3.172  16.666  0.3156 -0.5344  0.2198
 3752TIP3    H132671   2.231   3.076  16.672 -0.2178 -0.5199  0.8378
 3752TIP3    H232672   2.136   3.193  16.681  0.2987  0.0301 -0.6716
 3753TIP3   OH232673   3.534   6.516  14.981  0.1158 -0.2366  0.5684
 3753TIP3    H132674   3.443   6.542  14.997  0.2983 -0.0565  1.2847
 3753TIP3    H232675   3.548   6.441  15.039  0.3157 -0.5021  0.1867
 3754TIP3   OH232676   5.398   6.362  12.078 -0.3600 -0.1478 -0.4981
 3754TIP3    H132677   5.337   6.395  12.012  0.6426 -0.1343 -1.4426
 3754TIP3    H232678   5.404   6.268  12.059  0.3442 -0.0474 -0.7604
 3755TIP3   OH232679   6.474   2.122   5.444 -0.4141  0.4186 -0.0235
 3755TIP3    H132680   6.477   2.087   5.355 -0.6124  1.0642 -0.2818
 3755TIP3    H232681   6.564   2.150   5.462  0.1697 -1.8509  0.8473
 3756TIP3   OH232682   3.662   4.507  13.909  0.2203 -0.2825  0.0206
 3756TIP3    H132683   3.722   4.477  13.841 -0.0366 -2.8327  0.8581
 3756TIP3    H232684   3.595   4.556  13.862  2.2594  1.5329 -1.0533
 3757TIP3   OH232685   5.605   3.414  11.748 -0.0527  0.0329 -0.2879
 3757TIP3    H132686   5.614   3.391  11.840 -1.1885 -0.7914 -0.3776
 3757TIP3    H232687   5.580   3.506  11.748 -3.5987 -0.8763  0.3626
 3758TIP3   OH232688   5.485   5.474   5.599  0.1600 -0.0625  0.4871
 3758TIP3    H132689   5.429   5.494   5.674  0.2987 -1.6677  1.0269
 3758TIP3    H232690   5.570   5.512   5.622  0.1905 -0.5112  1.1162
 3759TIP3   OH232691   0.765   0.772   2.172  0.2708 -0.2696 -0.3659
 3759TIP3    H132692   0.684   0.822   2.163  0.5350  0.2774  0.1916
 3759TIP3    H232693   0.752   0.720   2.251 -0.1701 -1.4076 -1.1842
 3760TIP3   OH232694   3.968   6.165  13.144 -0.2889 -0.6141 -0.8075
 3760TIP3    H132695   3.915   6.212  13.080  0.4317  1.3865  0.0136
 3760TIP3    H232696   4.058   6.183  13.118  0.0102  0.1968  0.7153
 3761TIP3   OH232697   2.499   5.252  14.938  0.3125 -0.1217  1.0313
 3761TIP3    H132698   2.517   5.174  14.991  0.1794  0.6304  2.1826
 3761TIP3    H232699   2.569   5.313  14.961  0.3036  0.1764  0.2762
 3762TIP3   OH232700   1.882   0.875   0.942 -0.2314 -0.3156 -0.1812
 3762TIP3    H132701   1.873   0.971   0.945 -0.5716 -0.3737  1.1613
 3762TIP3    H232702   1.863   0.847   1.031  0.5208 -1.5899 -0.4082
 3763TIP3   OH232703   4.493   2.244   6.394  0.1521  0.1300 -0.5668
 3763TIP3    H132704   4.406   2.214   6.419 -0.1604  1.4047 -0.0608
 3763TIP3    H232705   4.489   2.256   6.299 -0.5251  1.0801 -0.4274
 3764TIP3   OH232706   1.008   1.789   2.415  0.1452  0.1012  0.6666
 3764TIP3    H132707   1.067   1.769   2.487  0.7889 -1.5547 -0.2847
 3764TIP3    H232708   1.011   1.711   2.359 -0.1567  1.4228 -1.2636
 3765TIP3   OH232709   0.858   2.226   2.669 -0.4412  0.6348 -0.2684
 3765TIP3    H132710   0.879   2.145   2.622  0.8128  0.2773  0.8789
 3765TIP3    H232711   0.763   2.228   2.672 -0.4809 -1.5287  0.9050
 3766TIP3   OH232712   5.857   4.114   4.069  0.0801  0.0831 -0.7801
 3766TIP3    H132713   5.779   4.060   4.059 -0.0233  0.0885 -0.0362
 3766TIP3    H232714   5.872   4.151   3.982 -0.5925 -0.1190 -0.9855
 3767TIP3   OH232715   5.455   1.274   0.278  0.2422  0.5509 -0.6504
 3767TIP3    H132716   5.493   1.186   0.285  0.2148  0.7221  2.3565
 3767TIP3    H232717   5.530   1.332   0.267  0.4714  0.3734 -0.0666
 3768TIP3   OH232718   5.859   4.011  16.425  0.2204 -0.5688  0.3971
 3768TIP3    H132719   5.778   4.032  16.379  0.5802 -0.3631 -0.1535
 3768TIP3    H232720   5.906   3.951  16.366  0.5278 -0.5847  0.6519
 3769TIP3   OH232721   4.975   0.906  15.582  0.1449  0.3171 -0.2017
 3769TIP3    H132722   4.956   0.961  15.659 -0.2832 -0.7481  0.4740
 3769TIP3    H232723   5.041   0.955  15.533 -0.6770  1.7262  0.0597
 3770TIP3   OH232724   3.958   2.932   2.324  0.0732 -0.0329 -0.0594
 3770TIP3    H132725   3.955   2.836   2.319 -2.1468  0.0272 -0.2119
 3770TIP3    H232726   4.001   2.959   2.243  0.9299 -0.9054  0.0984
 3771TIP3   OH232727   2.772   2.806   3.000  0.1040 -0.4941 -0.4272
 3771TIP3    H132728   2.694   2.834   2.952 -0.8651  0.0934  1.4346
 3771TIP3    H232729   2.767   2.710   2.999 -1.2618 -0.4491  0.6584
 3772TIP3   OH232730   6.590   4.308   2.681  0.6090  0.1278 -0.0186
 3772TIP3    H132731   6.643   4.379   2.646  0.4734  0.0739 -0.3338
 3772TIP3    H232732   6.526   4.352   2.737  1.5086  0.1217  1.0190
 3773TIP3   OH232733   3.760   3.037   0.899  0.7744 -0.4446 -0.2934
 3773TIP3    H132734   3.823   2.965   0.898  1.9740  0.5563 -3.7438
 3773TIP3    H232735   3.797   3.102   0.839 -2.2195  1.3609 -0.2754
 3774TIP3   OH232736   5.009   0.549  17.084  0.2013 -0.1108  0.0468
 3774TIP3    H132737   4.994   0.467  17.037 -1.9422 -0.3287  1.0437
 3774TIP3    H232738   4.944   0.548  17.154  1.2199  1.7076  1.0408
 3775TIP3   OH232739   4.190   3.894  12.195 -0.2922 -0.5326 -0.0028
 3775TIP3    H132740   4.212   3.984  12.222 -1.2546 -0.1595 -0.4443
 3775TIP3    H232741   4.118   3.905  12.133 -3.0727 -1.8260  2.8883
 3776TIP3   OH232742   6.694   6.203  11.774  0.2285 -0.0234  0.5230
 3776TIP3    H132743   6.783   6.193  11.740  0.0871  0.3771  0.0284
 3776TIP3    H232744   6.639   6.209  11.695 -0.3846 -1.5033  0.8055
 3777TIP3   OH232745   3.378   4.377  16.406 -0.1527  0.5900  0.2304
 3777TIP3    H132746   3.292   4.416  16.394 -0.4210  0.0319  0.2849
 3777TIP3    H232747   3.413   4.418  16.485  0.8269  2.8935 -1.3445
 3778TIP3   OH232748   1.842   1.927  10.748 -0.0870 -0.2146  0.4253
 3778TIP3    H132749   1.854   2.011  10.792 -1.4283  0.0243  0.3622
 3778TIP3    H232750   1.750   1.927  10.722  0.2076 -1.1832 -0.6629
 3779TIP3   OH232751   3.536   1.484  16.690 -0.3186  0.7197 -0.0043
 3779TIP3    H132752   3.531   1.391  16.708 -0.1331  0.8230  0.5750
 3779TIP3    H232753   3.447   1.517  16.704 -0.9520  0.2104 -2.5433
 3780TIP3   OH232754   1.470   2.957  16.472 -0.6962 -0.2814  0.2396
 3780TIP3    H132755   1.508   2.946  16.559  1.6607 -0.0688 -0.7237
 3780TIP3    H232756   1.541   2.992  16.419 -2.3608  0.4658 -1.5627
 3781TIP3   OH232757   3.184   0.729   2.589 -0.0718  0.1766  0.2869
 3781TIP3    H132758   3.174   0.816   2.628  1.4205 -0.0881  1.3106
 3781TIP3    H232759   3.109   0.679   2.621  0.0638  0.5482  1.1811
 3782TIP3   OH232760   6.508   0.522  15.824 -0.4205  0.5876  0.0679
 3782TIP3    H132761   6.579   0.534  15.762  0.1543 -0.1976  0.5653
 3782TIP3    H232762   6.547   0.539  15.910 -1.1440  1.4079  0.2418
 3783TIP3   OH232763   5.710   4.090   2.869  0.2534  0.3983  0.3209
 3783TIP3    H132764   5.618   4.069   2.849  0.7713  0.1348 -1.8319
 3783TIP3    H232765   5.706   4.129   2.957 -2.0949  1.6278 -0.2786
 3784TIP3   OH232766   5.181   4.669   1.608  0.0359  0.0995  0.1275
 3784TIP3    H132767   5.211   4.593   1.559  0.6300  0.3737  0.0703
 3784TIP3    H232768   5.118   4.633   1.671  0.9084 -0.5524  0.6391
 3785TIP3   OH232769   4.388   0.917  13.803 -0.2933 -0.3209  0.1818
 3785TIP3    H132770   4.373   0.841  13.860 -1.7669 -0.3725 -0.2580
 3785TIP3    H232771   4.416   0.986  13.862  0.9866 -1.1693  0.6024
 3786TIP3   OH232772   4.217   5.288   0.897  0.3930 -0.0876  0.4756
 3786TIP3    H132773   4.292   5.303   0.839 -0.3151  0.5334 -0.2937
 3786TIP3    H232774   4.239   5.336   0.977  1.7769 -1.6805  1.0806
 3787TIP3   OH232775   2.265   1.324   1.052 -0.0411 -0.7202  0.3228
 3787TIP3    H132776   2.282   1.278   1.134 -1.6557  1.4843  1.9894
 3787TIP3    H232777   2.348   1.366   1.030  0.3215 -1.0700  1.0104
 3788TIP3   OH232778   5.697   0.474  11.115 -0.2420  0.0642  0.1616
 3788TIP3    H132779   5.667   0.542  11.054  0.0851 -0.2514 -0.3630
 3788TIP3    H232780   5.787   0.455  11.087 -0.3383 -0.6024  0.2859
 3789TIP3   OH232781   1.320   6.512  11.734  0.0079  0.0398  0.3163
 3789TIP3    H132782   1.240   6.473  11.770  0.1935  0.0906  0.7869
 3789TIP3    H232783   1.347   6.576  11.800  0.0507  0.5240 -0.1644
 3790TIP3   OH232784   0.329   6.721   5.605  0.1155 -0.1201 -0.4500
 3790TIP3    H132785   0.274   6.644   5.595 -0.8270  0.6002 -0.9618
 3790TIP3    H232786   0.318   6.747   5.697  1.5395 -1.4024  0.0932
 3791TIP3   OH232787   1.997   0.288   1.886 -0.5869  0.0418  0.5537
 3791TIP3    H132788   1.937   0.332   1.946  0.8612 -0.8197  2.6901
 3791TIP3    H232789   1.952   0.207   1.863 -0.7909 -0.0123  1.1412
 3792TIP3   OH232790   2.835   0.550  14.038  0.0966 -0.9125  0.0102
 3792TIP3    H132791   2.852   0.633  14.082 -2.1752  0.6654 -1.9367
 3792TIP3    H232792   2.919   0.525  13.999  0.6718  0.7146  0.1917
 3793TIP3   OH232793   6.689   5.746  14.162  0.0897  0.4064 -0.1572
 3793TIP3    H132794   6.622   5.683  14.188  0.2264  0.9948  1.7093
 3793TIP3    H232795   6.710   5.723  14.072 -1.8288 -0.4776 -0.4045
 3794TIP3   OH232796   1.685   6.438  12.928 -0.3257 -0.8067 -0.0221
 3794TIP3    H132797   1.620   6.370  12.911 -1.5023  0.2457  0.1851
 3794TIP3    H232798   1.659   6.511  12.871 -0.0643  0.0718  0.9630
 3795TIP3   OH232799   4.361   0.161   2.868 -0.0045 -0.0773 -0.1250
 3795TIP3    H132800   4.320   0.078   2.843  0.0743 -0.8439  2.1884
 3795TIP3    H232801   4.454   0.149   2.847  0.2492 -1.1303  1.5194
 3796TIP3   OH232802   1.134   4.569  15.842 -0.1513  0.3938  0.2109
 3796TIP3    H132803   1.080   4.573  15.763  0.8312 -0.3834 -0.5153
 3796TIP3    H232804   1.073   4.549  15.912 -1.1818  1.9961 -0.1959
 3797TIP3   OH232805   0.995   2.235   2.235 -0.2454  0.2006  0.2024
 3797TIP3    H132806   0.970   2.143   2.244  1.6866 -0.2768  0.8869
 3797TIP3    H232807   0.941   2.280   2.299 -0.2211 -0.6574  0.8440
 3798TIP3   OH232808   4.017   0.391  11.553 -0.6392  0.3303 -0.1558
 3798TIP3    H132809   4.105   0.381  11.517  0.6154  0.6600  2.6627
 3798TIP3    H232810   4.022   0.351  11.640 -2.8908  1.5951  0.5932
 3799TIP3   OH232811   2.707   0.616   2.228 -0.2898  0.0630 -0.4350
 3799TIP3    H132812   2.683   0.523   2.226  0.3703 -0.1569  0.8538
 3799TIP3    H232813   2.625   0.662   2.241 -0.6479 -0.3276 -1.2700
 3800TIP3   OH232814   1.961   5.031   2.827  0.0199  0.7746 -0.2524
 3800TIP3    H132815   1.984   5.054   2.737  0.2912 -2.1088 -0.9614
 3800TIP3    H232816   1.882   4.977   2.819  1.9532 -2.3497  0.8952
 3801TIP3   OH232817   6.317   5.521   2.312 -0.9143  0.3070  0.1311
 3801TIP3    H132818   6.278   5.601   2.347 -1.3719 -0.0097  0.3475
 3801TIP3    H232819   6.262   5.450   2.346  1.7907 -0.4167  3.2316
 3802TIP3   OH232820   5.021   5.283   3.578  0.1577 -0.2611  0.3574
 3802TIP3    H132821   5.074   5.349   3.622 -0.9775 -0.1756  1.6341
 3802TIP3    H232822   5.068   5.265   3.496  2.9316 -1.2906  2.1023
 3803TIP3   OH232823   6.018   6.245   2.521  0.2068 -0.0903 -0.6492
 3803TIP3    H132824   6.082   6.305   2.482  0.8673  0.3602  1.0958
 3803TIP3    H232825   6.070   6.171   2.551 -0.2065 -0.1189 -0.0036
 3804TIP3   OH232826   0.432   4.974   0.943 -0.0690  0.1863 -0.1596
 3804TIP3    H132827   0.525   4.973   0.921  0.1888 -3.3194  0.7747
 3804TIP3    H232828   0.421   5.052   0.997  2.1484  1.0709 -0.9157
 3805TIP3   OH232829   1.798   4.208  14.583 -0.0399 -0.0058 -0.4901
 3805TIP3    H132830   1.891   4.208  14.602 -0.4272 -1.0867  1.6804
 3805TIP3    H232831   1.759   4.261  14.652 -1.1741 -0.9120 -0.4044
 3806TIP3   OH232832   0.900   2.380   1.707  0.2471 -0.3902  0.1403
 3806TIP3    H132833   0.881   2.440   1.779 -0.3010 -0.0467 -0.2837
 3806TIP3    H232834   0.819   2.330   1.696  0.7002 -1.1996  0.4843
 3807TIP3   OH232835   1.049   0.210   2.626 -0.1861 -0.0626 -0.2227
 3807TIP3    H132836   1.063   0.273   2.697 -0.1473 -1.5767  1.1221
 3807TIP3    H232837   1.123   0.225   2.567  0.8439 -0.1187  1.0315
 3808TIP3   OH232838   6.709   4.721   5.928 -0.4032  0.2253  0.2889
 3808TIP3    H132839   6.701   4.779   5.852 -0.0566 -1.2669 -0.9257
 3808TIP3    H232840   6.782   4.663   5.905 -0.8684 -0.8099  1.3800
 3809TIP3   OH232841   3.172   2.253   2.642 -0.6992  0.8127  0.1779
 3809TIP3    H132842   3.133   2.299   2.716 -1.0431  0.9739 -0.0993
 3809TIP3    H232843   3.131   2.167   2.643 -0.8802  0.8972  0.0331
 3810TIP3   OH232844   0.219   5.548   3.530 -0.3886 -0.2499 -0.2288
 3810TIP3    H132845   0.221   5.482   3.460 -0.1515 -0.7041  0.2048
 3810TIP3    H232846   0.228   5.632   3.484  0.0272 -0.5629 -0.7194
 3811TIP3   OH232847   2.204   2.750  13.378 -0.4984  0.8765 -0.4098
 3811TIP3    H132848   2.235   2.663  13.352 -1.5079  0.1672  0.7010
 3811TIP3    H232849   2.137   2.772  13.314  0.5296  1.3156 -1.3405
 3812TIP3   OH232850   4.257   1.744   3.734  0.1102 -0.1835  0.2520
 3812TIP3    H132851   4.182   1.686   3.715  1.8591 -2.5107  0.1962
 3812TIP3    H232852   4.222   1.832   3.726 -2.9039 -1.2201  1.2660
 3813TIP3   OH232853   2.327   2.620  15.636  0.2094  0.3122 -0.0128
 3813TIP3    H132854   2.307   2.529  15.654 -1.6713  0.2461 -2.2726
 3813TIP3    H232855   2.272   2.670  15.697  0.3948 -0.0120  0.4256
 3814TIP3   OH232856   3.942   1.094   2.839  0.1128  0.5724  0.4160
 3814TIP3    H132857   3.854   1.130   2.836 -1.0333 -2.1074  0.8855
 3814TIP3    H232858   3.983   1.137   2.914 -1.1654  0.9873  0.8791
 3815TIP3   OH232859   4.582   1.262  13.771 -0.1804 -0.4169 -0.3801
 3815TIP3    H132860   4.625   1.330  13.719 -1.2972  0.1705 -0.5667
 3815TIP3    H232861   4.650   1.196  13.786  0.2704 -0.4298 -2.2998
 3816TIP3   OH232862   6.422   0.223  16.502 -0.6177  0.2841  0.2606
 3816TIP3    H132863   6.389   0.235  16.413  1.5805  2.0376 -0.3784
 3816TIP3    H232864   6.421   0.128  16.516  2.9966 -0.4147 -3.2979
 3817TIP3   OH232865   4.557   0.125   2.604  0.3191 -0.0499  0.0462
 3817TIP3    H132866   4.631   0.110   2.663  0.0573  0.5985  0.5374
 3817TIP3    H232867   4.566   0.216   2.576 -0.5625  0.1651  0.4705
 3818TIP3   OH232868   3.861   0.753   5.399  0.4061  0.1875  0.6886
 3818TIP3    H132869   3.952   0.724   5.413  0.3754 -0.0273  0.4458
 3818TIP3    H232870   3.838   0.717   5.313 -0.0731 -0.1666  0.9677
 3819TIP3   OH232871   1.224   4.759   2.032 -0.3629 -0.3703  0.1376
 3819TIP3    H132872   1.205   4.742   1.940  0.8577 -1.5088  0.0775
 3819TIP3    H232873   1.311   4.722   2.046 -0.4898 -0.1229  1.7308
 3820TIP3   OH232874   0.517   6.650   5.386 -0.7078  0.1408  0.0488
 3820TIP3    H132875   0.455   6.655   5.313 -0.3425  1.5908 -0.1733
 3820TIP3    H232876   0.463   6.663   5.464 -1.3673 -3.1154  0.1836
 3821TIP3   OH232877   3.001   5.181  11.283  0.4404 -0.2778  0.4733
 3821TIP3    H132878   2.948   5.154  11.208  1.0271  1.1551 -0.4748
 3821TIP3    H232879   2.970   5.269  11.304  2.3285  0.5207  0.0030
 3822TIP3   OH232880   0.421   2.338  13.950  0.0666 -0.3475 -0.2930
 3822TIP3    H132881   0.454   2.425  13.974 -1.6608 -0.0219  0.9804
 3822TIP3    H232882   0.471   2.278  14.005 -0.4759  0.0389  0.6376
 3823TIP3   OH232883   0.100   6.656  10.377  0.5405 -0.2359 -0.0219
 3823TIP3    H132884   0.015   6.664  10.333  0.5638  1.4458  0.2133
 3823TIP3    H232885   0.083   6.599  10.452  0.1991 -2.0240 -1.4062
 3824TIP3   OH232886   4.549   6.025  13.359 -0.4901 -0.0077 -0.0267
 3824TIP3    H132887   4.525   6.009  13.450 -0.2259  2.5004  0.5452
 3824TIP3    H232888   4.467   6.053  13.317 -0.1952  0.9176 -0.0079
 3825TIP3   OH232889   3.043   2.132  14.025 -0.1458  0.5202 -0.1259
 3825TIP3    H132890   3.070   2.216  14.060 -0.8916  1.1532 -1.0445
 3825TIP3    H232891   2.953   2.120  14.055 -0.3638  0.4910 -0.7840
 3826TIP3   OH232892   1.809   0.651   2.299  0.5989 -0.0615  0.6195
 3826TIP3    H132893   1.762   0.652   2.216  1.6967 -0.4868 -0.0155
 3826TIP3    H232894   1.790   0.736   2.338 -0.4283 -0.1005  0.2296
 3827TIP3   OH232895   4.714   5.014  10.827  0.4648 -0.4825 -0.9431
 3827TIP3    H132896   4.635   5.025  10.774  0.8692 -0.1521 -1.4772
 3827TIP3    H232897   4.719   4.920  10.844 -2.1163 -0.1213  2.3085
 3828TIP3   OH232898   4.191   1.471   0.601 -0.9109  0.4215  0.0424
 3828TIP3    H132899   4.184   1.539   0.534  0.8175  0.7544  0.1752
 3828TIP3    H232900   4.208   1.519   0.683 -0.6235 -0.1087  0.2979
 3829TIP3   OH232901   3.117   5.760  16.743  0.3808 -0.8464  0.1112
 3829TIP3    H132902   3.154   5.689  16.796 -0.9847  0.4342  2.9032
 3829TIP3    H232903   3.155   5.839  16.780  0.4061  0.0065 -1.7135
 3830TIP3   OH232904   5.988   4.149   2.909  0.3662  0.2294 -0.0964
 3830TIP3    H132905   5.972   4.056   2.927 -1.3348  0.6086  0.3545
 3830TIP3    H232906   5.943   4.165   2.826  1.4128  0.4555 -0.6341
 3831TIP3   OH232907   6.213   6.530  14.287 -0.2602  0.5683 -0.0518
 3831TIP3    H132908   6.293   6.518  14.338  1.1933  1.5919 -2.0357
 3831TIP3    H232909   6.221   6.468  14.214 -1.0407  1.0423 -0.5506
 3832TIP3   OH232910   3.543   3.428  11.902  0.0199 -0.3871 -0.3138
 3832TIP3    H132911   3.490   3.421  11.823  0.4269 -2.5068 -0.4197
 3832TIP3    H232912   3.516   3.355  11.957  0.3420  0.5665  1.1642
 3833TIP3   OH232913   4.960   4.928  11.475  0.1096 -0.3311  0.3113
 3833TIP3    H132914   5.039   4.978  11.491  0.1016 -0.0474 -0.5045
 3833TIP3    H232915   4.979   4.877  11.396 -0.3950 -0.5179  0.3050
 3834TIP3   OH232916   0.998   4.541   5.047  0.1317  0.2514 -0.4235
 3834TIP3    H132917   1.086   4.576   5.062 -0.3974  0.8160  1.5009
 3834TIP3    H232918   1.003   4.499   4.961  2.0728  0.9329 -0.6638
 3835TIP3   OH232919   0.029   6.211   3.522 -0.2730  0.7679  0.5306
 3835TIP3    H132920  -0.067   6.219   3.523 -0.3151  0.4997 -0.7894
 3835TIP3    H232921   0.048   6.150   3.594 -1.3184 -1.3291 -0.8974
 3836TIP3   OH232922   3.626   4.392  12.216 -0.1501  0.1927 -0.2289
 3836TIP3    H132923   3.698   4.398  12.154 -0.3208 -0.8638 -0.5501
 3836TIP3    H232924   3.607   4.482  12.242 -0.5198  0.6972 -2.2275
 3837TIP3   OH232925   4.774   2.830  14.972 -0.0440 -0.0239 -0.1562
 3837TIP3    H132926   4.718   2.763  15.012 -0.4112  0.0418 -0.5572
 3837TIP3    H232927   4.841   2.848  15.038 -0.4449 -0.1686  0.2960
 3838TIP3   OH232928   3.728   5.184  16.802 -0.1695 -0.3103  0.1993
 3838TIP3    H132929   3.741   5.158  16.893 -1.6744  1.3748  0.9319
 3838TIP3    H232930   3.792   5.253  16.787 -0.2637 -0.2375  0.1324
 3839TIP3   OH232931   1.454   0.856   3.817  0.2665 -0.0701 -0.3189
 3839TIP3    H132932   1.500   0.831   3.737  0.0419  1.4142 -0.9391
 3839TIP3    H232933   1.404   0.934   3.792 -1.2342 -0.6506  0.7923
 3840TIP3   OH232934   5.305   4.166   3.228 -0.4667  0.0149  0.8497
 3840TIP3    H132935   5.281   4.092   3.283 -0.2834  0.6767  1.8521
 3840TIP3    H232936   5.223   4.193   3.187 -0.7288 -0.1210  1.2754
 3841TIP3   OH232937   6.700   3.099  13.780 -0.5429 -0.3074  0.2552
 3841TIP3    H132938   6.662   3.186  13.773  0.5462  0.1118 -0.5343
 3841TIP3    H232939   6.761   3.093  13.707 -0.3512 -1.6010  0.5082
 3842TIP3   OH232940   3.309   4.025   4.555  0.5491 -0.1164  0.0183
 3842TIP3    H132941   3.320   3.930   4.563 -0.4600 -0.1106  1.7528
 3842TIP3    H232942   3.338   4.045   4.466  0.4011 -2.1073 -0.5037
 3843TIP3   OH232943   3.404   0.944   2.902 -0.2335  0.1041 -0.0769
 3843TIP3    H132944   3.373   0.877   2.963 -1.3805  0.2776 -0.4546
 3843TIP3    H232945   3.374   1.027   2.940 -1.2746  0.1856 -1.0610
 3844TIP3   OH232946   3.736   1.380  16.178 -0.2111 -0.5404  0.8360
 3844TIP3    H132947   3.749   1.386  16.273 -0.9649  1.4376  0.8360
 3844TIP3    H232948   3.648   1.416  16.164 -0.1046 -0.8381 -0.6129
 3845TIP3   OH232949   0.005   2.407   3.944  0.0340  0.3143 -0.2543
 3845TIP3    H132950   0.069   2.475   3.924 -0.0414  0.3174 -0.4958
 3845TIP3    H232951   0.048   2.326   3.918 -0.5371  0.4317 -1.6160
 3846TIP3   OH232952   5.304   3.018   3.771  0.4771  0.2024  0.6930
 3846TIP3    H132953   5.367   2.973   3.828 -0.6899 -1.4863  0.6903
 3846TIP3    H232954   5.279   2.953   3.706 -1.4915  0.7333  0.8715
 3847TIP3   OH232955   3.160   1.621   1.740 -0.3792 -0.1932  0.0100
 3847TIP3    H132956   3.154   1.532   1.705  0.5287 -0.1604 -0.2387
 3847TIP3    H232957   3.179   1.676   1.664 -0.2588  0.1235  0.2636
 3848TIP3   OH232958   6.787   0.356  11.299 -0.7095  0.0137  0.6257
 3848TIP3    H132959   6.724   0.367  11.371 -0.5940  0.4266  0.6675
 3848TIP3    H232960   6.761   0.422  11.235 -0.8680 -0.4141  0.2466
 3849TIP3   OH232961   0.722   1.279  15.530  1.0874  0.3780 -0.2794
 3849TIP3    H132962   0.679   1.342  15.588  2.3329  0.5157  0.5135
 3849TIP3    H232963   0.796   1.247  15.581  1.5414 -0.3477 -1.3840
 3850TIP3   OH232964   2.034   0.226  11.597 -0.4887  0.9124  0.0214
 3850TIP3    H132965   2.080   0.226  11.513  0.5370  0.1688  0.5781
 3850TIP3    H232966   1.990   0.141  11.601  1.8261 -0.2572  1.4973
 3851TIP3   OH232967   1.928   0.540   3.817 -0.2678  0.2480  0.0740
 3851TIP3    H132968   1.895   0.587   3.740  0.6773 -0.2837 -0.6753
 3851TIP3    H232969   2.020   0.564   3.822 -0.3763  0.4410  1.1756
 3852TIP3   OH232970   1.475   1.730   3.480 -0.1624 -0.5460  0.6684
 3852TIP3    H132971   1.534   1.723   3.405 -1.8978  1.0826 -0.9212
 3852TIP3    H232972   1.488   1.649   3.529  0.9692 -1.6776 -1.4360
 3853TIP3   OH232973   0.718   4.931  16.790  0.0498 -0.2548 -0.3565
 3853TIP3    H132974   0.675   4.999  16.738 -0.8511  0.7385  1.6380
 3853TIP3    H232975   0.764   4.979  16.859 -0.3890 -1.6426  0.9205
 3854TIP3   OH232976   3.371   3.537   4.011 -0.4141  0.7304 -0.6355
 3854TIP3    H132977   3.389   3.556   3.919 -0.9288  2.5471 -0.3843
 3854TIP3    H232978   3.288   3.581   4.029 -1.4540 -1.4837  0.1339
 3855TIP3   OH232979   5.516   2.165  15.699 -0.4115  0.0139  0.0632
 3855TIP3    H132980   5.531   2.221  15.623 -0.9170 -1.2073 -0.9575
 3855TIP3    H232981   5.540   2.078  15.670 -1.7145 -0.6650  0.9349
 3856TIP3   OH232982   1.777   2.408  12.327  0.2542  0.0690  0.3490
 3856TIP3    H132983   1.754   2.488  12.375 -1.3914 -0.3788  0.3316
 3856TIP3    H232984   1.805   2.439  12.241 -0.5794  0.6424  0.2692
 3857TIP3   OH232985   4.591   1.004  11.789  0.1577 -0.0282  0.4019
 3857TIP3    H132986   4.582   1.076  11.852  1.0343  0.8102 -0.4102
 3857TIP3    H232987   4.509   1.005  11.740  0.0228  0.2121  0.6307
 3858TIP3   OH232988   0.973   1.903  12.667 -0.5654  0.1325  0.1783
 3858TIP3    H132989   1.013   1.988  12.682 -0.0467  0.1262 -1.0972
 3858TIP3    H232990   0.981   1.857  12.751  1.2452  0.4914  0.2270
 3859TIP3   OH232991   1.725   1.201   2.581  0.1423  0.1751  0.7245
 3859TIP3    H132992   1.702   1.291   2.558 -0.6851 -0.3247 -0.4558
 3859TIP3    H232993   1.778   1.170   2.507 -2.3768 -1.3831 -0.5051
 3860TIP3   OH232994   6.408   6.462  11.876 -0.0633 -0.2584 -0.1944
 3860TIP3    H132995   6.458   6.406  11.936 -0.4112 -0.8979 -0.5060
 3860TIP3    H232996   6.377   6.403  11.808 -0.7917  0.2390 -0.2972
 3861TIP3   OH232997   0.956   3.693   0.061  0.9768 -0.0523  0.6399
 3861TIP3    H132998   1.040   3.725   0.093  1.7772 -2.1774  0.7175
 3861TIP3    H232999   0.961   3.598   0.070 -1.5433 -0.1893  0.8949
 3862TIP3   OH233000   5.365   0.474  12.706  0.7854  0.5307  0.7831
 3862TIP3    H133001   5.291   0.524  12.672  1.1680  1.4126  1.2221
 3862TIP3    H233002   5.375   0.401  12.646 -0.2337  0.5908  0.5341
 3863TIP3   OH233003   2.410   0.979  14.472 -0.4562  0.4497  0.5391
 3863TIP3    H133004   2.400   1.074  14.464  1.2915  0.5893 -0.2289
 3863TIP3    H233005   2.477   0.957  14.407 -1.1808 -1.3700  0.4059
 3864TIP3   OH233006   6.415   3.415  13.615  0.3702  0.4132  0.0549
 3864TIP3    H133007   6.428   3.484  13.549 -1.2319  0.5552 -0.1196
 3864TIP3    H233008   6.357   3.454  13.680 -0.6982 -0.8368 -0.1375
 3865TIP3   OH233009   6.454   3.570  14.372  0.2697 -0.6715  0.1187
 3865TIP3    H133010   6.541   3.536  14.353  0.1217 -1.2032  0.4100
 3865TIP3    H233011   6.452   3.581  14.467 -0.1048 -0.9918  0.1505
 3866TIP3   OH233012   3.032   1.833  12.963  0.7356 -0.1385 -0.1425
 3866TIP3    H133013   2.942   1.851  12.935  0.3797 -0.6784  0.6214
 3866TIP3    H233014   3.046   1.892  13.037  0.6279 -0.7982  0.4160
 3867TIP3   OH233015   4.225   0.762   5.891 -0.0939 -0.3628 -0.3927
 3867TIP3    H133016   4.250   0.692   5.951 -0.5507 -0.1281  0.0740
 3867TIP3    H233017   4.169   0.820   5.943  0.8174  0.7023 -0.5866
 3868TIP3   OH233018   2.170   5.263   2.366 -0.5128  0.1719  1.0970
 3868TIP3    H133019   2.223   5.219   2.431  2.6564 -0.0713 -1.5449
 3868TIP3    H233020   2.140   5.194   2.307 -1.9817  0.6070  1.2887
 3869TIP3   OH233021   5.561   5.808   3.786  0.1749  0.2280 -0.1828
 3869TIP3    H133022   5.586   5.787   3.696 -0.7406  0.8044 -0.5744
 3869TIP3    H233023   5.470   5.838   3.780 -0.4731 -1.3696  1.1556
 3870TIP3   OH233024   0.340   4.266  16.037 -0.3796  0.5633 -0.0241
 3870TIP3    H133025   0.292   4.220  16.107  0.5795  1.0967  0.9918
 3870TIP3    H233026   0.429   4.274  16.070  0.5483 -0.8075 -2.1052
 3871TIP3   OH233027   0.690   6.521   4.813 -0.4063 -0.1938 -0.5378
 3871TIP3    H133028   0.640   6.572   4.877 -1.4020 -0.2964 -1.2252
 3871TIP3    H233029   0.750   6.469   4.866 -2.3632 -1.5301  0.4327
 3872TIP3   OH233030   4.416   1.326  12.153  0.0583  0.3955 -0.5217
 3872TIP3    H133031   4.474   1.358  12.222 -0.6012  0.9912 -0.2355
 3872TIP3    H233032   4.340   1.385  12.156 -1.6154 -1.7200  0.6400
 3873TIP3   OH233033   3.201   3.149   4.134  0.0486 -0.5862  0.1351
 3873TIP3    H133034   3.253   3.079   4.095 -0.7736 -0.3714 -1.3933
 3873TIP3    H233035   3.265   3.213   4.163  0.6718 -0.5604 -1.2573
 3874TIP3   OH233036   6.416   5.968   2.813 -0.3029  0.1057  0.2270
 3874TIP3    H133037   6.496   6.004   2.776  0.2322 -1.6148 -0.3739
 3874TIP3    H233038   6.436   5.954   2.905 -0.4008  1.0270  0.3853
 3875TIP3   OH233039   3.509   6.072  17.202  0.5643 -0.2257 -0.2072
 3875TIP3    H133040   3.551   6.035  17.125  1.0020  0.0962 -0.1279
 3875TIP3    H233041   3.463   5.999  17.242  0.5113 -0.4387 -0.6566
 3876TIP3   OH233042   2.131   4.085  11.009 -0.0174 -0.0100 -0.5447
 3876TIP3    H133043   2.172   4.161  11.050  1.5513 -1.1347  0.0154
 3876TIP3    H233044   2.084   4.121  10.933 -0.2646  1.6548  0.3672
 3877TIP3   OH233045   5.145   1.149   4.539 -0.5152  0.1587  0.6184
 3877TIP3    H133046   5.066   1.132   4.487 -2.4133  1.5120  2.9619
 3877TIP3    H233047   5.150   1.074   4.598  0.4200 -0.3212 -0.0687
 3878TIP3   OH233048   6.165   4.493   4.011  0.2306  0.6004 -0.2969
 3878TIP3    H133049   6.211   4.497   3.927  1.2645  0.1068  0.2460
 3878TIP3    H233050   6.213   4.429   4.062 -0.3766  0.9297  0.6999
 3879TIP3   OH233051   3.682   0.707  13.214  0.0040  0.3265 -0.0968
 3879TIP3    H133052   3.743   0.704  13.140 -0.2104  1.3041 -0.3088
 3879TIP3    H233053   3.602   0.745  13.178 -0.2874  0.2884  0.5094
 3880TIP3   OH233054   4.185   5.088   2.291 -0.6154  0.3882 -0.2469
 3880TIP3    H133055   4.219   5.163   2.338 -1.4334  1.1125 -0.8027
 3880TIP3    H233056   4.126   5.045   2.353 -0.3429  0.3510 -0.0150
 3881TIP3   OH233057   1.207   2.292  16.281  0.0927 -0.3753  0.1541
 3881TIP3    H133058   1.193   2.318  16.372 -1.0265  1.1871 -0.4430
 3881TIP3    H233059   1.302   2.285  16.273  0.2210 -0.0295  1.3019
 3882TIP3   OH233060   2.463   5.930  14.514 -0.1458 -0.1088  0.0631
 3882TIP3    H133061   2.482   5.839  14.492 -1.7733 -1.0125  2.1693
 3882TIP3    H233062   2.398   5.957  14.449  0.8885 -0.2175 -1.0127
 3883TIP3   OH233063   1.880   2.568  15.768 -0.6315 -0.0231 -0.1216
 3883TIP3    H133064   1.952   2.550  15.829 -0.2544  0.9039 -0.2892
 3883TIP3    H233065   1.801   2.552  15.819 -0.3358  1.8227  0.9649
 3884TIP3   OH233066   3.261   0.094   5.678  0.6805 -0.6346  0.0443
 3884TIP3    H133067   3.283   0.110   5.586  1.2745 -1.7777 -0.0145
 3884TIP3    H233068   3.225   0.005   5.679  0.2193 -0.4394  0.8387
 3885TIP3   OH233069   3.636   1.537  13.712  0.1382 -0.3861 -0.7297
 3885TIP3    H133070   3.606   1.560  13.800  0.8131 -2.5416  0.1053
 3885TIP3    H233071   3.557   1.510  13.666 -0.2375  0.8775 -0.8422
 3886TIP3   OH233072   3.689   3.931  11.617 -0.2658  0.2196  0.5861
 3886TIP3    H133073   3.770   3.965  11.656 -0.7108  2.2177 -0.1394
 3886TIP3    H233074   3.677   3.845  11.657  1.9170  0.1284  1.1131
 3887TIP3   OH233075   5.345   5.401  12.232 -0.1612  0.4527 -0.4058
 3887TIP3    H133076   5.439   5.390  12.241 -0.6333 -1.6806  2.6606
 3887TIP3    H233077   5.319   5.337  12.166  0.4757  0.7810 -0.9813
 3888TIP3   OH233078   3.850   4.681  15.270  0.4780 -0.2066 -0.4393
 3888TIP3    H133079   3.850   4.586  15.286  0.4786 -0.1061  0.1588
 3888TIP3    H233080   3.840   4.720  15.357 -2.0092  0.3056 -0.9224
 3889TIP3   OH233081   4.252   3.853   3.091  0.1823 -0.5134  0.3675
 3889TIP3    H133082   4.293   3.840   3.176  0.1969 -1.5892  0.2013
 3889TIP3    H233083   4.191   3.925   3.105  1.2388  0.2986  0.9189
 3890TIP3   OH233084   6.635   0.582   0.758 -0.8676 -0.5907 -0.7757
 3890TIP3    H133085   6.725   0.611   0.772 -0.9504 -0.4350 -0.5675
 3890TIP3    H233086   6.611   0.617   0.672 -1.2989  0.7822 -0.1017
 3891TIP3   OH233087   4.630   1.621  15.006  0.2554 -0.2124  0.4797
 3891TIP3    H133088   4.560   1.610  14.942  0.7353 -2.0138  0.2367
 3891TIP3    H233089   4.585   1.642  15.088 -0.7338 -3.3674  0.7899
 3892TIP3   OH233090   3.893   6.612   3.772 -0.0355 -0.4293 -0.2728
 3892TIP3    H133091   3.833   6.545   3.804 -3.0946  0.4501 -3.8409
 3892TIP3    H233092   3.970   6.563   3.744 -0.7777 -2.0374  0.4116
 3893TIP3   OH233093   2.913   6.297  13.839 -0.0559 -0.4910 -0.0627
 3893TIP3    H133094   2.846   6.242  13.799 -0.9525  1.3228 -1.1171
 3893TIP3    H233095   2.996   6.258  13.812 -0.6792 -1.4536 -0.6048
 3894TIP3   OH233096   1.166   2.068  16.487  0.2842 -0.1796  0.0049
 3894TIP3    H133097   1.177   2.163  16.497 -1.6227  0.0672 -0.0601
 3894TIP3    H233098   1.145   2.038  16.575  1.2174 -0.5829  0.0851
 3895TIP3   OH233099   6.733   2.073  13.953  0.0217  0.1094  0.2589
 3895TIP3    H133100   6.649   2.061  13.908 -0.7510  0.5406  1.5758
 3895TIP3    H233101   6.739   1.999  14.013  0.9090 -0.2816 -0.2898
 3896TIP3   OH233102   6.191   6.565  15.521 -0.4728 -0.1855 -0.0890
 3896TIP3    H133103   6.204   6.478  15.484 -3.3350 -0.9468  0.5683
 3896TIP3    H233104   6.206   6.553  15.615 -0.5077  0.1054 -0.0456
 3897TIP3   OH233105   0.889   0.980  15.900 -0.4570 -0.0460  0.0972
 3897TIP3    H133106   0.839   0.909  15.860 -0.9615 -0.5737  1.6478
 3897TIP3    H233107   0.955   0.936  15.953 -0.1433  0.6480  0.2857
 3898TIP3   OH233108   1.572   4.229   0.339  0.0211  0.8322 -0.3020
 3898TIP3    H133109   1.657   4.243   0.380  0.5465  1.2630 -1.4938
 3898TIP3    H233110   1.515   4.294   0.378  0.3296  0.7761  0.2500
 3899TIP3   OH233111   1.021   5.300   4.080 -0.2538 -0.4725  0.2353
 3899TIP3    H133112   0.947   5.333   4.028 -0.1350 -0.5668  0.0057
 3899TIP3    H233113   0.980   5.249   4.150 -0.4783  1.0558  1.2272
 3900TIP3   OH233114   4.728   5.964  14.029  0.0144 -0.1211 -0.1957
 3900TIP3    H133115   4.645   5.981  14.074 -0.0383  0.6010 -0.5634
 3900TIP3    H233116   4.702   5.939  13.940  0.2366  1.6129 -0.7738
 3901TIP3   OH233117   1.959   3.005  15.583  0.2114 -0.0763  0.6733
 3901TIP3    H133118   1.918   3.004  15.670  0.5139 -2.1029  0.8256
 3901TIP3    H233119   2.050   2.980  15.599  0.2004 -0.7291 -0.2537
 3902TIP3   OH233120   2.386   1.936   0.116 -0.2736  0.5042  0.2275
 3902TIP3    H133121   2.383   1.997   0.190 -1.3633 -0.4108  0.9595
 3902TIP3    H233122   2.445   1.867   0.146 -1.2749 -0.2278  0.5386
 3903TIP3   OH233123   2.344   5.478  15.908  0.3005 -0.7459  0.2812
 3903TIP3    H133124   2.429   5.434  15.898 -0.1211 -1.9215  1.6363
 3903TIP3    H233125   2.297   5.457  15.828  0.0403 -2.9797  0.9830
 3904TIP3   OH233126   2.108   0.351   3.051  0.4105 -0.2984 -0.4970
 3904TIP3    H133127   2.046   0.278   3.049  0.7818 -0.6032 -1.0561
 3904TIP3    H233128   2.088   0.402   2.972 -0.5807  0.8177  0.4702
 3905TIP3   OH233129   0.510   6.727   4.182 -0.4125  0.8650  0.2794
 3905TIP3    H133130   0.543   6.809   4.145  0.4429  0.0726 -0.7348
 3905TIP3    H233131   0.493   6.671   4.106  0.4919 -0.4608  1.0191
 3906TIP3   OH233132   4.136   4.796   0.511 -0.3204 -0.3268  0.3521
 3906TIP3    H133133   4.160   4.885   0.537 -4.1511  1.6150 -2.3115
 3906TIP3    H233134   4.203   4.771   0.447  2.2320 -0.4855  2.9489
 3907TIP3   OH233135   3.327   6.205   2.353  0.0021  0.5927  0.5633
 3907TIP3    H133136   3.382   6.137   2.393  0.3219  1.1404  1.0486
 3907TIP3    H233137   3.279   6.243   2.426 -1.5629 -0.3699  0.0505
 3908TIP3   OH233138   4.335   4.932  15.162 -0.2320  0.3461  0.1177
 3908TIP3    H133139   4.400   4.870  15.194  0.0376  0.8712  0.5917
 3908TIP3    H233140   4.251   4.889  15.179 -0.0080 -0.5745 -1.0053
 3909TIP3   OH233141   4.493   0.577  14.676  0.1642 -0.0868 -0.2634
 3909TIP3    H133142   4.545   0.516  14.625  0.1029 -0.3575  0.0015
 3909TIP3    H233143   4.431   0.522  14.724  0.7714  0.1080  0.7490
 3910TIP3   OH233144   6.178   6.267   3.833  0.2408  0.4682  0.2848
 3910TIP3    H133145   6.235   6.250   3.758 -0.8511 -0.4329 -0.3568
 3910TIP3    H233146   6.237   6.299   3.901  1.1150  2.1429 -1.2258
 3911TIP3   OH233147   0.092   4.710   5.089 -0.0602 -0.0396 -0.4346
 3911TIP3    H133148   0.153   4.784   5.098  0.6738 -0.8257  1.3282
 3911TIP3    H233149   0.006   4.749   5.106  0.2955  0.4838  0.2190
 3912TIP3   OH233150   5.102   1.809   1.582 -0.8245  0.1023 -0.6986
 3912TIP3    H133151   5.104   1.731   1.636  1.3806  0.6439  0.0487
 3912TIP3    H233152   5.076   1.879   1.642 -0.1027  0.4122 -0.7493
 3913TIP3   OH233153   0.375   0.934  16.645  0.7511 -0.1147 -0.2972
 3913TIP3    H133154   0.467   0.907  16.640  0.9466  0.7371 -1.4100
 3913TIP3    H233155   0.328   0.867  16.597  0.7762 -0.5593  0.2849
 3914TIP3   OH233156   3.223   0.144   1.797 -0.4052 -0.5241  0.2953
 3914TIP3    H133157   3.210   0.054   1.769  0.2237 -1.3329  2.5001
 3914TIP3    H233158   3.216   0.141   1.892  1.5064  1.4340  0.5353
 3915TIP3   OH233159   5.413   6.517  16.830  0.3312 -0.0144 -0.0618
 3915TIP3    H133160   5.407   6.609  16.804  0.1860  0.5764  1.9861
 3915TIP3    H233161   5.453   6.519  16.917 -0.6984 -1.8118  0.4825
 3916TIP3   OH233162   4.589   1.621   1.033 -0.1769  0.0441 -0.4265
 3916TIP3    H133163   4.552   1.612   1.121 -4.6942  2.2967 -1.9386
 3916TIP3    H233164   4.570   1.538   0.990 -2.0561  0.5897 -0.6665
 3917TIP3   OH233165   3.906   4.812   4.275 -0.3120 -0.4166  0.6615
 3917TIP3    H133166   3.814   4.806   4.248 -0.1907  0.1991  0.1059
 3917TIP3    H233167   3.947   4.735   4.236 -0.4534 -0.3268  0.3303
 3918TIP3   OH233168   1.270   3.814   4.355  0.0993  0.2453  0.1451
 3918TIP3    H133169   1.223   3.875   4.413 -0.8194  0.3485 -0.6928
 3918TIP3    H233170   1.360   3.845   4.356  0.5382 -0.9189  3.0727
 3919TIP3   OH233171   5.002   6.021   0.432  0.1206  0.6699  0.5349
 3919TIP3    H133172   5.017   5.931   0.461  2.0383  1.1791  1.1594
 3919TIP3    H233173   5.076   6.071   0.468 -0.3859  2.3100 -0.6528
 3920TIP3   OH233174   3.385   4.767   1.237 -0.3687 -0.4741 -0.5010
 3920TIP3    H133175   3.290   4.774   1.226 -0.1802  1.1841 -1.1327
 3920TIP3    H233176   3.399   4.765   1.331 -0.9521  0.5362 -0.3907
 3921TIP3   OH233177   0.428   3.123   0.538  0.1002 -0.2852 -0.0915
 3921TIP3    H133178   0.382   3.084   0.612 -1.7285 -0.2738 -1.1800
 3921TIP3    H233179   0.519   3.093   0.547 -0.1215 -0.3340  2.0888
 3922TIP3   OH233180   5.370   2.219   3.124  0.3609  0.4213 -1.1540
 3922TIP3    H133181   5.317   2.168   3.062  0.3311 -0.8883 -0.0990
 3922TIP3    H233182   5.367   2.167   3.205 -0.0023  2.3322  0.0815
 3923TIP3   OH233183   2.848   0.679   3.907  0.0834  0.8210  0.2512
 3923TIP3    H133184   2.833   0.632   3.989 -0.4730 -0.7822 -0.7490
 3923TIP3    H233185   2.815   0.620   3.839  2.3695  1.2814 -1.2939
 3924TIP3   OH233186   0.941   5.200  16.619 -0.0007 -0.0421 -1.2976
 3924TIP3    H133187   1.035   5.209  16.631 -0.1102  1.1269 -1.3305
 3924TIP3    H233188   0.902   5.255  16.687 -0.6624 -0.3036 -1.4577
 3925TIP3   OH233189   3.670   1.402  11.799  0.4004  0.1130 -0.3673
 3925TIP3    H133190   3.745   1.396  11.858 -0.6936  0.0582  1.0571
 3925TIP3    H233191   3.685   1.483  11.750  0.3481  1.2513  1.4204
 3926TIP3   OH233192   0.796   0.395   4.273  0.3251  0.0682 -0.6645
 3926TIP3    H133193   0.749   0.424   4.195  0.2364 -0.5388 -0.8340
 3926TIP3    H233194   0.877   0.355   4.239  0.6537  0.5053 -0.4067
 3927TIP3   OH233195   1.131   0.502  10.760 -0.5527 -0.0835 -0.0552
 3927TIP3    H133196   1.146   0.433  10.824  1.4733 -1.2809 -1.7461
 3927TIP3    H233197   1.175   0.579  10.797 -0.1994 -0.5221  0.4386
 3928TIP3   OH233198   4.630   2.939   2.696  1.0657  0.5113 -0.7128
 3928TIP3    H133199   4.701   2.902   2.644  1.6669  1.3695 -0.5170
 3928TIP3    H233200   4.635   3.033   2.680  0.9899  0.7403  0.5685
 3929TIP3   OH233201   5.225   1.383  16.155 -0.2202  0.2858 -0.1405
 3929TIP3    H133202   5.257   1.299  16.185 -0.5267 -0.3216 -1.4561
 3929TIP3    H233203   5.140   1.363  16.115  0.6571  0.8498 -2.3910
 3930TIP3   OH233204   1.682   0.774  13.062 -0.3237 -0.0479 -0.2576
 3930TIP3    H133205   1.673   0.700  13.121 -2.7784 -0.0221 -0.5576
 3930TIP3    H233206   1.711   0.736  12.979 -0.6641 -0.5661 -0.1405
 3931TIP3   OH233207   6.471   4.929  13.032  0.1642  0.2589 -0.3991
 3931TIP3    H133208   6.385   4.968  13.043 -0.4123 -0.5408 -1.8962
 3931TIP3    H233209   6.484   4.876  13.111  0.0010  1.6836  0.5957
 3932TIP3   OH233210   2.319   2.118  11.000 -0.4270 -0.2595  0.5273
 3932TIP3    H133211   2.257   2.046  11.010 -2.0975  0.9093 -1.2498
 3932TIP3    H233212   2.364   2.099  10.918  1.0413 -0.6724  1.4026
 3933TIP3   OH233213   4.708   0.254  14.019 -0.6772  0.2023  0.0224
 3933TIP3    H133214   4.725   0.216  13.933 -2.0983  1.0104 -0.6373
 3933TIP3    H233215   4.613   0.249  14.029 -0.8181  2.7489  0.2996
 3934TIP3   OH233216   5.181   3.528   0.359 -0.2982 -0.3439 -0.1166
 3934TIP3    H133217   5.192   3.573   0.275 -0.4944 -2.0732 -1.0918
 3934TIP3    H233218   5.129   3.450   0.338 -0.9096 -0.4500  1.7260
 3935TIP3   OH233219   3.656   1.604  11.383  0.5400  0.6134  0.0343
 3935TIP3    H133220   3.709   1.536  11.340  0.8464  1.1449 -0.4405
 3935TIP3    H233221   3.667   1.681  11.327  0.7646  1.2517  0.9469
 3936TIP3   OH233222   0.985   1.858   5.315 -0.0844  0.3823 -0.3661
 3936TIP3    H133223   1.016   1.933   5.265 -0.8310 -0.3234 -1.9091
 3936TIP3    H233224   1.064   1.807   5.334 -0.0228 -0.3394 -2.4932
 3937TIP3   OH233225   6.456   6.516   1.719 -0.2436 -0.5084  0.5932
 3937TIP3    H133226   6.483   6.570   1.645  0.4571 -1.6392  0.0108
 3937TIP3    H233227   6.377   6.559   1.753  1.2864  1.8811  1.2552
 3938TIP3   OH233228   2.116   1.185   4.516  0.3020  0.0134 -0.8889
 3938TIP3    H133229   2.191   1.244   4.517  1.2432 -1.1661 -0.0574
 3938TIP3    H233230   2.053   1.227   4.458  0.2771  2.6566  0.9245
 3939TIP3   OH233231   2.412   1.948   2.371 -0.1478  0.0892 -0.1043
 3939TIP3    H133232   2.491   1.969   2.421 -0.0647 -1.4373  0.4192
 3939TIP3    H233233   2.439   1.879   2.310 -1.1155 -0.6001  0.2359
 3940TIP3   OH233234   0.874   6.204  14.514 -0.5888  0.3562  0.2700
 3940TIP3    H133235   0.895   6.189  14.422 -0.6040  1.0883  0.1464
 3940TIP3    H233236   0.837   6.120  14.543  0.0764 -0.1076 -0.1928
 3941TIP3   OH233237   2.597   5.445  15.765 -0.5295 -0.2411  0.4306
 3941TIP3    H133238   2.656   5.487  15.703 -0.3461  0.9301  1.3722
 3941TIP3    H233239   2.545   5.384  15.712 -0.2825  0.6317 -0.8318
 3942TIP3   OH233240   6.556   5.542  15.265  0.6725 -0.3177 -0.3288
 3942TIP3    H133241   6.590   5.470  15.212 -1.1387 -1.3235 -0.1874
 3942TIP3    H233242   6.613   5.546  15.342  0.4108 -2.0239 -0.0405
 3943TIP3   OH233243   4.003   4.844   3.899  0.5657 -0.1388  0.4245
 3943TIP3    H133244   4.086   4.796   3.901  0.7873  0.1516 -0.9962
 3943TIP3    H233245   4.024   4.930   3.936  1.0945  0.2009 -0.6363
 3944TIP3   OH233246   0.304   4.313   4.669  0.4831  0.3154 -0.5041
 3944TIP3    H133247   0.294   4.335   4.577  1.0711 -1.4768 -1.0055
 3944TIP3    H233248   0.263   4.386   4.716 -0.1360  1.0544 -2.1801
 3945TIP3   OH233249   0.042   4.869   3.921  0.4490 -0.2498  0.0849
 3945TIP3    H133250   0.027   4.775   3.925  1.6285 -0.4789 -0.7680
 3945TIP3    H233251   0.025   4.900   4.011  0.1750 -1.2740  0.3937
 3946TIP3   OH233252   4.576   0.568  13.671  1.0489  0.2755  0.7801
 3946TIP3    H133253   4.583   0.661  13.691 -0.1345 -0.0084  2.6954
 3946TIP3    H233254   4.485   0.555  13.644  1.1188 -0.3694  0.8298
 3947TIP3   OH233255   2.036   1.926  15.079 -0.8498  0.1969 -0.1386
 3947TIP3    H133256   2.103   1.915  15.012 -0.2570  0.9047  0.3279
 3947TIP3    H233257   1.983   2.000  15.048  0.2637  1.4368  0.8265
 3948TIP3   OH233258   6.387   4.018   3.554 -0.2304 -0.1084 -0.2026
 3948TIP3    H133259   6.414   3.927   3.545 -0.5961 -0.2834  0.4107
 3948TIP3    H233260   6.292   4.014   3.561 -0.2178  0.2876  0.2138
 3949TIP3   OH233261   6.249   6.375   5.293 -0.3345  0.2361  0.0879
 3949TIP3    H133262   6.228   6.437   5.223 -2.6882 -0.6865 -0.0961
 3949TIP3    H233263   6.240   6.289   5.252  2.3504 -0.2599  0.4826
 3950TIP3   OH233264   1.087   2.605   5.071 -0.4153  0.1634 -0.0095
 3950TIP3    H133265   1.170   2.650   5.089 -0.4632  0.3115 -0.1606
 3950TIP3    H233266   1.020   2.671   5.091 -0.4951  0.0651  0.0449
 3951TIP3   OH233267   3.306   3.068   4.496  0.4755  0.5231  0.1438
 3951TIP3    H133268   3.272   3.155   4.476 -0.7675 -0.1454 -0.6700
 3951TIP3    H233269   3.315   3.025   4.411 -1.3475 -1.0374  0.7043
 3952TIP3   OH233270   4.121   1.039  11.872 -0.0460 -0.1234 -0.4575
 3952TIP3    H133271   4.047   1.069  11.819 -1.7717 -1.7075  0.9805
 3952TIP3    H233272   4.151   0.959  11.828  1.7105  1.2169 -1.7830
 3953TIP3   OH233273   6.473   3.476   1.086 -0.5071  0.3534 -0.2544
 3953TIP3    H133274   6.557   3.491   1.043  0.7005 -0.9544  1.5453
 3953TIP3    H233275   6.426   3.559   1.077  0.9867  1.1038 -1.2879
 3954TIP3   OH233276   5.271   6.565   1.186  0.5809 -0.3673  0.4220
 3954TIP3    H133277   5.267   6.648   1.137 -0.6512 -1.1473 -0.8100
 3954TIP3    H233278   5.364   6.555   1.207  0.7243  1.3993  0.7093
 3955TIP3   OH233279   2.146   4.854  13.274 -0.5858 -0.5357 -0.5704
 3955TIP3    H133280   2.158   4.934  13.326 -1.0554  0.8020 -2.4771
 3955TIP3    H233281   2.230   4.810  13.278 -0.4323 -0.1380  0.8144
 3956TIP3   OH233282   6.142   5.669   2.490  0.4686 -0.3047 -0.3493
 3956TIP3    H133283   6.054   5.649   2.522  0.9404  0.6030  1.6182
 3956TIP3    H233284   6.195   5.675   2.570  2.3330 -0.9539 -1.5286
 3957TIP3   OH233285   6.285   5.646   4.016  0.2478 -0.1671  0.1241
 3957TIP3    H133286   6.292   5.577   3.951 -0.0737  0.8259 -0.9891
 3957TIP3    H233287   6.339   5.616   4.089  3.9993  0.5221 -2.2216
 3958TIP3   OH233288   3.034   0.238  11.861  0.9275 -0.1928  0.2513
 3958TIP3    H133289   3.109   0.287  11.828  0.6948 -0.2224 -0.3259
 3958TIP3    H233290   3.065   0.200  11.943  1.4087  0.1425  0.2284
 3959TIP3   OH233291   1.646   5.195  12.426  0.0218 -0.0266  0.2765
 3959TIP3    H133292   1.673   5.271  12.374  0.1265 -0.3537 -0.1532
 3959TIP3    H233293   1.557   5.175  12.394 -0.0942  0.0548  0.5487
 3960TIP3   OH233294   0.409   3.449  11.386 -0.2033 -0.6407 -0.4529
 3960TIP3    H133295   0.340   3.509  11.413  0.1656  0.3408 -1.6184
 3960TIP3    H233296   0.370   3.362  11.393 -0.5790 -0.3159  1.7646
 3961TIP3   OH233297   2.319   4.467  16.108 -0.5881  0.1525  0.1046
 3961TIP3    H133298   2.328   4.387  16.161 -1.9362  1.3577  2.1844
 3961TIP3    H233299   2.231   4.463  16.073 -0.6054  0.6715  0.0913
 3962TIP3   OH233300   0.530   3.596   0.870 -0.2747  0.1510  0.1182
 3962TIP3    H133301   0.447   3.643   0.880  0.5216  1.7452 -0.6567
 3962TIP3    H233302   0.504   3.509   0.839 -1.7021  0.3940  0.5759
 3963TIP3   OH233303   6.295   4.780  15.162  0.0737  0.0638  0.0388
 3963TIP3    H133304   6.320   4.864  15.198 -1.5654  0.9228 -0.7641
 3963TIP3    H233305   6.221   4.751  15.217 -0.8353  0.2288 -1.0782
 3964TIP3   OH233306   6.755   0.744   1.729 -0.4388 -0.0863 -0.1403
 3964TIP3    H133307   6.850   0.735   1.734 -0.0496  2.3021 -2.3684
 3964TIP3    H233308   6.727   0.751   1.821  1.7895  1.4507  0.4577
 3965TIP3   OH233309   6.087   4.028   4.938 -0.0950 -0.1981 -0.5076
 3965TIP3    H133310   6.021   4.081   4.984  0.9160  1.8730 -1.3721
 3965TIP3    H233311   6.143   4.092   4.895  2.1150 -1.9387 -0.3228
 3966TIP3   OH233312   4.973   5.177   3.089  0.2346  0.2374 -0.4789
 3966TIP3    H133313   4.977   5.228   3.171  0.7429  1.2285 -1.1021
 3966TIP3    H233314   4.890   5.203   3.049  0.1046 -0.0536 -0.3940
 3967TIP3   OH233315   2.868   2.674  12.511 -0.4035 -0.1533  0.0089
 3967TIP3    H133316   2.795   2.693  12.571 -1.8286 -1.4971 -1.2496
 3967TIP3    H233317   2.929   2.623  12.564 -1.0051 -0.1672  0.7116
 3968TIP3   OH233318   2.506   5.228   1.515  0.0846  0.3058 -0.3635
 3968TIP3    H133319   2.509   5.322   1.500 -0.7440  0.1886 -1.3892
 3968TIP3    H233320   2.518   5.190   1.428  2.4666 -0.5818  0.3358
 3969TIP3   OH233321   2.266   0.116   5.620 -0.2765  0.4789 -0.2639
 3969TIP3    H133322   2.234   0.071   5.541 -2.2818 -0.0515  0.8096
 3969TIP3    H233323   2.321   0.051   5.664 -1.1157 -0.0665 -0.0056
 3970TIP3   OH233324   3.445   5.159  17.046  0.3445 -0.0491  0.2349
 3970TIP3    H133325   3.471   5.249  17.024  1.7835 -0.6673 -0.6115
 3970TIP3    H233326   3.392   5.169  17.125  2.0416  1.3678  1.2228
 3971TIP3   OH233327   4.842   4.707   5.274  0.1603  0.4294  0.2681
 3971TIP3    H133328   4.866   4.673   5.360 -1.7274 -1.2329  0.1799
 3971TIP3    H233329   4.853   4.633   5.215 -0.6049  0.9497 -0.5486
 3972TIP3   OH233330   4.357   3.354   0.359  0.5332  0.5279  0.4413
 3972TIP3    H133331   4.369   3.413   0.284 -1.2283  0.6807  0.2451
 3972TIP3    H233332   4.383   3.268   0.326  0.6022  0.7446 -0.0819
 3973TIP3   OH233333   0.345   4.967   3.215 -0.0888 -0.5131 -0.0099
 3973TIP3    H133334   0.305   4.978   3.129  0.0293 -0.3317 -0.0427
 3973TIP3    H233335   0.274   4.939   3.272 -0.5436  1.0752  0.2290
 3974TIP3   OH233336   0.045   5.253   4.101 -0.3499 -0.5723  0.2334
 3974TIP3    H133337  -0.051   5.252   4.093 -0.2554 -1.9085 -0.8910
 3974TIP3    H233338   0.061   5.225   4.191 -1.0247  0.5746  0.7316
 3975TIP3   OH233339   3.157   4.519  16.321  1.0986 -0.6135 -0.0374
 3975TIP3    H133340   3.131   4.606  16.290  0.5053 -0.5499  0.6185
 3975TIP3    H233341   3.149   4.463  16.244 -0.9039 -0.5733  0.0973
 3976TIP3   OH233342   5.752   3.203   0.168 -0.2704  0.0003  0.2882
 3976TIP3    H133343   5.676   3.206   0.227  0.5498  0.8620  1.3121
 3976TIP3    H233344   5.806   3.132   0.203 -0.6507 -0.7136 -0.5300
 3977TIP3   OH233345   4.587   4.034   3.336 -0.4953 -0.1032 -0.3771
 3977TIP3    H133346   4.622   4.098   3.398 -2.3261  0.0142  0.5564
 3977TIP3    H233347   4.596   4.076   3.251  1.9951 -0.2474 -0.2225
 3978TIP3   OH233348   4.322   2.232   3.426 -0.5982 -0.0380  0.5314
 3978TIP3    H133349   4.368   2.154   3.396 -1.1011 -0.4847  0.9345
 3978TIP3    H233350   4.382   2.304   3.404  0.6432 -0.6801  1.7464
 3979TIP3   OH233351   4.576   6.382  16.889 -0.5205  0.4997 -0.2066
 3979TIP3    H133352   4.533   6.460  16.854  0.5105  1.8329  1.4021
 3979TIP3    H233353   4.623   6.345  16.815 -1.6566  0.9725 -1.1705
 3980TIP3   OH233354   2.318   5.826   4.568  0.7339 -0.2780  0.0111
 3980TIP3    H133355   2.248   5.769   4.599  0.7509 -1.0972 -1.4057
 3980TIP3    H233356   2.291   5.914   4.592  0.9810 -0.9166  2.7635
 3981TIP3   OH233357   0.372   0.826  14.927  0.2390  0.5784  0.3025
 3981TIP3    H133358   0.439   0.761  14.904 -0.3013 -0.1183  0.6553
 3981TIP3    H233359   0.338   0.856  14.843 -0.3672 -0.5126  0.1516
 3982TIP3   OH233360   4.021   1.900   2.754 -0.1325  0.6894  0.5263
 3982TIP3    H133361   3.986   1.814   2.729 -0.9845  1.4972 -1.1480
 3982TIP3    H233362   3.960   1.932   2.821 -0.4443  0.4632  0.3509
 3983TIP3   OH233363   0.646   5.394   2.008  0.0728 -0.6158 -0.4190
 3983TIP3    H133364   0.599   5.469   1.971  0.5458 -0.4961 -0.7853
 3983TIP3    H233365   0.578   5.341   2.050  0.0148  1.1350  1.7815
 3984TIP3   OH233366   0.395   5.734   0.297  0.1605 -0.3555  0.1533
 3984TIP3    H133367   0.370   5.819   0.261  1.5270  1.2263  2.7710
 3984TIP3    H233368   0.485   5.722   0.267  0.8422  0.3437  1.8629
 3985TIP3   OH233369   5.432   1.984   4.910  0.0530 -0.1152  0.6010
 3985TIP3    H133370   5.337   1.987   4.901  0.0211  2.2557  1.3562
 3985TIP3    H233371   5.463   1.941   4.830 -1.6830 -1.6018  0.7097
 3986TIP3   OH233372   4.875   5.241  15.632 -0.1007 -0.5186 -0.1104
 3986TIP3    H133373   4.804   5.283  15.582 -0.3046  0.4335  0.9565
 3986TIP3    H233374   4.840   5.154  15.653 -1.3486  0.2746  1.2028
 3987TIP3   OH233375   0.456   6.310   0.449 -0.0029  0.1414  0.7631
 3987TIP3    H133376   0.398   6.234   0.449  1.1789 -0.7749 -0.1732
 3987TIP3    H233377   0.535   6.280   0.493  1.9499 -0.3855 -2.8482
 3988TIP3   OH233378   3.023   3.092   5.935 -0.1673  0.0422 -0.5989
 3988TIP3    H133379   3.015   3.127   5.846 -0.1518 -0.3603 -0.7583
 3988TIP3    H233380   3.062   3.164   5.986 -0.8513  0.5276 -0.7551
 3989TIP3   OH233381   2.454   0.935   6.686 -0.5455 -0.1331  0.6111
 3989TIP3    H133382   2.389   0.870   6.661  0.0030  0.0504 -1.3654
 3989TIP3    H233383   2.538   0.895   6.662 -0.1897  1.1720 -0.3354
 3990TIP3   OH233384   1.600   3.009  14.580  0.1504 -0.3335  0.9104
 3990TIP3    H133385   1.611   3.073  14.650 -0.1449  0.1580  0.5107
 3990TIP3    H233386   1.688   2.995  14.545  0.3270 -0.7318  1.5114
 3991TIP3   OH233387   1.544   1.708   5.670 -0.2051  0.2280  0.0230
 3991TIP3    H133388   1.512   1.618   5.678 -1.5727  0.6514 -0.3762
 3991TIP3    H233389   1.525   1.731   5.579  1.8110  0.3110 -0.3876
 3992TIP3   OH233390   6.353   2.183  13.649 -0.1253  0.3326  0.4298
 3992TIP3    H133391   6.431   2.219  13.691 -0.1706 -2.1662  2.7971
 3992TIP3    H233392   6.385   2.108  13.598 -1.0353 -1.4523  2.3716
 3993TIP3   OH233393   0.135   5.662   0.208 -1.2419 -0.3930  0.5864
 3993TIP3    H133394   0.230   5.662   0.197 -1.3438  0.5252 -0.4811
 3993TIP3    H233395   0.121   5.712   0.288 -0.8105 -0.5714  0.7751
 3994TIP3   OH233396   4.656   3.956   2.375 -0.2518 -0.4579  0.1861
 3994TIP3    H133397   4.600   3.948   2.297 -2.1885 -0.9409  1.5870
 3994TIP3    H233398   4.616   3.898   2.439  1.6037 -0.4364  1.4071
 3995TIP3   OH233399   0.764   3.293   0.663 -0.6495 -0.1040  0.1033
 3995TIP3    H133400   0.709   3.215   0.653  0.5129 -1.1870  1.8608
 3995TIP3    H233401   0.754   3.318   0.755  0.6545  0.5406  0.0853
 3996TIP3   OH233402   4.083   3.187  11.255 -0.0978  0.6665 -0.1204
 3996TIP3    H133403   4.031   3.107  11.249 -0.3515  0.7373  1.2059
 3996TIP3    H233404   4.124   3.183  11.341  0.7523  1.4435 -0.4794
 3997TIP3   OH233405   4.158   6.711  13.680 -0.5166 -0.1197  0.1156
 3997TIP3    H133406   4.196   6.659  13.609  0.0610 -1.0223  1.0757
 3997TIP3    H233407   4.175   6.660  13.759 -0.0272  1.4610  1.0667
 3998TIP3   OH233408   1.573   1.700  17.178  0.1967  0.1730 -0.2768
 3998TIP3    H133409   1.589   1.624  17.235 -1.3255 -0.8075 -1.1324
 3998TIP3    H233410   1.535   1.662  17.098 -0.7699  1.8578 -0.6289
 3999TIP3   OH233411   4.695   4.965  14.874 -0.3941  0.3611  0.2617
 3999TIP3    H133412   4.729   4.928  14.955  0.3357  1.5097  0.4965
 3999TIP3    H233413   4.669   5.054  14.898 -0.2050  0.6930 -0.7669
 4000TIP3   OH233414   3.914   3.968  12.020  0.2044  0.0181 -0.5202
 4000TIP3    H133415   3.943   4.054  12.050  0.2628 -0.2161  0.0968
 4000TIP3    H233416   3.884   3.924  12.100  0.6291 -0.7094 -0.7597
 4001TIP3   OH233417   4.245   2.682  13.341  0.8353 -0.1833  0.2101
 4001TIP3    H133418   4.264   2.665  13.433  0.2330  1.3966  0.6477
 4001TIP3    H233419   4.161   2.639  13.326  0.3051  0.6449  0.7546
 4002TIP3   OH233420   6.295   6.063  16.614 -0.2235 -0.5099  0.4194
 4002TIP3    H133421   6.217   6.112  16.587 -0.0534  0.1491  1.0934
 4002TIP3    H233422   6.287   6.056  16.709 -0.6950 -2.5902  0.2441
 4003TIP3   OH233423   6.431   3.080   4.393  0.4177 -0.5604  0.1387
 4003TIP3    H133424   6.472   3.138   4.457  1.9318  1.7297 -2.7756
 4003TIP3    H233425   6.503   3.055   4.334 -0.4339 -4.5249  0.6361
 4004TIP3   OH233426   6.317   5.985   3.376  0.3087  0.3114 -0.3119
 4004TIP3    H133427   6.316   5.973   3.471 -2.2082  1.0153 -0.2269
 4004TIP3    H233428   6.279   5.903   3.341  2.4651 -0.5139 -0.8104
 4005TIP3   OH233429   1.534   3.025   3.584  0.3300  0.2889  0.0094
 4005TIP3    H133430   1.464   3.070   3.631  0.4779  0.6397 -0.1021
 4005TIP3    H233431   1.490   2.953   3.539  0.0496  0.4720 -0.0117
 4006TIP3   OH233432   5.498   1.497  14.649  0.1043  0.5402 -0.1445
 4006TIP3    H133433   5.455   1.569  14.602  1.0831  0.8197 -0.6132
 4006TIP3    H233434   5.431   1.465  14.709 -0.1969  2.1741  0.4285
 4007TIP3   OH233435   3.933   1.414   6.216  1.1115 -0.0757  0.4893
 4007TIP3    H133436   3.866   1.444   6.155  1.1402  1.6608  1.2741
 4007TIP3    H233437   4.010   1.398   6.161  0.9899  0.9926 -0.0106
 4008TIP3   OH233438   0.156   4.303   1.613 -0.1260  0.0472  0.2282
 4008TIP3    H133439   0.130   4.309   1.521 -0.6715  1.6342  0.4798
 4008TIP3    H233440   0.236   4.354   1.619 -1.0650  1.4528  0.9878
 4009TIP3   OH233441   0.791   1.068   1.150 -0.2340  0.1955 -0.1252
 4009TIP3    H133442   0.865   1.009   1.161 -0.0644  0.4986  0.3773
 4009TIP3    H233443   0.744   1.033   1.075  0.4655  0.0557 -0.5020
 4010TIP3   OH233444   4.962   0.442   5.046 -0.1448  0.0988  0.7515
 4010TIP3    H133445   4.973   0.442   5.141  1.3599  2.0664  0.6391
 4010TIP3    H233446   4.997   0.358   5.017 -0.9983 -0.6806  1.9676
 4011TIP3   OH233447   1.918   2.760  11.211 -0.3462 -0.4003 -0.1387
 4011TIP3    H133448   1.924   2.854  11.197 -1.0708 -0.1607  1.0031
 4011TIP3    H233449   1.899   2.723  11.125 -0.3104  0.5217 -0.5429
 4012TIP3   OH233450   2.733   1.211  13.729 -0.2993  0.0637  0.0965
 4012TIP3    H133451   2.764   1.288  13.777 -0.8860  0.3849 -0.0346
 4012TIP3    H233452   2.708   1.245  13.643 -0.0378 -0.3684 -0.1528
 4013TIP3   OH233453   5.451   4.456  15.713  0.0293 -0.2518  0.2833
 4013TIP3    H133454   5.492   4.539  15.689  0.0541 -0.5930 -0.8968
 4013TIP3    H233455   5.358   4.470  15.698  0.1506 -0.8084 -1.1066
 4014TIP3   OH233456   4.745   4.045  14.887  0.6169 -0.1526  0.4089
 4014TIP3    H133457   4.824   4.099  14.886  0.1170  0.5822 -1.2752
 4014TIP3    H233458   4.777   3.956  14.906  1.7711  0.2303  0.3002
 4015TIP3   OH233459   0.016   1.948   4.916  0.3803 -0.0729 -0.1663
 4015TIP3    H133460   0.047   1.936   4.826 -0.8309  1.5550 -0.8175
 4015TIP3    H233461  -0.057   2.008   4.908  0.0653 -0.1685  1.8930
 4016TIP3   OH233462   4.686   4.122  16.678  0.1094 -0.0205 -0.3267
 4016TIP3    H133463   4.666   4.173  16.756  1.9656  2.5825 -1.4744
 4016TIP3    H233464   4.619   4.148  16.615  0.5154  0.3416 -0.6170
 4017TIP3   OH233465   5.760   6.402  16.391 -0.4819 -0.2140 -0.7677
 4017TIP3    H133466   5.809   6.417  16.310  0.0762  1.6149 -0.1339
 4017TIP3    H233467   5.809   6.334  16.437  0.3378  0.1694 -1.0606
 4018TIP3   OH233468   4.717   4.286   1.969 -0.3757 -0.2090 -0.6540
 4018TIP3    H133469   4.783   4.336   2.017 -0.4621 -1.0820  0.4129
 4018TIP3    H233470   4.715   4.325   1.882  1.8288 -0.4196 -0.8234
 4019TIP3   OH233471   2.406   5.738  10.778 -0.6839 -0.5014 -0.0131
 4019TIP3    H133472   2.478   5.680  10.803  1.5958  1.4578 -1.7512
 4019TIP3    H233473   2.356   5.687  10.714  1.1197 -0.6893 -1.3108
 4020TIP3   OH233474   2.735   4.923   5.522  0.0023  0.0041  0.6249
 4020TIP3    H133475   2.667   4.878   5.572  0.2212 -2.1534 -0.9610
 4020TIP3    H233476   2.688   4.995   5.479 -1.1699 -1.0542  0.0926
 4021TIP3   OH233477   1.330   3.068  11.929 -0.9866  0.2171  0.1798
 4021TIP3    H133478   1.235   3.082  11.922 -0.9767 -0.7223 -2.2253
 4021TIP3    H233479   1.339   2.975  11.950 -0.5683 -0.3245 -2.2133
 4022TIP3   OH233480   2.099   0.711   1.170  1.0682 -0.0794  0.4763
 4022TIP3    H133481   2.091   0.806   1.177  1.0295  0.1277 -1.9536
 4022TIP3    H233482   2.187   0.697   1.135  0.0477 -0.7396 -1.9738
 4023TIP3   OH233483   4.009   0.063  16.108 -0.2371 -0.0679 -0.2143
 4023TIP3    H133484   3.961  -0.020  16.102  1.0593 -0.7755 -0.9473
 4023TIP3    H233485   4.091   0.041  16.152  0.9286  0.4568 -2.0554
 4024TIP3   OH233486   6.453   3.922  15.305  0.2163  0.1980  0.3239
 4024TIP3    H133487   6.445   3.966  15.220 -1.2548  0.5276  0.6161
 4024TIP3    H233488   6.496   3.839  15.285 -0.1304  0.2661 -0.7384
 4025TIP3   OH233489   1.609   5.569  13.635 -0.5523  0.1861  0.2355
 4025TIP3    H133490   1.575   5.550  13.723 -2.3580 -3.7813 -1.2016
 4025TIP3    H233491   1.690   5.518  13.630 -0.3028  0.6389 -0.3107
 4026TIP3   OH233492   1.559   5.623   5.862  0.6775 -0.1385 -0.1740
 4026TIP3    H133493   1.528   5.679   5.933 -0.8327 -0.1302 -0.8117
 4026TIP3    H233494   1.571   5.537   5.902  1.7905  0.3388  0.5288
 4027TIP3   OH233495   0.393   6.744  16.645  0.0523 -0.1583 -0.1389
 4027TIP3    H133496   0.387   6.701  16.559 -2.4324  1.2589 -0.7070
 4027TIP3    H233497   0.306   6.780  16.661  1.6806  3.6353  0.8630
 4028TIP3   OH233498   4.595   0.260  11.553 -0.4767  0.0844 -0.1090
 4028TIP3    H133499   4.590   0.168  11.529 -3.3113  0.6964 -2.1170
 4028TIP3    H233500   4.689   0.278  11.560  0.2062 -2.1727 -2.7800
 4029TIP3   OH233501   2.053   2.283  11.081 -0.5083 -0.1447  0.6968
 4029TIP3    H133502   2.127   2.241  11.125  0.7549  1.4229  0.1307
 4029TIP3    H233503   2.034   2.226  11.006 -1.9670 -2.2428  2.6059
 4030TIP3   OH233504   5.853   6.117  12.177  0.3094  0.0775  0.0746
 4030TIP3    H133505   5.929   6.159  12.218  0.7236 -0.8876  0.3239
 4030TIP3    H233506   5.832   6.172  12.102  1.8224 -0.1361 -0.5201
 4031TIP3   OH233507   1.505   1.676   4.776 -0.1367 -0.2192  0.5056
 4031TIP3    H133508   1.519   1.679   4.682 -1.0328 -1.5149  0.3090
 4031TIP3    H233509   1.507   1.582   4.798 -0.3381  0.0431  1.7042
 4032TIP3   OH233510   5.436   5.265  14.206  0.2618  0.5608  0.2525
 4032TIP3    H133511   5.373   5.337  14.195 -0.2824  0.1595  0.7229
 4032TIP3    H233512   5.493   5.294  14.278  0.0452  0.5188  0.4393
 4033TIP3   OH233513   5.925   1.255   4.427 -0.2092 -0.0562  0.0848
 4033TIP3    H133514   5.956   1.164   4.431 -3.8987 -1.3480  1.2371
 4033TIP3    H233515   5.916   1.273   4.334 -0.5464 -1.2948 -0.1414
 4034TIP3   OH233516   1.841   5.453   4.580  0.1907  1.0912  0.1509
 4034TIP3    H133517   1.779   5.513   4.539  0.7491  1.0027 -0.8326
 4034TIP3    H233518   1.791   5.371   4.590  0.5677  0.5862 -1.9363
 4035TIP3   OH233519   5.535   0.095   2.893 -0.4969 -0.0078 -0.2738
 4035TIP3    H133520   5.553   0.060   2.806 -1.1333 -0.7927 -0.0929
 4035TIP3    H233521   5.599   0.052   2.950 -0.9138 -0.4594 -0.1446
 4036TIP3   OH233522   0.946   4.078   4.082 -0.0559  0.8553 -0.5125
 4036TIP3    H133523   0.875   4.142   4.081 -0.1527  0.7507 -0.2316
 4036TIP3    H233524   1.005   4.108   4.151  0.1146  0.8746 -0.6645
 4037TIP3   OH233525   3.604   1.527  15.275  0.0316  0.4000  0.2084
 4037TIP3    H133526   3.511   1.524  15.255 -0.3411  0.3409  1.9056
 4037TIP3    H233527   3.627   1.436  15.295  0.4950  0.3917 -0.3427
 4038TIP3   OH233528   1.167   4.005   2.128 -0.2735  0.4172 -0.7138
 4038TIP3    H133529   1.157   4.053   2.211  0.3060  0.9061 -0.9223
 4038TIP3    H233530   1.078   3.979   2.105 -0.5558  1.1111 -0.4258
 4039TIP3   OH233531   5.901   1.458  11.256  0.5919 -0.2095  0.0679
 4039TIP3    H133532   5.882   1.387  11.194  0.1692  0.5840 -0.7320
 4039TIP3    H233533   5.882   1.421  11.342 -2.6308 -0.1382 -0.5385
 4040TIP3   OH233534   4.016   1.538  11.118 -0.6496 -0.1006  0.6389
 4040TIP3    H133535   4.045   1.481  11.046  1.9102 -0.6120  1.9982
 4040TIP3    H233536   4.060   1.622  11.101 -2.1583  0.6105  0.1870
 4041TIP3   OH233537   2.017   5.638   4.209 -0.1233 -0.0832 -0.3651
 4041TIP3    H133538   2.030   5.707   4.275  1.4776  0.0340 -0.7978
 4041TIP3    H233539   2.052   5.559   4.249 -0.3313 -0.2840 -0.5746
 4042TIP3   OH233540   2.899   4.961   3.061 -0.2113 -0.3034  0.3688
 4042TIP3    H133541   2.926   4.884   3.111  0.0709 -0.3377  0.1676
 4042TIP3    H233542   2.965   5.027   3.080  0.3028 -0.5530 -0.5277
 4043TIP3   OH233543   5.134   1.797   0.921 -0.4069 -0.4406  0.5095
 4043TIP3    H133544   5.070   1.865   0.942 -0.8876 -0.9816  0.8187
 4043TIP3    H233545   5.212   1.821   0.971 -0.3908  0.1804  0.1883
 4044TIP3   OH233546   2.311   4.720  15.446 -0.3111 -0.5469 -0.1653
 4044TIP3    H133547   2.402   4.741  15.425 -0.7308 -1.2207 -2.8715
 4044TIP3    H233548   2.316   4.635  15.491  0.4777  0.0044  0.8005
 4045TIP3   OH233549   1.397   5.324   1.613  0.5291 -0.1078  0.6391
 4045TIP3    H133550   1.481   5.300   1.651  0.0862 -2.2117  0.3551
 4045TIP3    H233551   1.383   5.258   1.545 -0.6133  1.1641 -0.3656
 4046TIP3   OH233552   5.754   3.605   5.099  0.3791 -0.0026  0.1030
 4046TIP3    H133553   5.669   3.570   5.074  0.1925  1.4493 -1.3951
 4046TIP3    H233554   5.817   3.557   5.046  0.1740  1.4763 -1.5032
 4047TIP3   OH233555   6.345   3.760  12.249 -0.1798  0.4085  0.6269
 4047TIP3    H133556   6.375   3.843  12.286 -1.2478  0.9571  0.3009
 4047TIP3    H233557   6.249   3.769  12.245 -0.2866 -0.7689  0.4276
 4048TIP3   OH233558   5.781   5.417   3.274 -0.3527  0.1312 -0.2501
 4048TIP3    H133559   5.832   5.358   3.218 -0.6487  1.5595 -2.0596
 4048TIP3    H233560   5.697   5.426   3.228 -1.1564  0.1694  1.1929
 4049TIP3   OH233561   1.145   0.021  15.376  0.1258  0.1943 -0.6705
 4049TIP3    H133562   1.139  -0.047  15.444  0.4911 -0.4260 -1.2546
 4049TIP3    H233563   1.139  -0.027  15.294  1.5057  0.7605 -1.1034
 4050TIP3   OH233564   1.082   0.959   4.851  0.0556 -0.1873 -0.2471
 4050TIP3    H133565   1.127   1.022   4.795  0.1804  0.7190  0.8628
 4050TIP3    H233566   1.054   1.009   4.927  1.7785 -1.8219  1.5518
 4051TIP3   OH233567   4.517   0.593  11.325  0.3226 -0.1703 -0.3710
 4051TIP3    H133568   4.520   0.538  11.246 -1.4134 -0.8074 -0.0124
 4051TIP3    H233569   4.605   0.587  11.361  1.2486  0.4332 -2.4762
 4052TIP3   OH233570   4.568   0.400   1.349  0.6195 -0.1386 -0.7955
 4052TIP3    H133571   4.550   0.418   1.257  0.8550 -0.4980 -0.9139
 4052TIP3    H233572   4.502   0.450   1.397 -0.1869 -0.8174 -1.1907
 4053TIP3   OH233573   2.249   2.335   2.621  0.0319  0.0407 -0.1326
 4053TIP3    H133574   2.279   2.298   2.538  2.2024 -0.4057  0.8070
 4053TIP3    H233575   2.224   2.259   2.673  0.8893  0.1361  0.4368
 4054TIP3   OH233576   6.533   3.209   4.614  0.1935 -0.2753 -0.0241
 4054TIP3    H133577   6.457   3.190   4.670  2.3378 -1.7274  2.5215
 4054TIP3    H233578   6.592   3.259   4.670  1.9905 -0.9128 -1.2994
 4055TIP3   OH233579   5.358   4.842  15.838  0.2873 -0.1377  0.1118
 4055TIP3    H133580   5.429   4.798  15.885  1.3737  1.0477 -0.3953
 4055TIP3    H233581   5.302   4.878  15.907  0.2396 -0.9406  0.5086
 4056TIP3   OH233582   4.080   2.609  15.364  0.2885 -0.4278 -0.0802
 4056TIP3    H133583   4.022   2.533  15.366 -2.4738  1.6128 -0.0225
 4056TIP3    H233584   4.058   2.655  15.283  1.6819  0.5237  0.0430
 4057TIP3   OH233585   0.838   2.378  17.103  0.1712  0.2170 -0.2442
 4057TIP3    H133586   0.888   2.456  17.078  1.0889 -0.1347  0.4662
 4057TIP3    H233587   0.865   2.361  17.193 -1.0899 -0.1008  0.0778
 4058TIP3   OH233588   6.441   0.152   3.122 -0.1635  0.3160  0.1088
 4058TIP3    H133589   6.427   0.135   3.215 -1.6247  0.4550 -0.0792
 4058TIP3    H233590   6.525   0.198   3.119 -0.2928  0.6621  1.3917
 4059TIP3   OH233591   3.692   4.345  15.225 -0.3196 -0.6105  0.0668
 4059TIP3    H133592   3.618   4.394  15.190 -0.6932 -0.1861  1.4080
 4059TIP3    H233593   3.698   4.374  15.316  2.1922  0.2237 -0.3213
 4060TIP3   OH233594   0.408   5.088   2.635  0.3131  0.2241  0.6571
 4060TIP3    H133595   0.321   5.112   2.668  0.0438 -0.5852  0.5346
 4060TIP3    H233596   0.469   5.123   2.700 -0.0447  1.6016  0.2872
 4061TIP3   OH233597   1.941   2.668   2.525 -0.4480 -0.5080  0.0083
 4061TIP3    H133598   1.959   2.613   2.448 -2.1625 -0.9250 -0.1158
 4061TIP3    H233599   1.860   2.633   2.561  0.2549 -0.1988  1.9256
 4062TIP3   OH233600   0.512   4.176   4.467  0.0087  0.0357  0.3727
 4062TIP3    H133601   0.573   4.127   4.411 -1.4129 -0.0161 -1.1712
 4062TIP3    H233602   0.481   4.111   4.530 -0.4947 -0.5949 -0.5259
 4063TIP3   OH233603   3.005   4.470  11.182  0.7877 -0.1114 -0.0617
 4063TIP3    H133604   2.989   4.437  11.093  0.2972  0.3111 -0.1357
 4063TIP3    H233605   3.030   4.562  11.168  0.2366  0.0887  0.2698
 4064TIP3   OH233606   0.108   0.794   5.162  0.3197  0.6670  0.4467
 4064TIP3    H133607   0.202   0.784   5.151  0.3841  1.6583  0.0361
 4064TIP3    H233608   0.083   0.722   5.220  1.0769 -0.5197 -0.6522
 4065TIP3   OH233609   1.835   2.526  12.050 -0.0737 -0.4128  0.5437
 4065TIP3    H133610   1.931   2.528  12.047 -0.0744  0.8176  1.0421
 4065TIP3    H233611   1.809   2.494  11.964  0.7813 -0.4961  0.3080
 4066TIP3   OH233612   4.708   3.751   3.390 -0.1181 -0.3221 -0.1072
 4066TIP3    H133613   4.708   3.842   3.360  0.7008 -0.3672 -0.2571
 4066TIP3    H233614   4.648   3.751   3.465 -0.3636  0.2744 -0.2997
 4067TIP3   OH233615   2.158   4.010   4.296  0.0125  0.1915 -0.4518
 4067TIP3    H133616   2.179   4.077   4.361 -0.3134 -0.8352  0.7230
 4067TIP3    H233617   2.124   4.060   4.221  0.0962  1.3680  0.2720
 4068TIP3   OH233618   4.603   0.943  12.868 -0.2370  0.4957 -0.3354
 4068TIP3    H133619   4.616   0.885  12.943  0.9444  0.6839 -0.3897
 4068TIP3    H233620   4.509   0.940  12.852 -0.3531 -0.4229  0.4528
 4069TIP3   OH233621   5.107   4.496   3.641 -0.2399  0.0638 -0.3617
 4069TIP3    H133622   5.196   4.489   3.608 -0.5986 -1.1509 -1.0585
 4069TIP3    H233623   5.072   4.575   3.599 -0.3677 -0.9169 -2.1588
 4070TIP3   OH233624   4.210   5.958  15.029  0.3548 -0.1460 -0.6650
 4070TIP3    H133625   4.144   5.930  15.093  0.4991 -0.0423 -0.4681
 4070TIP3    H233626   4.279   5.997  15.082 -0.4154  1.7319 -1.0088
 4071TIP3   OH233627   2.536   3.426  11.875 -0.2350 -0.5097 -0.3412
 4071TIP3    H133628   2.629   3.408  11.858 -0.8277 -1.8054 -2.3171
 4071TIP3    H233629   2.511   3.361  11.941  0.2831 -0.1003  0.2609
 4072TIP3   OH233630   5.603   6.303   5.321  0.3421  0.2241 -0.6078
 4072TIP3    H133631   5.582   6.291   5.228 -2.0463  2.2663 -0.3918
 4072TIP3    H233632   5.524   6.275   5.367  1.6047 -1.0145  0.8552
 4073TIP3   OH233633   6.653   5.897  12.969  0.1614  0.5629  0.0507
 4073TIP3    H133634   6.570   5.861  12.938  0.1111  1.4131 -0.8535
 4073TIP3    H233635   6.699   5.823  13.006 -1.3399  0.2283  1.2916
 4074TIP3   OH233636   2.723   5.534  15.542  0.3030 -0.3390  0.1594
 4074TIP3    H133637   2.732   5.444  15.512 -2.2745 -0.6615  0.2339
 4074TIP3    H233638   2.724   5.586  15.461  3.1142 -0.2548  0.1879
 4075TIP3   OH233639   5.068   2.892   6.489 -0.5276 -0.1361  0.2181
 4075TIP3    H133640   5.090   2.929   6.575  0.6314 -1.6232  0.5686
 4075TIP3    H233641   5.152   2.881   6.445 -1.0300 -0.4943 -0.6615
 4076TIP3   OH233642   5.304   5.188  14.796  0.4276  0.0066 -0.5754
 4076TIP3    H133643   5.369   5.120  14.813  0.5140  0.1633 -0.2513
 4076TIP3    H233644   5.220   5.144  14.803  0.4506  0.1227  0.5952
 4077TIP3   OH233645   5.926   6.214  11.489 -0.0039  0.1126  0.2254
 4077TIP3    H133646   5.887   6.208  11.576  0.2021  2.4738  0.5109
 4077TIP3    H233647   5.852   6.223  11.429 -0.1776 -2.1134  0.0558
 4078TIP3   OH233648   2.754   3.907   2.137 -0.2880 -0.4282  0.5520
 4078TIP3    H133649   2.676   3.885   2.188 -0.8417 -0.4311 -0.2863
 4078TIP3    H233650   2.720   3.935   2.051  0.5144  1.6171  0.8688
 4079TIP3   OH233651   2.587   3.006  15.216 -0.5176 -0.3193  0.2327
 4079TIP3    H133652   2.644   3.006  15.293  0.0190 -3.7052 -0.1021
 4079TIP3    H233653   2.626   3.072  15.158 -0.0017  1.1131  2.1504
 4080TIP3   OH233654   3.264   6.451  13.573  0.3908 -0.2366 -0.3310
 4080TIP3    H133655   3.312   6.513  13.518  1.5319 -0.7678  0.0387
 4080TIP3    H233656   3.263   6.370  13.521  1.8200 -0.8554  0.5713
 4081TIP3   OH233657   1.471   3.109  15.850 -0.4934 -0.1715  0.0062
 4081TIP3    H133658   1.451   3.016  15.837  0.9462 -0.5993  0.7816
 4081TIP3    H233659   1.553   3.123  15.804 -1.0759  0.9168 -0.7409
 4082TIP3   OH233660   6.072   1.474   3.470  0.2063  0.0809  0.4651
 4082TIP3    H133661   6.011   1.437   3.534 -1.0300 -1.0579 -1.3063
 4082TIP3    H233662   6.153   1.424   3.481 -0.8586 -1.9943 -0.6365
 4083TIP3   OH233663   6.460   1.267   5.383  0.3230  0.0189 -0.1197
 4083TIP3    H133664   6.555   1.262   5.383  0.4163  1.3844 -1.5469
 4083TIP3    H233665   6.440   1.360   5.383 -1.0512 -0.2439  1.9515
 4084TIP3   OH233666   6.209   0.234   4.940 -0.3328 -1.0009  0.5301
 4084TIP3    H133667   6.271   0.273   5.002  0.8102 -0.3562 -0.9894
 4084TIP3    H233668   6.125   0.277   4.960  0.8199  2.0576 -0.8745
 4085TIP3   OH233669   4.744   3.579   2.122  0.1669  0.3072 -0.0914
 4085TIP3    H133670   4.826   3.582   2.171  0.1668 -1.1828  0.0243
 4085TIP3    H233671   4.701   3.499   2.152 -0.6385  0.2843 -1.2606
 4086TIP3   OH233672   6.434   0.074  12.949 -0.4484 -0.0966  0.4649
 4086TIP3    H133673   6.400   0.159  12.921 -0.0564 -0.2543 -0.4812
 4086TIP3    H233674   6.358   0.016  12.949 -0.2536 -0.3609 -1.2949
 4087TIP3   OH233675   3.241   6.632  16.530  0.0960 -0.2704  0.6963
 4087TIP3    H133676   3.265   6.583  16.608  2.2129  0.5634  0.6093
 4087TIP3    H233677   3.238   6.723  16.559  0.2322 -0.0259 -0.0413
 4088TIP3   OH233678   6.294   1.088   5.233  0.1194  0.0718  0.0496
 4088TIP3    H133679   6.357   1.073   5.162 -0.9228 -1.9704 -0.4671
 4088TIP3    H233680   6.346   1.129   5.303  1.8734 -0.9212 -0.6467
 4089TIP3   OH233681   4.921   2.800  11.525  0.2358 -0.4333  0.1315
 4089TIP3    H133682   4.869   2.810  11.604 -1.1760 -1.7457 -0.6127
 4089TIP3    H233683   5.012   2.795  11.556 -0.4395 -3.0510  1.8860
 4090TIP3   OH233684   6.760   5.275  15.383 -0.2041 -0.4315 -0.2239
 4090TIP3    H133685   6.775   5.288  15.289  4.2894 -0.2159  0.4133
 4090TIP3    H233686   6.790   5.357  15.423 -0.1597 -1.2899  1.5187
 4091TIP3   OH233687   6.120   4.835   3.514 -0.6361  0.0284  0.1117
 4091TIP3    H133688   6.183   4.840   3.442 -1.2132  0.2730 -0.3848
 4091TIP3    H233689   6.173   4.815   3.591 -0.1401 -1.2427 -0.5490
 4092TIP3   OH233690   3.052   0.119   5.395  0.3965  0.5532 -0.1945
 4092TIP3    H133691   3.013   0.119   5.483 -0.2371  0.5614 -0.4730
 4092TIP3    H233692   3.142   0.092   5.409  0.7795  2.1858  0.6693
 4093TIP3   OH233693   6.395   1.224   6.037 -0.4380  0.1549 -0.7402
 4093TIP3    H133694   6.375   1.224   6.130 -1.9931 -0.8796 -1.0538
 4093TIP3    H233695   6.342   1.296   6.001 -1.0480 -0.4456 -1.0567
 4094TIP3   OH233696   2.371   1.299  10.924  0.4731  0.1118  0.3438
 4094TIP3    H133697   2.432   1.322  10.854  0.9951 -0.0392  0.7462
 4094TIP3    H233698   2.329   1.218  10.894  1.0811 -0.2435  0.4418
 4095TIP3   OH233699   4.085   5.923   4.244  0.3373  0.4762  0.2499
 4095TIP3    H133700   4.137   5.880   4.313 -0.4659  0.6488  0.9677
 4095TIP3    H233701   3.994   5.904   4.267  0.0930 -0.5852 -1.5025
 4096TIP3   OH233702   5.538   2.386   4.172  0.1690 -0.1397  0.1916
 4096TIP3    H133703   5.447   2.359   4.180 -0.1193  0.9716  0.6189
 4096TIP3    H233704   5.575   2.370   4.258  0.1946  0.1065  0.2261
 4097TIP3   OH233705   6.573   5.632   3.806 -0.0442 -0.1853  0.0276
 4097TIP3    H133706   6.487   5.616   3.765 -1.4441 -3.0950  3.8408
 4097TIP3    H233707   6.568   5.723   3.836 -1.2034  0.1473 -1.1160
 4098TIP3   OH233708   1.397   0.827  11.222  0.6088  0.6538 -0.0656
 4098TIP3    H133709   1.423   0.765  11.154  0.5444  1.0269 -0.4299
 4098TIP3    H233710   1.472   0.830  11.281  0.3125 -0.3630  0.3851
 4099TIP3   OH233711   6.214   1.480   5.631 -0.0423 -0.6503  0.1629
 4099TIP3    H133712   6.277   1.553   5.633 -2.1799  1.2247  1.5256
 4099TIP3    H233713   6.261   1.407   5.671  0.7752  1.1403  2.5968
 4100TIP3   OH233714   2.590   4.170  12.174  0.7487 -0.0928  0.0973
 4100TIP3    H133715   2.685   4.169  12.163  1.1833  1.8356  3.0845
 4100TIP3    H233716   2.569   4.082  12.205  2.1073  0.5745  3.0454
 4101TIP3   OH233717   2.233   5.512  14.078 -0.0724  0.7232 -0.2702
 4101TIP3    H133718   2.198   5.586  14.029 -1.9850  0.2173  0.3003
 4101TIP3    H233719   2.160   5.450  14.085  1.1413 -0.6913  0.3158
 4102TIP3   OH233720   5.662   0.697  11.401 -0.1477 -0.2758  0.0624
 4102TIP3    H133721   5.701   0.700  11.488  1.6376 -4.9370 -0.4375
 4102TIP3    H233722   5.736   0.711  11.341 -1.0111  0.8518 -0.7592
 4103TIP3   OH233723   1.147   6.461   3.876 -0.1196 -0.4441  0.1242
 4103TIP3    H133724   1.187   6.462   3.788 -1.6045  0.2996 -0.5516
 4103TIP3    H233725   1.178   6.542   3.916 -1.0084  0.1769 -0.4327
 4104TIP3   OH233726   0.439   3.981  13.432  0.4565  0.0349  0.2393
 4104TIP3    H133727   0.458   4.046  13.365 -0.6690 -0.2281 -0.3576
 4104TIP3    H233728   0.524   3.959  13.470  1.3599 -1.1865 -2.3810
 4105TIP3   OH233729   5.413   3.532   0.911  0.2229 -0.0405 -0.9606
 4105TIP3    H133730   5.423   3.437   0.914  0.7930  0.0335 -0.4346
 4105TIP3    H233731   5.496   3.566   0.945 -0.0227  0.6424 -1.0353
 4106TIP3   OH233732   3.110   5.647   4.205  0.1711 -0.2013 -0.2387
 4106TIP3    H133733   3.178   5.684   4.149  0.4578 -0.0621  0.2092
 4106TIP3    H233734   3.035   5.706   4.194  0.5153  0.3196  0.2092
 4107TIP3   OH233735   6.095   1.677   5.202 -0.4104 -0.4580 -0.0751
 4107TIP3    H133736   6.064   1.588   5.219  0.3129 -1.2186 -2.4602
 4107TIP3    H233737   6.111   1.678   5.107 -0.5788  2.2676 -0.0953
 4108TIP3   OH233738   1.582   3.236  10.626  0.4111 -0.4594  0.6313
 4108TIP3    H133739   1.497   3.278  10.639  0.7012  0.0721  0.8434
 4108TIP3    H233740   1.562   3.143  10.617 -0.1045 -0.4520  1.6216
 4109TIP3   OH233741   3.060   5.283  14.224 -0.4120  0.2273  0.3953
 4109TIP3    H133742   3.114   5.322  14.293 -0.7362  0.8012  0.3217
 4109TIP3    H233743   3.055   5.350  14.156 -0.8185 -0.0056  0.1916
 4110TIP3   OH233744   0.378   5.968  13.373  0.1265 -0.0941 -0.1666
 4110TIP3    H133745   0.449   6.024  13.403 -0.0163  0.4055 -0.7663
 4110TIP3    H233746   0.320   5.961  13.449 -0.1124  0.9767 -0.2422
 4111TIP3   OH233747   5.367   1.170   1.333  0.0539  1.0368 -0.1435
 4111TIP3    H133748   5.327   1.250   1.297 -2.5459  0.7344  1.9277
 4111TIP3    H233749   5.336   1.100   1.276 -1.6220  0.9182  0.9100
 4112TIP3   OH233750   4.606   1.575   3.155 -0.4944 -0.3821 -0.5702
 4112TIP3    H133751   4.569   1.487   3.144 -0.3175 -0.5387  0.1263
 4112TIP3    H233752   4.539   1.633   3.118 -0.2828 -0.8535 -1.7323
 4113TIP3   OH233753   5.210   5.047  12.822 -0.3777 -0.2646  0.3349
 4113TIP3    H133754   5.172   4.996  12.751  0.9830  0.4558 -0.9362
 4113TIP3    H233755   5.164   5.131  12.819  0.6854  0.2886 -0.6358
 4114TIP3   OH233756   4.147   4.081   3.794 -0.2937 -0.5011  0.0567
 4114TIP3    H133757   4.193   4.079   3.710 -1.6007 -1.0623 -0.6608
 4114TIP3    H233758   4.108   4.169   3.797  0.6022 -0.1189  0.5440
 4115TIP3   OH233759   6.401   5.809  17.226  0.0469  0.2778  0.1867
 4115TIP3    H133760   6.467   5.775  17.286 -1.2813 -1.1659  0.8749
 4115TIP3    H233761   6.433   5.785  17.139  1.1496  0.9077  0.4057
 4116TIP3   OH233762   5.109   1.650  12.358  0.2730  0.2054  0.7110
 4116TIP3    H133763   5.200   1.643  12.386  0.0423 -0.0300  1.4268
 4116TIP3    H233764   5.088   1.566  12.319  0.3230  0.2078  0.6795
 4117TIP3   OH233765   4.662   0.255  16.456 -0.4362 -0.5944  0.5929
 4117TIP3    H133766   4.741   0.247  16.402 -0.3876 -2.3635  0.8848
 4117TIP3    H233767   4.694   0.253  16.546 -0.7895 -1.1363  0.7114
 4118TIP3   OH233768   4.924   4.580   5.503  0.1041  0.2390  0.1920
 4118TIP3    H133769   4.862   4.512   5.476 -1.4944  2.7855 -2.8420
 4118TIP3    H233770   5.010   4.540   5.492 -0.8054 -1.4393 -1.0652
 4119TIP3   OH233771   3.128   5.686  14.857  0.8076  0.0187 -0.0666
 4119TIP3    H133772   3.070   5.667  14.784  1.3406  0.9893 -0.7512
 4119TIP3    H233773   3.121   5.780  14.870 -0.4903 -0.3325  2.1759
 4120TIP3   OH233774   1.518   2.030   2.980 -0.1151 -0.4336  0.4284
 4120TIP3    H133775   1.424   2.047   2.992 -0.1719  0.0635 -0.6139
 4120TIP3    H233776   1.531   2.038   2.885  0.9478 -0.6753  0.5522
 4121TIP3   OH233777   0.217   3.279  12.096  0.2052  0.7437  0.2258
 4121TIP3    H133778   0.227   3.374  12.092  1.3005  0.6503  0.6888
 4121TIP3    H233779   0.228   3.249  12.005 -0.2000  1.0586  0.0718
 4122TIP3   OH233780   2.800   2.524   2.665 -0.4470 -0.1521 -0.2352
 4122TIP3    H133781   2.892   2.516   2.643  0.2779 -0.7576  2.7937
 4122TIP3    H233782   2.798   2.534   2.760 -3.6033 -2.0360 -0.0115
 4123TIP3   OH233783   0.221   0.374   4.572  0.4700 -0.3576 -0.9855
 4123TIP3    H133784   0.163   0.298   4.566  0.6969 -0.5085 -1.2898
 4123TIP3    H233785   0.214   0.417   4.487  1.7853 -1.0968 -1.4922
 4124TIP3   OH233786   2.752   4.256   5.146  0.3739 -0.1754 -0.4612
 4124TIP3    H133787   2.817   4.291   5.085  1.5020  1.6422  1.7489
 4124TIP3    H233788   2.788   4.172   5.174  1.9427  0.9834  1.0197
 4125TIP3   OH233789   2.621   1.920  13.146  0.1875  0.0871 -0.1369
 4125TIP3    H133790   2.531   1.907  13.174  0.1784  0.0959 -0.1631
 4125TIP3    H233791   2.672   1.861  13.201  0.2274  0.5037  0.2762
 4126TIP3   OH233792   6.087   3.069  17.047  0.1818 -0.0844  0.1540
 4126TIP3    H133793   6.072   3.062  16.952  0.3028 -0.1993  0.1442
 4126TIP3    H233794   6.010   3.114  17.080  0.4646  0.6134 -0.1081
 4127TIP3   OH233795   0.601   6.246  11.509  0.3478  0.1421 -0.0230
 4127TIP3    H133796   0.596   6.293  11.426  1.3474  1.1587  0.4748
 4127TIP3    H233797   0.533   6.179  11.503 -0.7895  1.3642 -0.9268
 4128TIP3   OH233798   5.859   3.936  13.841  0.4661 -0.0860  0.2955
 4128TIP3    H133799   5.814   3.851  13.836  2.1748 -0.9101 -1.5350
 4128TIP3    H233800   5.808   3.992  13.783  3.2252 -1.7705 -4.0542
 4129TIP3   OH233801   6.216   0.175   1.724  0.0603 -1.0158 -0.5125
 4129TIP3    H133802   6.231   0.218   1.640 -1.5018  2.7378  0.9961
 4129TIP3    H233803   6.287   0.207   1.780  0.2272 -2.2918  0.0244
 4130TIP3   OH233804   0.871   1.547  15.473 -0.8916  0.2985  0.3522
 4130TIP3    H133805   0.800   1.588  15.423 -0.8697  0.1402  0.1880
 4130TIP3    H233806   0.827   1.477  15.523 -0.9973  0.8003  0.9638
 4131TIP3   OH233807   0.747   1.818  13.050 -0.4896 -0.3310  0.0969
 4131TIP3    H133808   0.714   1.790  12.965  0.9508  0.5847 -0.7777
 4131TIP3    H233809   0.736   1.741  13.106 -0.6045 -1.2438 -1.1552
 4132TIP3   OH233810   2.669   2.563   0.060  0.1749  0.0159  0.0922
 4132TIP3    H133811   2.694   2.479   0.097 -2.1499 -2.5879 -3.7983
 4132TIP3    H233812   2.749   2.596   0.019  0.0770 -2.7023 -2.4667
 4133TIP3   OH233813   4.636   3.196  13.807  0.1718  0.4665  0.0187
 4133TIP3    H133814   4.594   3.158  13.730 -0.7857  2.1648 -0.3179
 4133TIP3    H233815   4.565   3.242  13.853  0.7415 -0.4746  1.8804
 4134TIP3   OH233816   1.039   6.249  15.901  0.2463  0.0986 -0.0916
 4134TIP3    H133817   1.110   6.308  15.925 -0.0927 -0.2143  1.7556
 4134TIP3    H233818   1.079   6.163  15.896  0.2639  0.1238 -0.4124
 4135TIP3   OH233819   2.471   0.093  14.565  0.0520 -0.3952 -0.3003
 4135TIP3    H133820   2.492   0.143  14.644 -1.3978 -1.1067  0.5709
 4135TIP3    H233821   2.552   0.090  14.515  0.4604  1.7650  0.2231
 4136TIP3   OH233822   6.593   0.179  14.691 -0.1832 -0.1233 -0.3288
 4136TIP3    H133823   6.644   0.214  14.764 -0.6926  0.0243 -0.0373
 4136TIP3    H233824   6.641   0.100  14.664  0.2449  0.0653 -0.1210
 4137TIP3   OH233825   6.413   4.060  13.756  0.2549 -0.4990 -0.2260
 4137TIP3    H133826   6.421   4.059  13.660  3.9936  0.0286  0.0187
 4137TIP3    H233827   6.438   3.972  13.783  0.2806 -0.3182  0.3382
 4138TIP3   OH233828   3.845   1.105  15.784 -0.2033  0.2523 -0.1761
 4138TIP3    H133829   3.775   1.046  15.811  0.1418  0.2551  0.7242
 4138TIP3    H233830   3.923   1.072  15.829 -0.0663  1.5646  0.5634
 4139TIP3   OH233831   1.718   4.064  17.166  0.1891  0.4534 -0.3328
 4139TIP3    H133832   1.748   3.974  17.151 -1.1697 -0.1065  0.2428
 4139TIP3    H233833   1.648   4.055  17.231  2.2188  2.2309  2.2396
 4140TIP3   OH233834   6.520   1.650  12.093  0.1094  0.1868 -0.3442
 4140TIP3    H133835   6.604   1.608  12.110  0.4853  0.3778 -1.7037
 4140TIP3    H233836   6.531   1.693  12.008 -1.5334 -0.2452 -0.7857
 4141TIP3   OH233837   1.181   3.310   5.352 -0.6816  0.3594  0.4599
 4141TIP3    H133838   1.102   3.297   5.404 -0.5552 -2.0963  0.0934
 4141TIP3    H233839   1.252   3.272   5.406 -0.4220 -1.3794 -1.0470
 4142TIP3   OH233840   4.048   3.821   3.365 -0.4148  0.8013  0.3011
 4142TIP3    H133841   3.989   3.798   3.294  0.3804  1.0814 -0.4667
 4142TIP3    H233842   4.044   3.916   3.370  0.4549  0.8771 -0.2040
 4143TIP3   OH233843   6.681   6.389   1.402 -0.4086  0.3576  0.3837
 4143TIP3    H133844   6.766   6.359   1.436  0.0454  0.3129 -0.7771
 4143TIP3    H233845   6.693   6.483   1.387  0.2609 -0.0995 -2.1729
 4144TIP3   OH233846   5.520   4.588   2.010 -0.2251 -0.0709 -0.4787
 4144TIP3    H133847   5.589   4.540   2.056 -1.3280 -2.0789 -0.8770
 4144TIP3    H233848   5.453   4.522   1.991 -0.6259  1.0693 -3.3338
 4145TIP3   OH233849   5.703   6.325   4.960 -0.0966 -0.0605 -0.1532
 4145TIP3    H133850   5.640   6.358   4.895 -0.2873 -0.1459 -0.0104
 4145TIP3    H233851   5.781   6.304   4.908  0.1885  1.0438 -0.1903
 4146TIP3   OH233852   3.839   0.241  13.712 -0.0303  0.3607  0.9731
 4146TIP3    H133853   3.895   0.314  13.738  0.0362  0.8114 -0.3789
 4146TIP3    H233854   3.882   0.163  13.746  1.1767  0.7465  0.3379
 4147TIP3   OH233855   2.145   2.260   6.742  0.3933 -0.1434 -0.1097
 4147TIP3    H133856   2.099   2.336   6.705 -0.5293  0.0100  1.3023
 4147TIP3    H233857   2.193   2.222   6.668 -0.7255  0.6576 -1.2689
 4148TIP3   OH233858   0.132   6.599   2.857  0.5610 -0.2006  0.3461
 4148TIP3    H133859   0.140   6.530   2.791  0.8465 -0.2916  0.4744
 4148TIP3    H233860   0.194   6.666   2.829  1.6396 -0.8101  1.2289
 4149TIP3   OH233861   0.622   0.909  12.309  0.1009  0.3099 -0.0794
 4149TIP3    H133862   0.631   1.004  12.312  0.3097  0.3168 -0.8827
 4149TIP3    H233863   0.706   0.878  12.275  0.6379 -0.2753  1.7105
 4150TIP3   OH233864   3.686   1.352   4.173  0.7921 -0.3055 -0.6890
 4150TIP3    H133865   3.627   1.394   4.111  0.8255 -0.5385 -0.8789
 4150TIP3    H233866   3.643   1.269   4.194  1.0921 -0.5174 -0.8955
 4151TIP3   OH233867   3.429   3.570  15.529 -0.4839 -0.2457  0.1678
 4151TIP3    H133868   3.450   3.481  15.503 -0.9779 -0.5809  0.9095
 4151TIP3    H233869   3.339   3.566  15.561 -0.2072  0.3367  1.0545
 4152TIP3   OH233870   1.413   0.038  13.756 -0.2433  0.2957  0.3819
 4152TIP3    H133871   1.410   0.098  13.830 -0.8545 -1.1443  1.5382
 4152TIP3    H233872   1.338  -0.020  13.768 -1.2875  1.0349 -2.2390
 4153TIP3   OH233873   6.098   5.741  13.044 -0.7661 -0.1145 -0.0735
 4153TIP3    H133874   6.015   5.779  13.015 -1.3118 -1.1834  0.0587
 4153TIP3    H233875   6.143   5.812  13.089 -2.1081  0.1621  0.8481
 4154TIP3   OH233876   6.011   4.646  16.937 -0.6302  0.1722  0.0490
 4154TIP3    H133877   5.969   4.679  17.017 -1.1747  1.2902 -0.6860
 4154TIP3    H233878   6.006   4.551  16.945  1.0105  0.2202  2.2454
 4155TIP3   OH233879   5.779   5.845   3.070 -0.0624 -0.1208 -0.0969
 4155TIP3    H133880   5.788   5.919   3.010  1.0963 -1.1154 -1.1912
 4155TIP3    H233881   5.827   5.872   3.149  1.2703 -0.1104 -0.8987
 4156TIP3   OH233882   3.839   0.307  13.448 -0.1181  0.0872 -0.1195
 4156TIP3    H133883   3.749   0.330  13.421 -0.6074 -1.0323  0.5489
 4156TIP3    H233884   3.828   0.264  13.532  0.8905 -1.6555 -0.8604
 4157TIP3   OH233885   4.104   3.765  14.286  0.5121 -0.1767  0.5260
 4157TIP3    H133886   4.190   3.755  14.246 -0.3068  0.2603 -1.3918
 4157TIP3    H233887   4.047   3.793  14.215 -0.7232  1.9561  2.2589
 4158TIP3   OH233888   5.822   6.723  11.384  0.5573 -0.3410 -0.6599
 4158TIP3    H133889   5.850   6.796  11.439  1.1030 -0.3269 -0.9554
 4158TIP3    H233890   5.733   6.704  11.414  0.1921  0.8132 -0.9799
 4159TIP3   OH233891   1.792   3.854  13.726  0.0810 -0.2413 -0.2087
 4159TIP3    H133892   1.833   3.929  13.682 -0.0444 -0.4779 -0.7431
 4159TIP3    H233893   1.858   3.823  13.788  1.3082 -1.5511 -2.1225
 4160TIP3   OH233894   6.018   3.976  11.738  0.1124  0.0259 -0.2119
 4160TIP3    H133895   6.077   4.005  11.808  1.0112 -1.8376 -0.1670
 4160TIP3    H233896   6.052   4.018  11.659  0.5842  0.1814  0.0716
 4161TIP3   OH233897   1.726   5.935  16.516 -0.8527  0.1543  0.1712
 4161TIP3    H133898   1.820   5.930  16.533 -0.7565  0.3368 -0.2910
 4161TIP3    H233899   1.689   5.966  16.599 -0.1973  2.6825 -0.4367
 4162TIP3   OH233900   0.967   3.367  11.351  0.5915  0.1649 -0.5428
 4162TIP3    H133901   0.983   3.429  11.423  2.3954 -1.5929  0.6173
 4162TIP3    H233902   1.047   3.370  11.299  1.2585 -2.1206  0.2715
 4163TIP3   OH233903   1.823   1.661  16.359 -0.2653 -0.2976 -0.2225
 4163TIP3    H133904   1.825   1.743  16.310  0.6918 -1.2225 -1.7566
 4163TIP3    H233905   1.730   1.646  16.377 -0.4548  1.0727  0.0155
 4164TIP3   OH233906   2.932   0.672   2.740  0.0716  0.4394  0.2234
 4164TIP3    H133907   2.870   0.664   2.668 -0.4481 -0.9497  0.8109
 4164TIP3    H233908   2.920   0.762   2.772 -0.9931  0.4648 -0.2374
 4165TIP3   OH233909   2.474   5.497   1.446 -0.5086 -0.1498  0.0051
 4165TIP3    H133910   2.433   5.530   1.366 -2.2326  0.4816  1.1101
 4165TIP3    H233911   2.402   5.493   1.510  0.7304 -1.1000  1.3875
 4166TIP3   OH233912   6.133   0.875  13.980 -0.1298  0.1479  0.4382
 4166TIP3    H133913   6.116   0.840  14.067  1.0798 -0.3106  0.4933
 4166TIP3    H233914   6.048   0.871  13.935 -0.8308  0.7191  1.7007
 4167TIP3   OH233915   4.103   1.405  10.888 -0.2159  0.1167 -0.1336
 4167TIP3    H133916   4.138   1.405  10.799  0.2209  1.6367  0.0084
 4167TIP3    H233917   4.145   1.331  10.931  0.9531  0.4374 -0.7001
 4168TIP3   OH233918   6.738   4.161  13.958 -0.4614 -0.6573 -0.4157
 4168TIP3    H133919   6.677   4.233  13.942  1.0414  1.1002  1.5738
 4168TIP3    H233920   6.704   4.117  14.036  1.0164  0.6291  0.9997
 4169TIP3   OH233921   6.428   5.406  12.815 -0.6103 -0.6150 -0.5771
 4169TIP3    H133922   6.481   5.443  12.886 -0.1353 -0.5743 -0.9521
 4169TIP3    H233923   6.338   5.426  12.840 -0.3914  0.2467 -0.4632
 4170TIP3   OH233924   5.499   1.646  14.213  0.4103  0.2359 -0.3006
 4170TIP3    H133925   5.593   1.663  14.201  0.0851 -0.1309 -3.9713
 4170TIP3    H233926   5.460   1.733  14.221  0.9259  0.4355  0.0932
 4171TIP3   OH233927   6.064   6.523   5.895 -0.3240 -0.4122  0.0287
 4171TIP3    H133928   6.023   6.503   5.811  1.2838 -0.9168 -0.6542
 4171TIP3    H233929   6.002   6.581   5.939 -1.7007 -1.0494 -1.0291
 4172TIP3   OH233930   4.812   5.308  11.878  0.1026 -0.1892  0.4519
 4172TIP3    H133931   4.750   5.298  11.805  0.4953 -2.2795  0.3675
 4172TIP3    H233932   4.792   5.235  11.936  0.6682  0.7199  1.8027
 4173TIP3   OH233933   6.443   4.187   5.989 -0.6191  0.2775 -0.5461
 4173TIP3    H133934   6.387   4.264   5.989  0.0825  0.8758  2.9937
 4173TIP3    H233935   6.400   4.125   6.048  0.6613 -0.6176 -0.5154
 4174TIP3   OH233936   1.648   5.750  14.564 -0.0377  0.3397  0.7574
 4174TIP3    H133937   1.687   5.771  14.649  1.3548  2.7165 -0.3973
 4174TIP3    H233938   1.720   5.710  14.515 -0.1871  1.0071 -0.0218
 4175TIP3   OH233939   1.641   2.160  14.473 -0.1801 -0.2846 -0.0207
 4175TIP3    H133940   1.609   2.243  14.438  2.0268  1.5325  2.1688
 4175TIP3    H233941   1.733   2.157  14.447  0.0217 -1.5647  0.8187
 4176TIP3   OH233942   5.753   3.770   4.719 -0.3979 -0.0941  1.0705
 4176TIP3    H133943   5.842   3.743   4.743 -0.5298 -0.2821  1.3411
 4176TIP3    H233944   5.717   3.695   4.673 -0.2962  0.1085  0.6612
 4177TIP3   OH233945   1.235   1.708   5.838 -0.1645  0.2565  0.0931
 4177TIP3    H133946   1.191   1.636   5.792 -0.5281 -0.2079  1.1528
 4177TIP3    H233947   1.236   1.680   5.930 -0.8727  1.8750  0.6129
 4178TIP3   OH233948   2.155   3.691  11.887 -0.8419  0.7151 -0.2017
 4178TIP3    H133949   2.165   3.728  11.974  0.7084 -0.3249  0.0832
 4178TIP3    H233950   2.244   3.684  11.854 -1.1867 -1.7212 -0.6813
 4179TIP3   OH233951   6.566   2.169  14.633 -0.4821 -0.1748 -0.0524
 4179TIP3    H133952   6.559   2.085  14.678 -0.8686 -0.0048  0.2122
 4179TIP3    H233953   6.497   2.166  14.567  2.1853 -1.7578 -2.8586
 4180TIP3   OH233954   4.641   2.646  16.865 -0.3721  1.0788 -0.7325
 4180TIP3    H133955   4.566   2.588  16.873  0.2720  0.1295 -1.4963
 4180TIP3    H233956   4.631   2.708  16.938 -0.3512 -0.8245  0.9499
 4181TIP3   OH233957   1.025   5.105  11.917  0.1736 -0.1987 -0.4423
 4181TIP3    H133958   1.011   5.124  12.010 -0.3021 -1.0977 -0.3252
 4181TIP3    H233959   1.115   5.133  11.900 -0.3327  1.6522 -0.1508
 4182TIP3   OH233960   3.110   1.143   5.135 -0.3046  0.9056  0.0636
 4182TIP3    H133961   3.113   1.140   5.231  1.6153 -0.0327 -0.0116
 4182TIP3    H233962   3.089   1.234   5.115 -1.1301  1.0218  1.3740
 4183TIP3   OH233963   4.016   1.637  15.806  0.1793  0.5962 -0.6106
 4183TIP3    H133964   3.945   1.580  15.836  0.7046  0.2749  0.0518
 4183TIP3    H233965   4.030   1.612  15.715  1.4696 -1.4702  0.1096
 4184TIP3   OH233966   5.185   1.899  14.648 -0.6902 -0.7909 -0.2414
 4184TIP3    H133967   5.161   1.956  14.575  1.8432 -1.8994 -1.9962
 4184TIP3    H233968   5.135   1.819  14.634 -2.2851  0.0017  0.7949
 4185TIP3   OH233969   5.482   1.050  12.439 -0.8959 -0.1308 -0.0584
 4185TIP3    H133970   5.504   1.084  12.526  0.8229  0.9492 -0.8888
 4185TIP3    H233971   5.389   1.071  12.428 -0.7223  1.1807  0.8690
 4186TIP3   OH233972   4.043   2.550  10.832 -0.9714 -0.3442 -0.9602
 4186TIP3    H133973   3.978   2.565  10.763 -2.2460  0.4937  0.4044
 4186TIP3    H233974   4.115   2.610  10.811 -0.9184 -0.7800 -2.0851
 4187TIP3   OH233975   3.911   4.052   2.444  0.1692 -0.0250  0.0798
 4187TIP3    H133976   3.996   4.066   2.403 -0.7349  2.2855 -1.0777
 4187TIP3    H233977   3.899   4.128   2.501 -1.6562  0.2924 -0.7124
 4188TIP3   OH233978   0.859   3.710   3.350  0.1810 -0.5854 -0.1514
 4188TIP3    H133979   0.833   3.774   3.416  1.0649  0.2889 -0.6428
 4188TIP3    H233980   0.782   3.655   3.337 -1.1177  1.4179 -0.9520
 4189TIP3   OH233981   3.202   4.007   0.557  0.3646 -0.1983  0.1226
 4189TIP3    H133982   3.223   3.914   0.549 -0.4956 -0.4169  0.3259
 4189TIP3    H233983   3.118   4.009   0.602 -0.7546  0.5932 -1.9255
 4190TIP3   OH233984   1.141   4.470   4.469 -0.2679 -0.5361 -0.5753
 4190TIP3    H133985   1.205   4.488   4.538 -1.3902  1.5538 -0.0363
 4190TIP3    H233986   1.186   4.495   4.388 -1.2117  3.4745  0.0183
 4191TIP3   OH233987   1.024   6.722  11.409 -0.7346 -0.1251  0.3221
 4191TIP3    H133988   1.005   6.763  11.494  1.2361 -2.4786  1.9398
 4191TIP3    H233989   0.940   6.725  11.363 -2.1224  0.2220  2.7565
 4192TIP3   OH233990   4.494   3.613   4.468  0.0528  0.2022  0.9412
 4192TIP3    H133991   4.491   3.694   4.519  0.4590  0.7456  0.1194
 4192TIP3    H233992   4.403   3.595   4.446 -0.0796  0.2052  1.4899
 4193TIP3   OH233993   4.872   2.344  12.562 -0.4572 -0.0873  0.2340
 4193TIP3    H133994   4.789   2.386  12.584 -1.1753 -1.1146 -0.5162
 4193TIP3    H233995   4.882   2.357  12.468  0.3856  0.2954  0.3700
 4194TIP3   OH233996   2.411   4.447  14.868 -0.3493 -0.1883  0.0775
 4194TIP3    H133997   2.375   4.521  14.819  0.1595 -0.1715 -0.2712
 4194TIP3    H233998   2.335   4.389  14.882 -0.5841  0.0109 -0.3586
 4195TIP3   OH233999   2.825   1.440   1.392  0.1614 -0.6479  0.3769
 4195TIP3    H134000   2.741   1.397   1.380 -0.0266 -0.2119  0.1309
 4195TIP3    H234001   2.803   1.528   1.421  0.5528 -0.8751  1.4001
 4196TIP3   OH234002   4.306   4.257   4.400 -0.0870  0.2336  0.4111
 4196TIP3    H134003   4.398   4.239   4.381  0.1313  0.7165  1.0270
 4196TIP3    H234004   4.263   4.247   4.315  0.0763 -2.7810  0.6063
 4197TIP3   OH234005   3.110   1.171   4.285  0.0532 -0.3369 -0.5157
 4197TIP3    H134006   3.037   1.132   4.333  1.0442  0.4288  1.6981
 4197TIP3    H234007   3.076   1.257   4.257  0.1463  0.1245  0.7256
 4198TIP3   OH234008   1.468   3.093  15.437 -0.4470  0.1094 -0.1366
 4198TIP3    H134009   1.533   3.024  15.428  0.7009  1.0322  0.8838
 4198TIP3    H234010   1.407   3.060  15.503  1.0572  0.7859  1.5985
 4199TIP3   OH234011   0.442   3.585   4.677 -0.2328 -0.1086 -0.6997
 4199TIP3    H134012   0.358   3.543   4.699 -0.3984 -0.1503 -1.4142
 4199TIP3    H234013   0.506   3.536   4.728 -0.4326 -1.2135 -1.4911
 4200TIP3   OH234014   3.453   3.111  11.930 -0.2748  0.6217  0.5017
 4200TIP3    H134015   3.494   3.087  12.013 -0.1327  0.6375  0.4385
 4200TIP3    H234016   3.504   3.064  11.864  0.3611  1.5313  0.3357
 4201TIP3   OH234017   6.091   1.811   0.189 -0.7171  0.1059 -0.0864
 4201TIP3    H134018   6.056   1.767   0.112 -2.4496 -0.1188  0.8154
 4201TIP3    H234019   6.080   1.905   0.171  0.6423  0.1195 -0.9133
 4202TIP3   OH234020   0.660   5.837  11.968  0.2067 -0.5472 -0.3835
 4202TIP3    H134021   0.730   5.842  12.033  0.2065  1.4155 -0.5013
 4202TIP3    H234022   0.701   5.869  11.887 -0.4109 -0.8277 -0.8133
 4203TIP3   OH234023   1.328   6.055  16.411 -0.6578  0.2288 -0.4252
 4203TIP3    H134024   1.337   6.117  16.339  2.7975  0.2755 -0.0036
 4203TIP3    H234025   1.346   6.106  16.489  0.8966 -0.9689  0.0270
 4204TIP3   OH234026   4.842   5.211  13.934 -0.5489 -0.0321  0.0920
 4204TIP3    H134027   4.810   5.227  14.023 -0.4059 -0.9456  0.3058
 4204TIP3    H234028   4.763   5.214  13.880 -0.6257  0.6209  0.2257
 4205TIP3   OH234029   5.062   0.700   0.686  0.0982  0.1694 -0.2259
 4205TIP3    H134030   5.061   0.624   0.744  2.8343  0.6261  0.4625
 4205TIP3    H234031   5.132   0.683   0.624 -1.3334  0.7240 -2.0468
 4206TIP3   OH234032   3.135   4.934   1.421  0.1199 -0.1854 -0.1985
 4206TIP3    H134033   3.150   4.901   1.510 -0.0761  0.5260  0.0981
 4206TIP3    H234034   3.148   4.857   1.365  0.8437 -0.4977  0.3904
 4207TIP3   OH234035   5.307   1.127  16.249  0.2323 -0.9707 -0.2437
 4207TIP3    H134036   5.286   1.100  16.159 -2.7023 -1.2446  0.4854
 4207TIP3    H234037   5.304   1.045  16.299  1.2607 -0.7226  0.2375
 4208TIP3   OH234038   3.840   4.009   4.182  0.0421 -0.6264  0.3702
 4208TIP3    H134039   3.777   3.994   4.253  0.2809  0.0772  0.7366
 4208TIP3    H234040   3.791   4.056   4.115  0.1077 -0.2868  0.5560
 4209TIP3   OH234041   0.582   0.336  12.968 -0.0797  0.2198  0.0563
 4209TIP3    H134042   0.626   0.389  12.901  1.3161 -0.5919  0.3173
 4209TIP3    H234043   0.638   0.344  13.045 -0.6556 -0.4356  0.5441
 4210TIP3   OH234044   4.860   4.844  15.606  0.2044  0.2523  0.1628
 4210TIP3    H134045   4.924   4.824  15.536  0.4235  0.8546  0.1942
 4210TIP3    H234046   4.914   4.869  15.681 -0.1012  2.2379 -0.2559
 4211TIP3   OH234047   0.017   4.779   3.629 -0.1947 -0.4344 -0.1019
 4211TIP3    H134048   0.023   4.817   3.717  1.7890  0.1175 -0.4671
 4211TIP3    H234049   0.042   4.688   3.640  1.1590 -0.0864 -0.2834
 4212TIP3   OH234050   1.503   4.694   4.325  0.5672 -0.8643 -0.2419
 4212TIP3    H134051   1.534   4.772   4.371 -1.3001 -2.0483  3.2116
 4212TIP3    H234052   1.555   4.623   4.363 -0.6539 -1.8051 -0.3245
 4213TIP3   OH234053   3.310   1.782  15.773  0.1961 -0.3041  0.1332
 4213TIP3    H134054   3.282   1.859  15.723  4.5555  2.5750  1.8160
 4213TIP3    H234055   3.377   1.741  15.719 -0.1710 -1.3862  0.4818
 4214TIP3   OH234056   2.365   1.330   0.352 -0.0313 -0.1007  0.2626
 4214TIP3    H134057   2.439   1.390   0.359 -1.4824  1.7371  0.0971
 4214TIP3    H234058   2.343   1.330   0.259 -0.8867  0.1702  0.4612
 4215TIP3   OH234059   1.344   0.306  12.741  0.2324 -0.3728 -1.0276
 4215TIP3    H134060   1.384   0.237  12.688 -0.2296 -0.3324 -1.4384
 4215TIP3    H234061   1.386   0.298  12.827  2.0825  0.5182 -1.8153
 4216TIP3   OH234062   1.909   3.500   3.170 -0.1210 -0.5736 -0.6597
 4216TIP3    H134063   1.919   3.559   3.095 -2.2109 -1.3456 -1.5688
 4216TIP3    H234064   1.998   3.486   3.202  0.6040  1.2894 -1.8150
 4217TIP3   OH234065   6.464   5.018   2.851  0.0757 -0.3177  0.2813
 4217TIP3    H134066   6.535   4.978   2.801  0.2178 -1.5015  1.4148
 4217TIP3    H234067   6.478   5.112   2.841  1.6153 -0.5355  0.2293
 4218TIP3   OH234068   0.948   2.157   6.149 -0.2831 -0.0131 -0.1609
 4218TIP3    H134069   0.910   2.081   6.104 -1.3882 -0.3216  1.2643
 4218TIP3    H234070   0.873   2.209   6.176  0.2568 -0.5312  2.5202
 4219TIP3   OH234071   4.299   5.200  12.030  0.6288 -0.4825 -0.2584
 4219TIP3    H134072   4.340   5.126  11.987  0.3996 -0.2549 -0.8811
 4219TIP3    H234073   4.326   5.194  12.121  1.7090 -0.5649 -0.5796
 4220TIP3   OH234074   2.763   3.571   0.169  0.3252 -0.0335 -0.0139
 4220TIP3    H134075   2.754   3.522   0.088  1.0188 -0.9540  0.4533
 4220TIP3    H234076   2.746   3.662   0.145 -0.7618 -0.4701 -0.9307
 4221TIP3   OH234077   2.981   2.114   1.388  0.1090 -0.3877  0.2478
 4221TIP3    H134078   2.910   2.054   1.409 -1.3419  0.6301 -1.6065
 4221TIP3    H234079   2.966   2.139   1.296  0.7239  2.6951  0.9142
 4222TIP3   OH234080   5.026   3.370  14.151 -0.0903  0.0437  0.3612
 4222TIP3    H134081   4.984   3.287  14.172 -1.0565  0.4924  0.2014
 4222TIP3    H234082   4.973   3.437  14.195  0.9430  0.5453  0.8693
 4223TIP3   OH234083   5.303   0.922  10.823  0.1104  0.3520 -0.3516
 4223TIP3    H134084   5.386   0.953  10.858  0.5069  1.1271 -1.9473
 4223TIP3    H234085   5.323   0.893  10.734 -1.0849 -0.6292 -0.3218
 4224TIP3   OH234086   0.296   4.958  12.546  0.0132  1.1144  0.4464
 4224TIP3    H134087   0.242   4.908  12.485  0.7277  0.0104  0.6955
 4224TIP3    H234088   0.241   5.032  12.572 -1.4343 -0.0589  0.8112
 4225TIP3   OH234089   2.542   0.669   3.439  0.3949 -0.1215  0.6642
 4225TIP3    H134090   2.459   0.716   3.434  1.1769  1.3514  1.0240
 4225TIP3    H234091   2.519   0.582   3.469 -0.9966  0.3560  1.0241
 4226TIP3   OH234092   4.683   4.437   4.445  0.6995 -0.3218  0.5071
 4226TIP3    H134093   4.662   4.507   4.507 -0.4799  0.1993 -0.4557
 4226TIP3    H234094   4.758   4.469   4.396 -0.3653  0.6566 -0.5106
 4227TIP3   OH234095   3.090   6.431   0.278 -0.0508 -0.1504  0.2258
 4227TIP3    H134096   3.148   6.506   0.280  0.0537 -0.2361  0.5094
 4227TIP3    H234097   3.007   6.465   0.246 -0.8344  0.6926  2.9769
 4228TIP3   OH234098   4.628   1.248   1.222 -0.8695  0.6886 -0.6823
 4228TIP3    H134099   4.682   1.169   1.221 -0.0192  1.2229  0.7646
 4228TIP3    H234100   4.559   1.232   1.158 -1.0490 -1.4668  0.0350
 4229TIP3   OH234101   6.703   2.375  13.471 -1.0507 -0.0818  0.2429
 4229TIP3    H134102   6.771   2.317  13.436 -0.4489 -0.0812  1.4073
 4229TIP3    H234103   6.660   2.410  13.393 -0.2777 -0.7441 -0.4931
 4230TIP3   OH234104   4.243   6.016   5.480 -0.0231  0.0495  0.2281
 4230TIP3    H134105   4.247   5.923   5.457  0.7824  0.1801 -0.1623
 4230TIP3    H234106   4.211   6.059   5.401 -0.8796  0.0489  0.5695
 4231TIP3   OH234107   1.196   4.180  12.951 -0.6023  0.1955 -0.1583
 4231TIP3    H134108   1.232   4.181  13.040 -1.1227  2.5273  0.0476
 4231TIP3    H234109   1.268   4.211  12.897 -0.0969 -1.7901 -0.6377
 4232TIP3   OH234110   4.741   2.157   3.777 -0.3990 -0.2677 -0.0576
 4232TIP3    H134111   4.656   2.175   3.816 -0.2140  1.7792 -0.5447
 4232TIP3    H234112   4.732   2.070   3.738 -1.5979 -0.9490  1.7098
 4233TIP3   OH234113   5.499   3.914  11.036  0.4800  0.2087 -0.2079
 4233TIP3    H134114   5.483   3.888  11.127 -1.0374  0.2716 -0.4340
 4233TIP3    H234115   5.521   3.833  10.991 -0.6997 -0.1493 -0.1715
 4234TIP3   OH234116   3.948   6.086   3.738 -0.5314 -0.2448 -0.0583
 4234TIP3    H134117   3.884   6.128   3.681 -2.0256 -1.1163  0.9250
 4234TIP3    H234118   3.968   6.003   3.694 -0.6579 -0.3123  0.0111
 4235TIP3   OH234119   2.830   2.030  11.913 -0.2897 -0.2764  0.2058
 4235TIP3    H134120   2.877   2.010  11.994 -0.6407  0.7608  0.6721
 4235TIP3    H234121   2.747   1.982  11.921  0.0072 -0.8177  0.0948
 4236TIP3   OH234122   6.084   0.168  16.218 -0.2997 -0.0026  0.0496
 4236TIP3    H134123   5.997   0.171  16.179  0.3211 -0.2576 -1.3834
 4236TIP3    H234124   6.082   0.235  16.286 -1.6249 -0.0251  0.0459
 4237TIP3   OH234125   4.023   0.231   0.615  0.4826 -0.2998 -0.3883
 4237TIP3    H134126   4.086   0.229   0.543  0.6993  0.8369 -0.2397
 4237TIP3    H234127   3.979   0.316   0.607 -0.2148 -0.6000  0.1961
 4238TIP3   OH234128   6.626   4.074  12.062 -0.3062  0.0628  0.7317
 4238TIP3    H134129   6.638   4.066  11.967 -2.7297 -0.8949  0.4716
 4238TIP3    H234130   6.713   4.096  12.095  0.6001  0.3070 -1.7002
 4239TIP3   OH234131   6.256   5.033   2.243 -0.0320 -0.0608  0.1741
 4239TIP3    H134132   6.198   4.963   2.273  1.2315 -2.1123 -2.0024
 4239TIP3    H234133   6.198   5.095   2.199 -0.8684 -0.8912  0.0885
 4240TIP3   OH234134   1.336   2.950   5.213 -0.8047 -0.0157 -0.1262
 4240TIP3    H134135   1.362   2.889   5.144 -2.1867 -0.7626 -0.0036
 4240TIP3    H234136   1.338   3.036   5.171 -0.1634 -0.2978 -0.6777
 4241TIP3   OH234137   2.635   5.504  14.875  0.2818  0.3413  0.1606
 4241TIP3    H134138   2.638   5.514  14.780  0.2864  0.2718  0.1522
 4241TIP3    H234139   2.559   5.555  14.903  0.5113  0.6803  0.1636
 4242TIP3   OH234140   4.381   4.672  14.676 -0.3377  0.3255  0.5863
 4242TIP3    H134141   4.405   4.727  14.750  1.0885  0.7204 -0.1446
 4242TIP3    H234142   4.405   4.583  14.702 -1.1935  0.2636  1.1632
 4243TIP3   OH234143   5.982   5.163   6.502  0.2423  0.2747 -0.2884
 4243TIP3    H134144   6.010   5.239   6.552 -2.3559  0.7783  0.4745
 4243TIP3    H234145   5.922   5.117   6.560 -0.5052 -0.7558 -1.8439
 4244TIP3   OH234146   5.214   6.675   0.029  0.0464  0.0659  0.2931
 4244TIP3    H134147   5.189   6.608  -0.034  1.3842  0.5237 -0.7466
 4244TIP3    H234148   5.282   6.633   0.083  1.9090  0.9850 -1.2596
 4245TIP3   OH234149   6.391   4.826   0.342  0.0949  0.1706  0.0503
 4245TIP3    H134150   6.432   4.842   0.427 -0.4732  1.0144  0.1765
 4245TIP3    H234151   6.438   4.751   0.306 -1.1868 -1.6770  2.1100
 4246TIP3   OH234152   3.415   1.018  16.146  0.4115 -0.1513  0.2759
 4246TIP3    H134153   3.413   1.097  16.201  0.1973 -0.1470  0.2618
 4246TIP3    H234154   3.460   0.953  16.200 -0.0623 -0.2347  0.5746
 4247TIP3   OH234155   2.802   0.841   1.605  0.1453  0.8403  0.3734
 4247TIP3    H134156   2.739   0.841   1.678 -0.8711  1.1737 -0.4854
 4247TIP3    H234157   2.801   0.931   1.573  0.8641  0.7794  0.1878
 4248TIP3   OH234158   1.699   3.504  14.332 -0.1394  0.2810 -0.3800
 4248TIP3    H134159   1.643   3.441  14.287 -2.6220  1.3935  1.0273
 4248TIP3    H234160   1.666   3.590  14.304  0.6425  0.9685  0.7347
 4249TIP3   OH234161   1.352   0.568   4.951 -0.0235 -0.2309  0.0488
 4249TIP3    H134162   1.337   0.658   4.979  0.8518 -0.6113  1.8155
 4249TIP3    H234163   1.428   0.573   4.894  0.7329  0.0160  1.0607
 4250TIP3   OH234164   3.987   6.431   2.283 -0.1793 -0.0352  0.1078
 4250TIP3    H134165   3.953   6.411   2.370 -0.6724 -1.3678 -0.3747
 4250TIP3    H234166   4.042   6.356   2.261 -0.5548  0.0041 -0.9853
 4251TIP3   OH234167   0.903   3.423   2.000  0.7070  0.0066  0.7899
 4251TIP3    H134168   0.945   3.504   1.971  0.7367  0.3078  1.6555
 4251TIP3    H234169   0.809   3.442   1.993  0.7120  0.0056  0.7123
 4252TIP3   OH234170   3.865   5.956  16.925  0.0576 -0.4717  0.2708
 4252TIP3    H134171   3.893   6.044  16.952  0.7734 -0.2120 -1.2878
 4252TIP3    H234172   3.939   5.900  16.949 -0.3412 -0.6369  1.1340
 4253TIP3   OH234173   3.428   6.488  11.018 -0.1955  0.6068 -0.1108
 4253TIP3    H134174   3.517   6.453  11.009 -1.1423 -2.1865  0.8390
 4253TIP3    H234175   3.374   6.428  10.966 -1.9046  0.5933  1.6388
 4254TIP3   OH234176   4.753   2.375   0.397 -0.1068  0.0763 -0.6747
 4254TIP3    H134177   4.718   2.288   0.417 -1.8160  0.9152  0.1715
 4254TIP3    H234178   4.675   2.431   0.394  0.6555  1.0278 -4.3095
 4255TIP3   OH234179   0.056   2.390   0.644  0.0405  0.0271 -0.2257
 4255TIP3    H134180   0.025   2.315   0.694  0.2022  0.4272  0.4890
 4255TIP3    H234181   0.078   2.455   0.711 -0.9787  1.0526 -0.8686
 4256TIP3   OH234182   4.643   2.557  15.542  0.5752 -0.5331  0.0098
 4256TIP3    H134183   4.602   2.641  15.520  1.9395  0.0571 -0.3309
 4256TIP3    H234184   4.672   2.522  15.457  0.9566 -0.8365  0.2632
 4257TIP3   OH234185   6.045   5.375  11.378  0.1459 -0.1611 -0.5812
 4257TIP3    H134186   5.987   5.299  11.378 -0.2949  0.1399  1.6456
 4257TIP3    H234187   5.987   5.450  11.377  0.5043  0.1450  0.8237
 4258TIP3   OH234188   5.206   1.541  13.558  0.0048  0.3448 -0.2283
 4258TIP3    H134189   5.243   1.457  13.582 -2.4841 -0.4200  1.1053
 4258TIP3    H234190   5.190   1.535  13.464 -0.1458 -0.6640 -0.1394
 4259TIP3   OH234191   5.772   2.939   1.661 -0.6973 -0.0286 -0.5361
 4259TIP3    H134192   5.788   2.910   1.750  0.4610 -1.4992 -1.2016
 4259TIP3    H234193   5.722   2.868   1.621 -1.8962  0.9748 -0.8301
 4260TIP3   OH234194   4.258   0.126   5.156  0.3217  0.2390  0.0900
 4260TIP3    H134195   4.167   0.105   5.135  0.1561  0.2782  0.7773
 4260TIP3    H234196   4.252   0.198   5.219  0.7999 -0.7721  1.2839
 4261TIP3   OH234197   0.467   6.060  17.211  0.0064 -0.1813  0.2367
 4261TIP3    H134198   0.551   6.103  17.229  1.0465 -1.4796 -1.3454
 4261TIP3    H234199   0.410   6.131  17.180  0.2254  0.8642  2.1332
 4262TIP3   OH234200   3.002   6.294   4.380  0.0976  0.0467 -0.4376
 4262TIP3    H134201   3.097   6.305   4.372  0.4231 -2.1761  0.0059
 4262TIP3    H234202   2.971   6.290   4.289  0.7606 -1.5339 -0.6271
 4263TIP3   OH234203   5.985   6.640   5.163 -0.4015 -0.9211  0.5005
 4263TIP3    H134204   6.018   6.583   5.094  1.2088 -0.0362  0.5052
 4263TIP3    H234205   5.890   6.642   5.150 -0.5859 -4.2157  1.0178
 4264TIP3   OH234206   5.507   5.528  13.130  0.5025  0.2073 -0.0779
 4264TIP3    H134207   5.425   5.543  13.178  0.5028 -0.1945  0.0472
 4264TIP3    H234208   5.563   5.602  13.156  0.9048 -0.6055  1.4355
 4265TIP3   OH234209   4.625   1.651   2.802  0.1259 -0.0098 -0.6168
 4265TIP3    H134210   4.707   1.688   2.835  0.5089 -0.7098 -0.7742
 4265TIP3    H234211   4.617   1.567   2.848  0.3812 -0.7418 -1.8889
 4266TIP3   OH234212   0.394   4.459   1.556  0.2989 -0.2167  0.0017
 4266TIP3    H134213   0.403   4.440   1.462 -1.3896 -1.0595 -0.0023
 4266TIP3    H234214   0.477   4.502   1.579  0.4851  0.5966 -2.0122
 4267TIP3   OH234215   3.033   1.677   4.215  0.2273 -0.0114 -0.0764
 4267TIP3    H134216   3.047   1.728   4.294  0.4253  0.4312 -0.3997
 4267TIP3    H234217   3.090   1.600   4.226 -1.5499 -1.1850  1.3276
 4268TIP3   OH234218   2.661   6.703   6.158 -0.3321  0.1491 -0.6166
 4268TIP3    H134219   2.604   6.645   6.208 -0.7901 -0.4590 -1.8289
 4268TIP3    H234220   2.739   6.713   6.213 -1.1807  0.1777  0.5943
 4269TIP3   OH234221   2.628   4.436  15.524 -0.2518 -0.7604  0.4014
 4269TIP3    H134222   2.558   4.410  15.464 -1.0784 -0.8728  1.3986
 4269TIP3    H234223   2.605   4.393  15.607  0.5048 -0.0465  0.9824
 4270TIP3   OH234224   6.767   0.773  16.637 -0.1258  0.1290  0.0417
 4270TIP3    H134225   6.722   0.742  16.716 -0.8786  0.9199 -0.0665
 4270TIP3    H234226   6.697   0.790  16.575  0.4001  0.4041 -0.4798
 4271TIP3   OH234227   1.164   3.470  12.507  0.7904  0.4900 -0.3498
 4271TIP3    H134228   1.208   3.399  12.554 -0.0491  1.2216  1.5774
 4271TIP3    H234229   1.235   3.525  12.474  1.4127 -0.6326 -0.9096
 4272TIP3   OH234230   2.718   3.675   2.384 -0.1533 -0.6041 -0.3250
 4272TIP3    H134231   2.809   3.679   2.412 -0.2211 -0.6375 -0.0977
 4272TIP3    H234232   2.722   3.664   2.289  0.0691  0.2838 -0.4194
 4273TIP3   OH234233   5.645   1.092   4.953  0.1837 -0.1140  0.0066
 4273TIP3    H134234   5.714   1.114   5.016  1.3577 -1.4921 -0.7668
 4273TIP3    H234235   5.624   1.000   4.973  0.3886 -0.4808 -1.4192
 4274TIP3   OH234236   6.474   1.165   3.904  0.2564 -0.4160  0.3370
 4274TIP3    H134237   6.408   1.120   3.958 -1.4526 -0.7769 -2.0045
 4274TIP3    H234238   6.527   1.094   3.867  0.1210 -0.2666 -0.1362
 4275TIP3   OH234239   3.051   3.960   4.430 -0.0561  0.4180  0.1161
 4275TIP3    H134240   3.075   3.920   4.513 -0.1678 -0.7475 -0.4039
 4275TIP3    H234241   3.034   4.052   4.452 -0.4897  0.0368  1.4518
 4276TIP3   OH234242   5.202   0.178   3.239  0.0546 -0.5166 -0.4453
 4276TIP3    H134243   5.107   0.181   3.247  0.1431  1.3104  0.1707
 4276TIP3    H234244   5.218   0.154   3.147 -0.9812 -0.4749 -0.6394
 4277TIP3   OH234245   5.828   2.556   2.509  0.4115  0.0156 -1.1375
 4277TIP3    H134246   5.745   2.559   2.556  1.9390 -0.1379  1.6746
 4277TIP3    H234247   5.833   2.640   2.464 -0.1716  1.0387  0.6538
 4278TIP3   OH234248   2.005   5.772   2.148 -0.6435  0.0270  0.2046
 4278TIP3    H134249   2.015   5.798   2.239 -2.2033 -2.2017  1.0587
 4278TIP3    H234250   1.952   5.841   2.108  1.7235  2.0434  0.4372
 4279TIP3   OH234251   1.572   1.863   5.421 -0.6828  0.3046  0.0929
 4279TIP3    H134252   1.507   1.905   5.364 -2.2685 -1.0787  0.8105
 4279TIP3    H234253   1.615   1.799   5.364  1.1168  2.2017 -0.7658
 4280TIP3   OH234254   1.423   1.876  12.856  0.1674 -0.1954  0.5239
 4280TIP3    H134255   1.492   1.931  12.818  0.6401 -0.2413  1.3093
 4280TIP3    H234256   1.382   1.833  12.781  0.9702 -0.1392  0.0504
 4281TIP3   OH234257   1.811   0.611  13.534  0.0733 -0.3257  0.6796
 4281TIP3    H134258   1.749   0.538  13.537  0.0259 -0.2663  1.1562
 4281TIP3    H234259   1.757   0.689  13.546  0.1222 -0.2058  0.1576
 4282TIP3   OH234260   0.370   1.555  13.735  0.2329  0.6420  0.7112
 4282TIP3    H134261   0.368   1.462  13.758 -0.3183  0.1304 -1.3232
 4282TIP3    H234262   0.305   1.595  13.793 -3.0398 -1.0559 -1.6093
 4283TIP3   OH234263   0.042   2.866  11.397  0.0251 -0.1867  0.2459
 4283TIP3    H134264   0.127   2.891  11.434  0.2572  0.4660 -0.7330
 4283TIP3    H234265   0.045   2.895  11.306 -0.9976 -0.7507  0.0213
 4284TIP3   OH234266   3.894   3.135  13.796  0.1063  0.4813 -0.5246
 4284TIP3    H134267   3.893   3.214  13.742 -0.5990 -0.0611 -1.3357
 4284TIP3    H234268   3.979   3.094  13.777 -0.3899 -0.0287 -1.7350
 4285TIP3   OH234269   2.684   4.432   2.023 -0.7378 -0.0867 -0.6038
 4285TIP3    H134270   2.591   4.420   2.001 -0.6375 -0.0406 -1.0647
 4285TIP3    H234271   2.709   4.511   1.976  0.0425 -1.1867 -2.0857
 4286TIP3   OH234272   2.977   5.909  14.391  0.0881 -0.1081 -0.0922
 4286TIP3    H134273   2.890   5.931  14.427 -0.3632 -0.3257 -1.0353
 4286TIP3    H234274   3.028   5.988  14.402 -0.8473  0.7051 -1.3780
 4287TIP3   OH234275   5.488   0.148  13.837 -0.3479 -0.3577  0.2611
 4287TIP3    H134276   5.437   0.096  13.775  0.0786 -0.2119 -0.2119
 4287TIP3    H234277   5.426   0.167  13.908 -1.2826  0.7292 -0.8043
 4288TIP3   OH234278   4.969   1.321   3.388 -0.1607  0.5402  0.2388
 4288TIP3    H134279   4.912   1.291   3.458 -0.2983 -1.7091 -0.8136
 4288TIP3    H234280   5.041   1.366   3.433 -1.0802  0.5370  1.7201
 4289TIP3   OH234281   0.058   5.950   1.300  0.5131 -0.0603 -0.5782
 4289TIP3    H134282  -0.002   5.977   1.230 -0.2545  1.0060  0.4777
 4289TIP3    H234283   0.023   5.990   1.379  0.4948 -2.5027  0.7088
 4290TIP3   OH234284   6.463   5.199   1.170 -0.2801  0.9131 -0.2543
 4290TIP3    H134285   6.452   5.113   1.128 -0.7396  0.8233  0.0435
 4290TIP3    H234286   6.537   5.238   1.124 -1.4241  1.2565 -1.8581
 4291TIP3   OH234287   1.044   5.071   2.668 -0.7611  0.3118 -0.2924
 4291TIP3    H134288   0.989   5.037   2.597 -0.8810 -0.6253  0.2475
 4291TIP3    H234289   1.132   5.042   2.646 -0.9417 -0.8141  0.4462
 4292TIP3   OH234290   1.608   3.864   5.271  0.2015  0.5382 -0.5381
 4292TIP3    H134291   1.674   3.812   5.316  0.6199  0.8526 -0.7823
 4292TIP3    H234292   1.551   3.896   5.341 -0.0652 -0.2599 -0.3923
 4293TIP3   OH234293   5.602   2.254   5.642 -0.1103 -0.0695  0.3190
 4293TIP3    H134294   5.662   2.208   5.583  1.6758  0.2618  1.8458
 4293TIP3    H234295   5.576   2.332   5.592  0.7952 -0.1704 -0.3371
 4294TIP3   OH234296   4.951   3.425   5.736 -0.2799 -0.0334 -0.1678
 4294TIP3    H134297   4.868   3.383   5.760  1.0413 -1.4269  2.1564
 4294TIP3    H234298   4.969   3.486   5.807  2.5511 -2.5320  1.3460
 4295TIP3   OH234299   6.284   6.407  16.632  0.2481  0.1117  0.2269
 4295TIP3    H134300   6.287   6.432  16.540  0.4153 -2.1272 -0.3860
 4295TIP3    H234301   6.335   6.326  16.637 -2.3776 -1.4960  1.7232
 4296TIP3   OH234302   5.710   2.845   2.609 -0.1425  0.3851 -0.7148
 4296TIP3    H134303   5.639   2.879   2.663  1.4251  0.7158  1.2095
 4296TIP3    H234304   5.703   2.893   2.526 -0.3162  2.6181  0.5510
 4297TIP3   OH234305   4.256   4.050  10.930 -0.5512 -0.3376  0.4501
 4297TIP3    H134306   4.334   4.097  10.902 -1.8536  1.8210  0.2930
 4297TIP3    H234307   4.228   4.001  10.853 -0.1112 -0.0444  0.1045
 4298TIP3   OH234308   2.342   4.962  13.736  0.4402 -0.1693 -0.2097
 4298TIP3    H134309   2.289   4.885  13.754 -0.0610  0.5469  1.5404
 4298TIP3    H234310   2.279   5.033  13.723  0.8221  1.2475  4.4177
 4299TIP3   OH234311   1.562   6.432   5.094 -0.0178 -0.1446  0.2844
 4299TIP3    H134312   1.543   6.464   5.182  0.2249  0.7738  0.0182
 4299TIP3    H234313   1.568   6.512   5.041  0.2382 -0.6655 -0.4811
 4300TIP3   OH234314   2.963   3.649   3.584  0.1242 -0.1898 -0.1344
 4300TIP3    H134315   2.917   3.604   3.514  1.6578 -1.2959 -0.4705
 4300TIP3    H234316   2.919   3.734   3.592 -1.4666 -0.9289 -0.9159
 4301TIP3   OH234317   0.052   0.904  11.748 -0.3628  0.2475  0.0620
 4301TIP3    H134318   0.018   0.887  11.661  0.5820 -1.1234 -0.0518
 4301TIP3    H234319   0.147   0.910  11.736 -0.2038 -0.1870  1.0330
 4302TIP3   OH234320   6.718   3.313  11.606  0.0199  0.0575 -0.5926
 4302TIP3    H134321   6.678   3.342  11.524  1.7391  1.7794 -0.8705
 4302TIP3    H234322   6.651   3.329  11.672 -1.1534 -0.7447 -1.5571
 4303TIP3   OH234323   2.932   6.514  17.116 -0.1793  0.0332 -0.0329
 4303TIP3    H134324   2.922   6.429  17.158 -1.1285  0.1470 -0.0282
 4303TIP3    H234325   2.925   6.495  17.022 -0.9377  0.1850 -0.0071
 4304TIP3   OH234326   4.876   3.702  12.449  0.3825  0.4166  0.6924
 4304TIP3    H134327   4.867   3.612  12.416 -1.3718  0.7275  0.2980
 4304TIP3    H234328   4.963   3.729  12.420 -0.5716  0.1943 -2.5847
 4305TIP3   OH234329   5.313   5.197  15.500 -0.3009  0.2101 -0.0956
 4305TIP3    H134330   5.224   5.226  15.477 -0.0854  0.0506 -1.1507
 4305TIP3    H234331   5.314   5.104  15.477 -0.2781 -0.1099  1.1762
 4306TIP3   OH234332   5.839   0.177   0.552  0.3529  0.0012 -0.0029
 4306TIP3    H134333   5.877   0.092   0.572  0.0223  0.2243  1.5773
 4306TIP3    H234334   5.758   0.157   0.506  0.1441 -0.5275  0.6076
 4307TIP3   OH234335   6.112   1.243  13.603  0.2794 -0.0407 -0.2103
 4307TIP3    H134336   6.136   1.254  13.695 -0.5962  1.1147 -0.1062
 4307TIP3    H234337   6.180   1.289  13.555  0.8969 -0.8944 -0.1598
 4308TIP3   OH234338   3.928   0.937  14.825  0.0337  0.1845 -0.1550
 4308TIP3    H134339   3.862   0.986  14.776 -0.3555  0.3920  0.5660
 4308TIP3    H234340   4.011   0.978  14.802 -0.1161  0.1150 -0.8387
 4309TIP3   OH234341   3.003   2.527   5.569 -0.5037 -0.6283  0.6089
 4309TIP3    H134342   2.984   2.566   5.655  1.0177  2.7766 -0.5278
 4309TIP3    H234343   3.040   2.442   5.590  2.8808  1.4207  3.5325
 4310TIP3   OH234344   4.632   1.695  13.532 -0.6993  0.1714  0.0919
 4310TIP3    H134345   4.725   1.697  13.551 -0.8151  0.2719  0.6582
 4310TIP3    H234346   4.590   1.709  13.617 -1.2440 -0.8514 -0.0039
 4311TIP3   OH234347   0.475   0.492  11.278  0.4950 -0.8785  0.0166
 4311TIP3    H134348   0.491   0.584  11.259 -1.8938 -0.3873  0.1603
 4311TIP3    H234349   0.483   0.448  11.193  0.5382 -0.3545 -0.2521
 4312TIP3   OH234350   6.266   1.228  10.597  0.2027 -0.9897  0.7615
 4312TIP3    H134351   6.253   1.248  10.504  0.1203 -0.5962  0.8559
 4312TIP3    H234352   6.293   1.136  10.598  0.8292 -0.8189  0.2968
 4313TIP3   OH234353   0.094   0.027  12.565 -0.3793  0.0926  0.8036
 4313TIP3    H134354   0.005   0.048  12.596 -1.1122 -0.3621 -0.9187
 4313TIP3    H234355   0.098   0.065  12.477  1.1625  0.1433  0.8820
 4314TIP3   OH234356   3.226   2.378  15.283 -0.3395 -0.0765 -0.4796
 4314TIP3    H134357   3.284   2.429  15.340 -0.8082  0.8020 -0.7939
 4314TIP3    H234358   3.184   2.315  15.342  1.0699 -0.8686 -0.2733
 4315TIP3   OH234359   1.051   4.314   3.175 -0.0846  0.0406 -0.1230
 4315TIP3    H134360   1.011   4.312   3.262  0.0572 -0.5338 -0.0724
 4315TIP3    H234361   1.144   4.298   3.191  0.4734  3.0448 -0.0672
 4316TIP3   OH234362   0.403   5.768  11.293 -0.4389  0.2393  0.3055
 4316TIP3    H134363   0.476   5.711  11.268 -0.3975  1.1576 -1.8003
 4316TIP3    H234364   0.328   5.709  11.299 -0.1570 -0.2294 -0.6958
 4317TIP3   OH234365   1.933   2.092  12.959 -0.2411 -0.1847  0.2819
 4317TIP3    H134366   1.991   2.058  13.027 -0.2329 -0.7447 -0.0002
 4317TIP3    H234367   1.992   2.125  12.891 -0.2507 -0.5852  0.0772
 4318TIP3   OH234368   2.286   2.033   1.268  0.3077 -0.5993  0.6042
 4318TIP3    H134369   2.210   1.976   1.284  0.3570 -0.9401 -0.3286
 4318TIP3    H234370   2.251   2.122   1.276 -1.0584 -0.6684 -3.3465
 4319TIP3   OH234371   0.158   2.226   6.277  0.3362  0.2080  0.4434
 4319TIP3    H134372   0.204   2.172   6.341  0.4445  1.6505  1.6289
 4319TIP3    H234373   0.086   2.266   6.327 -1.7718 -1.4058 -1.1825
 4320TIP3   OH234374   5.812   5.630  17.098 -0.3589  0.1568 -0.2341
 4320TIP3    H134375   5.883   5.575  17.065  2.3409  2.1200  2.0515
 4320TIP3    H234376   5.803   5.700  17.033  0.4193  0.3961 -0.0838
 4321TIP3   OH234377   6.555   2.045   1.877  0.2813 -0.0477 -0.4311
 4321TIP3    H134378   6.618   1.978   1.904  1.1931  0.2521 -1.7647
 4321TIP3    H234379   6.608   2.121   1.856 -0.6919  0.8530  0.3392
 4322TIP3   OH234380   5.017   3.946   0.777 -0.0897  0.2532 -0.1635
 4322TIP3    H134381   4.944   3.922   0.719  0.4011  1.8236 -1.4613
 4322TIP3    H234382   5.082   3.877   0.762 -1.7014 -1.7749  1.8322
 4323TIP3   OH234383   5.278   1.924  10.508  0.0423 -0.2310  0.6804
 4323TIP3    H134384   5.214   1.991  10.533 -1.2765 -0.7232 -1.2578
 4323TIP3    H234385   5.226   1.845  10.491  1.0407 -0.4473 -1.6332
 4324TIP3   OH234386   5.878   6.213   5.171 -0.0430  0.1503  0.1268
 4324TIP3    H134387   5.813   6.180   5.233  0.6079 -1.0803  0.1832
 4324TIP3    H234388   5.830   6.272   5.114 -0.4973  2.0291  2.3430
 4325TIP3   OH234389   6.391   0.347   5.131 -0.1077 -0.1477  0.1970
 4325TIP3    H134390   6.362   0.273   5.186  0.9906 -0.5935  0.1888
 4325TIP3    H234391   6.462   0.387   5.180  1.0776 -0.7205 -1.0303
 4326TIP3   OH234392   5.733   6.503  11.236  0.5537 -0.0969 -0.0916
 4326TIP3    H134393   5.652   6.547  11.207  0.8991  0.4708 -0.2092
 4326TIP3    H234394   5.792   6.575  11.258  0.5146 -0.5161  1.4598
 4327TIP3   OH234395   4.061   5.546   4.862  0.0038  0.1180  0.5354
 4327TIP3    H134396   4.115   5.619   4.892 -0.6534  0.7363  0.2345
 4327TIP3    H234397   3.983   5.550   4.917 -0.7209  0.5852 -0.5223
 4328TIP3   OH234398   5.939   4.378  14.712  0.1563 -0.2648 -0.3725
 4328TIP3    H134399   5.982   4.293  14.723 -1.3623 -0.7941  2.0259
 4328TIP3    H234400   5.908   4.400  14.800 -1.0670  1.9143 -1.3121
 4329TIP3   OH234401   4.425   5.137  16.391 -0.4528  0.3478 -0.0414
 4329TIP3    H134402   4.374   5.133  16.310 -1.5886  0.1830  0.6652
 4329TIP3    H234403   4.490   5.205  16.375 -1.8573  1.6157 -0.4241
 4330TIP3   OH234404   1.760   4.579   1.875  0.9237 -0.2182 -0.0272
 4330TIP3    H134405   1.739   4.624   1.957 -2.2185 -0.2091 -0.7463
 4330TIP3    H234406   1.689   4.515   1.865  0.7482  0.3873 -3.1339
 4331TIP3   OH234407   4.880   0.994  13.153  0.8882  0.5779  0.5700
 4331TIP3    H134408   4.828   0.915  13.165  0.9622  0.2406 -1.2324
 4331TIP3    H234409   4.940   0.973  13.082  3.7014  0.8837  2.7786
 4332TIP3   OH234410   4.446   4.887   2.338 -0.0399 -0.2128  0.2027
 4332TIP3    H134411   4.486   4.956   2.284 -0.8393  0.1941  0.1118
 4332TIP3    H234412   4.363   4.926   2.367 -0.4086 -1.0737  0.3051
 4333TIP3   OH234413   5.018   0.882   3.350 -0.3056 -0.5247  0.1211
 4333TIP3    H134414   4.974   0.922   3.425 -2.1257 -1.2647 -0.5096
 4333TIP3    H234415   5.015   0.788   3.368  1.5361 -0.5621  0.3198
 4334TIP3   OH234416   1.871   1.397  11.292 -0.6038 -0.2902  0.1184
 4334TIP3    H134417   1.849   1.329  11.229 -0.7862 -0.0335 -0.0973
 4334TIP3    H234418   1.843   1.479  11.250  2.6243  0.2797 -1.1159
 4335TIP3   OH234419   4.543   2.243   1.800 -0.4847 -0.0876 -0.0952
 4335TIP3    H134420   4.512   2.298   1.729  0.0256  1.6317  0.9986
 4335TIP3    H234421   4.584   2.303   1.861  1.3657 -1.8567  0.4399
 4336TIP3   OH234422   0.847   4.264   5.048 -0.2582 -0.4206  0.5722
 4336TIP3    H134423   0.755   4.261   5.076 -0.7795  1.1205 -0.8765
 4336TIP3    H234424   0.880   4.346   5.083 -0.7293  1.2138 -2.6045
 4337TIP3   OH234425   1.365   3.961  13.843  0.3508  0.2091 -1.1999
 4337TIP3    H134426   1.319   3.983  13.763 -0.5023  0.3507 -0.6720
 4337TIP3    H234427   1.427   4.033  13.856 -1.2364  1.4454 -0.3925
 4338TIP3   OH234428   0.925   3.580  12.418 -0.0843 -0.1651 -0.2897
 4338TIP3    H134429   0.989   3.571  12.488 -0.5568  1.0498  0.3029
 4338TIP3    H234430   0.963   3.531  12.345  1.7727  0.9990 -0.1385
 4339TIP3   OH234431   5.893   0.775  17.070 -0.1441 -0.1203 -0.4118
 4339TIP3    H134432   5.967   0.748  17.016  0.6676 -0.4836  0.8741
 4339TIP3    H234433   5.825   0.710  17.052  0.7683 -1.3079  0.3978
 4340TIP3   OH234434   5.544   5.054   5.251 -0.1656 -0.4194  1.1737
 4340TIP3    H134435   5.600   4.993   5.299 -0.5062 -0.4464  1.5403
 4340TIP3    H234436   5.606   5.112   5.206  0.1721  0.4779  2.7461
 4341TIP3   OH234437   0.838   4.584  10.577  0.6557  0.2186  0.2600
 4341TIP3    H134438   0.907   4.650  10.566 -0.3330  0.9118 -2.2628
 4341TIP3    H234439   0.772   4.609  10.512  1.3588 -4.7030 -2.5815
 4342TIP3   OH234440   0.712   5.973  14.936  0.2708  0.3129 -0.5817
 4342TIP3    H134441   0.802   6.007  14.940  0.2453  0.1050  2.2697
 4342TIP3    H234442   0.721   5.881  14.959 -0.2441 -0.6799 -3.9850
 4343TIP3   OH234443   2.705   2.546   0.651  0.0319  0.7626  0.5701
 4343TIP3    H134444   2.732   2.574   0.563  0.6036 -1.5088 -0.0146
 4343TIP3    H234445   2.769   2.586   0.709  0.3468  1.3344 -0.1614
 4344TIP3   OH234446   5.864   1.678   3.521  0.0052  0.0818 -0.3813
 4344TIP3    H134447   5.786   1.624   3.512  0.3199 -0.2912 -0.8671
 4344TIP3    H234448   5.937   1.616   3.521  0.2698  0.3767  0.7031
 4345TIP3   OH234449   2.471   0.534   6.779  0.0581 -0.3331  0.7541
 4345TIP3    H134450   2.402   0.556   6.716  1.0590 -0.5489 -0.4399
 4345TIP3    H234451   2.423   0.510   6.859 -1.3003 -1.3822 -0.3294
 4346TIP3   OH234452   0.678   4.872   1.931 -0.8174  0.5905  0.0538
 4346TIP3    H134453   0.675   4.947   1.872 -0.2580 -0.0242 -0.7676
 4346TIP3    H234454   0.591   4.833   1.926 -0.3590 -0.2701 -1.4365
 4347TIP3   OH234455   4.334   1.293  10.706  0.1493  0.7532 -0.5669
 4347TIP3    H134456   4.363   1.211  10.746 -1.6976 -0.2360 -1.2069
 4347TIP3    H234457   4.390   1.360  10.745  1.7647 -0.8248 -0.1412
 4348TIP3   OH234458   4.951   4.245   3.551  0.6139  0.4175 -0.1256
 4348TIP3    H134459   4.967   4.246   3.456 -1.0269  0.6892 -0.4106
 4348TIP3    H234460   5.029   4.287   3.588  1.0822  0.6997 -1.3855
 4349TIP3   OH234461   1.211   6.311  13.866 -0.2581 -0.0979  0.4834
 4349TIP3    H134462   1.164   6.286  13.786  0.9587 -1.5266  0.1919
 4349TIP3    H234463   1.158   6.276  13.937 -0.3605 -0.5042  0.2103
 4350TIP3   OH234464   6.703   2.559  12.906 -0.3324 -0.7192  0.2446
 4350TIP3    H134465   6.659   2.474  12.903  1.3637 -1.7086  1.7373
 4350TIP3    H234466   6.642   2.616  12.953 -2.0670 -0.7078 -1.9459
 4351TIP3   OH234467   1.314   4.334   4.092  0.0743  0.2523  0.1541
 4351TIP3    H134468   1.395   4.378   4.066  0.5727  1.0161  2.8551
 4351TIP3    H234469   1.254   4.406   4.112 -0.6048 -0.3092  0.1261
 4352TIP3   OH234470   4.056   2.862  10.920  0.1949  0.1929  0.2129
 4352TIP3    H134471   4.110   2.806  10.975  0.5967  2.3006  2.0340
 4352TIP3    H234472   4.112   2.883  10.845  0.4466 -0.8835  0.0908
 4353TIP3   OH234473   6.304   4.395  10.998 -0.0829  0.6470  0.3712
 4353TIP3    H134474   6.308   4.390  11.093 -0.9738  0.2855  0.3934
 4353TIP3    H234475   6.348   4.477  10.977  1.7260 -0.1607  0.9663
 4354TIP3   OH234476   3.014   5.011  14.121 -0.4299 -0.6518  0.9834
 4354TIP3    H134477   3.044   4.946  14.185 -0.3535 -0.4069  1.1993
 4354TIP3    H234478   3.028   5.095  14.165 -0.3785 -0.4841  0.6432
 4355TIP3   OH234479   2.754   1.989   0.325  0.0267  0.5206 -0.0880
 4355TIP3    H134480   2.745   1.893   0.326 -1.2786  0.6208 -0.5592
 4355TIP3    H234481   2.675   2.020   0.369  1.4770  1.3453  2.0185
 4356TIP3   OH234482   4.258   0.482   4.434 -0.0089 -0.0653  0.5043
 4356TIP3    H134483   4.287   0.563   4.476  1.2022 -0.5409  0.6024
 4356TIP3    H234484   4.202   0.512   4.362  0.0114  0.8382  0.8533
 4357TIP3   OH234485   6.619   4.374   0.581  0.0768 -0.0629 -0.4891
 4357TIP3    H134486   6.692   4.391   0.639 -0.4950  0.9550 -0.0533
 4357TIP3    H234487   6.553   4.332   0.636 -0.6511  1.3396 -0.2875
 4358TIP3   OH234488   0.375   5.654   1.441  0.8223 -0.0287 -0.1188
 4358TIP3    H134489   0.391   5.589   1.509  0.3626 -0.6463 -0.5961
 4358TIP3    H234490   0.393   5.609   1.359 -1.1597 -0.0935 -0.5470
 4359TIP3   OH234491   4.483   3.681  11.806 -0.5489  0.5342  0.3766
 4359TIP3    H134492   4.517   3.724  11.728 -3.4198  1.3803 -0.4923
 4359TIP3    H234493   4.543   3.705  11.876 -0.2146  3.1805 -0.7869
 4360TIP3   OH234494   2.605   4.855   0.241 -0.1763 -0.1251  0.1559
 4360TIP3    H134495   2.548   4.804   0.183 -0.1840 -1.0858  0.9936
 4360TIP3    H234496   2.591   4.946   0.214 -1.4291 -0.4255 -0.2464
 4361TIP3   OH234497   5.189   3.309   5.272 -0.3060 -0.2468  0.0423
 4361TIP3    H134498   5.102   3.268   5.274 -1.7107  2.5778  0.4245
 4361TIP3    H234499   5.178   3.389   5.324  2.5936  0.0604  0.2310
 4362TIP3   OH234500   2.507   2.035   4.992 -0.0510 -0.2820 -0.2981
 4362TIP3    H134501   2.579   1.973   5.003 -0.1605  0.0893  3.3290
 4362TIP3    H234502   2.543   2.119   5.022 -0.3041  1.2107 -3.8601
 4363TIP3   OH234503   0.826   2.298   5.593  0.1502 -0.6185  0.3491
 4363TIP3    H134504   0.917   2.323   5.609  0.2292  0.7287 -1.9232
 4363TIP3    H234505   0.827   2.260   5.505 -1.6520  0.3340 -0.1077
 4364TIP3   OH234506   1.391   1.863   5.210 -0.1180  0.1728 -0.0796
 4364TIP3    H134507   1.329   1.797   5.241  0.5968 -1.7224 -2.4900
 4364TIP3    H234508   1.337   1.941   5.195 -1.8567 -1.2368 -1.5053
 4365TIP3   OH234509   1.430   3.334   2.005 -0.3147  0.2240 -0.1783
 4365TIP3    H134510   1.497   3.395   1.972 -0.8218  1.2853  0.6927
 4365TIP3    H234511   1.391   3.296   1.926  0.2176  0.8109 -0.7351
 4366TIP3   OH234512   4.262   2.234  17.176 -0.5432  0.1948  0.5028
 4366TIP3    H134513   4.250   2.149  17.134  0.4635 -0.5261  1.6519
 4366TIP3    H234514   4.289   2.213  17.265  0.1262  1.7239  0.6678
 4367TIP3   OH234515   3.202   6.645   5.492  0.1500 -0.2273 -0.4990
 4367TIP3    H134516   3.145   6.568   5.495 -1.9240  1.1675 -2.2846
 4367TIP3    H234517   3.219   6.658   5.398  1.7709  0.5742 -0.1063
 4368TIP3   OH234518   6.578   5.827   4.258 -0.6332 -0.2819 -0.4115
 4368TIP3    H134519   6.500   5.877   4.233 -0.2311  0.2824 -0.5606
 4368TIP3    H234520   6.620   5.805   4.174 -0.1386  0.2229 -0.3000
 4369TIP3   OH234521   5.110   4.200   0.517  0.1181 -0.2923  0.4184
 4369TIP3    H134522   5.178   4.260   0.548  0.9689 -1.6807  1.2690
 4369TIP3    H234523   5.149   4.113   0.522 -0.7453 -0.8604 -1.7711
 4370TIP3   OH234524   1.718   2.163  13.200  0.0400  0.4821  0.6508
 4370TIP3    H134525   1.739   2.082  13.152  0.0466  1.1053 -0.4140
 4370TIP3    H234526   1.622   2.166  13.201  0.0219 -0.1578  1.7621
 4371TIP3   OH234527   6.420   2.257   0.047  0.4116  0.3523 -0.0010
 4371TIP3    H134528   6.363   2.208  -0.013 -0.6440  2.0918 -0.4407
 4371TIP3    H234529   6.481   2.303  -0.011  0.5408  0.6094  0.3412
 4372TIP3   OH234530   1.326   1.263   5.908  0.2733 -0.1972 -0.0464
 4372TIP3    H134531   1.238   1.228   5.893  0.8647 -1.6790 -0.1153
 4372TIP3    H234532   1.358   1.285   5.820  0.1373 -0.0627 -0.0621
 4373TIP3   OH234533   0.246   4.871  11.632 -0.3526 -0.4085 -0.0478
 4373TIP3    H134534   0.331   4.901  11.665  0.1071 -1.6362 -0.0851
 4373TIP3    H234535   0.184   4.894  11.701 -0.0659  0.8515 -0.1863
 4374TIP3   OH234536   5.495   6.208  16.453 -0.4854 -0.4102 -0.0271
 4374TIP3    H134537   5.426   6.233  16.515 -0.5381 -2.4287  0.7729
 4374TIP3    H234538   5.490   6.273  16.383 -1.1022  1.3179  1.5777
 4375TIP3   OH234539   1.129   0.074  13.091  0.0293 -0.1346  0.6590
 4375TIP3    H134540   1.184   0.088  13.014  0.8463 -2.0936  0.8644
 4375TIP3    H234541   1.106   0.162  13.120  1.2302  0.6651 -0.7357
 4376TIP3   OH234542   6.279   2.312   5.210  0.3718  0.0168 -0.1904
 4376TIP3    H134543   6.312   2.223   5.198  2.2964  0.8787 -1.5762
 4376TIP3    H234544   6.352   2.360   5.247 -0.8092  0.9311  1.0145
 4377TIP3   OH234545   5.634   2.859  11.469 -0.0625  0.1486 -0.2478
 4377TIP3    H134546   5.544   2.862  11.436 -0.2329  0.1640  0.2136
 4377TIP3    H234547   5.676   2.936  11.432 -1.0235  1.7119  1.7791
 4378TIP3   OH234548   1.999   4.582   5.544  0.1364  0.4248  0.0921
 4378TIP3    H134549   1.954   4.540   5.471 -0.4705  1.2622 -0.0312
 4378TIP3    H234550   1.954   4.666   5.554  0.6884  0.6224  0.9612
 4379TIP3   OH234551   1.850   0.478   4.334 -0.2127  0.5652 -0.1596
 4379TIP3    H134552   1.812   0.396   4.364  0.7492  0.1531 -0.0677
 4379TIP3    H234553   1.780   0.543   4.347 -0.5980 -0.0285  0.7864
 4380TIP3   OH234554   4.328   6.481  13.101 -0.1274  0.7537  0.0944
 4380TIP3    H134555   4.400   6.493  13.039  0.7520  2.5523  1.4253
 4380TIP3    H234556   4.315   6.386  13.105  0.3803  0.5745 -2.1549
 4381TIP3   OH234557   1.436   3.096   0.449  0.5534 -0.3063 -0.2025
 4381TIP3    H134558   1.425   3.144   0.367 -0.1611  1.1801  0.7504
 4381TIP3    H234559   1.355   3.112   0.498 -0.1526 -3.3088 -0.2565
 4382TIP3   OH234560   3.163   2.847  15.675 -0.4332 -0.0284  0.0846
 4382TIP3    H134561   3.224   2.822  15.744 -1.3079  0.2870  0.9833
 4382TIP3    H234562   3.214   2.903  15.616  0.9054 -1.9941 -0.6805
 4383TIP3   OH234563   6.319   4.595  11.871 -0.4222 -0.2201  0.4231
 4383TIP3    H134564   6.275   4.579  11.955 -0.9902  0.5081  0.2739
 4383TIP3    H234565   6.331   4.690  11.868  1.8118 -0.4687  0.7629
 4384TIP3   OH234566   1.667   6.301  13.951  0.2768  0.2945  0.8815
 4384TIP3    H134567   1.586   6.282  13.998 -0.3701 -0.6150 -0.5892
 4384TIP3    H234568   1.640   6.317  13.861  1.5203  2.0320  0.7896
 4385TIP3   OH234569   4.245   1.520   3.425 -0.0427  0.4547 -0.7416
 4385TIP3    H134570   4.157   1.518   3.462  0.5546 -0.0714  0.6751
 4385TIP3    H234571   4.257   1.611   3.396 -0.2478  1.0704  1.0471
 4386TIP3   OH234572   4.219   1.867   2.503 -0.2332  0.8892 -0.3542
 4386TIP3    H134573   4.131   1.898   2.527 -0.5745 -1.4131  1.4437
 4386TIP3    H234574   4.278   1.935   2.536 -1.1466  1.0380  0.9977
 4387TIP3   OH234575   6.533   3.881  16.456  0.8934  0.1352 -0.0226
 4387TIP3    H134576   6.488   3.906  16.536 -0.3079  0.3170 -0.7539
 4387TIP3    H234577   6.463   3.867  16.392  1.7908 -0.7552 -0.8342
 4388TIP3   OH234578   2.443   4.813  14.761  0.5998  0.3427 -0.2724
 4388TIP3    H134579   2.509   4.750  14.788  0.6718  0.3417 -0.4538
 4388TIP3    H234580   2.428   4.866  14.839 -1.3730 -1.5584  0.6918
 4389TIP3   OH234581   5.606   4.430   5.392  0.5536  0.4298 -0.1976
 4389TIP3    H134582   5.607   4.488   5.468  1.5462  0.0297  0.1072
 4389TIP3    H234583   5.588   4.488   5.318  0.1685  0.9146  0.2716
 4390TIP3   OH234584   0.626   1.546  11.955  0.2330  0.4364  0.0196
 4390TIP3    H134585   0.600   1.629  11.916  0.6336  0.1181 -0.9326
 4390TIP3    H234586   0.701   1.518  11.904  1.2054  0.3546  1.4797
 4391TIP3   OH234587   5.344   5.327   4.247  0.1086  0.3617  0.6485
 4391TIP3    H134588   5.388   5.383   4.310 -1.8745  2.2672  0.3688
 4391TIP3    H234589   5.297   5.387   4.190 -1.0751 -1.5240 -0.4028
 4392TIP3   OH234590   4.128   0.165   5.722 -0.1908 -0.1089 -0.2459
 4392TIP3    H134591   4.118   0.140   5.814 -2.2552  0.5580 -0.2644
 4392TIP3    H234592   4.140   0.082   5.677  2.3848 -0.3302  0.7890
 4393TIP3   OH234593   4.891   1.262  13.153  0.3553  0.0162  0.1574
 4393TIP3    H134594   4.854   1.243  13.239 -1.2494 -1.0771 -0.7433
 4393TIP3    H234595   4.917   1.177  13.118 -1.8847  0.0462 -1.6990
 4394TIP3   OH234596   4.816   2.017  16.297  0.0573 -0.4989  0.1237
 4394TIP3    H134597   4.907   2.020  16.326  0.4420 -0.0353 -1.0939
 4394TIP3    H234598   4.807   2.092  16.238 -0.5990 -1.6502 -1.2626
 4395TIP3   OH234599   0.390   0.354   5.410  0.3788  0.3769 -0.1629
 4395TIP3    H134600   0.452   0.345   5.482  1.9144  1.2694 -1.3209
 4395TIP3    H234601   0.443   0.390   5.338 -0.8693 -1.4519 -2.0567
 4396TIP3   OH234602   4.663   5.643  10.702  0.2496 -0.0739  0.3863
 4396TIP3    H134603   4.570   5.644  10.727 -0.1959  3.3091 -1.1355
 4396TIP3    H234604   4.665   5.599  10.618  0.3076 -1.8010  1.2695
 4397TIP3   OH234605   5.110   2.008  14.119 -0.3275 -0.2107  0.7767
 4397TIP3    H134606   5.085   2.077  14.056  2.4750  1.0479  0.9661
 4397TIP3    H234607   5.057   2.026  14.196 -0.9805  0.5941  0.1539
 4398TIP3   OH234608   6.242   3.525  12.850 -0.0522  0.2754 -0.3408
 4398TIP3    H134609   6.333   3.548  12.871 -0.4385  0.5637  1.0806
 4398TIP3    H234610   6.208   3.487  12.931 -0.7564 -1.2215 -1.3142
 4399TIP3   OH234611   5.854   0.790  16.103 -0.0028  0.3062  0.4766
 4399TIP3    H134612   5.898   0.810  16.020 -3.3320  1.5105 -1.0804
 4399TIP3    H234613   5.886   0.858  16.163  2.5551 -0.6660  0.3020
 4400TIP3   OH234614   3.940   5.430  16.781 -0.2409  0.1215 -0.1275
 4400TIP3    H134615   3.965   5.339  16.770 -0.7392 -0.0473  0.1131
 4400TIP3    H234616   3.929   5.441  16.875 -0.1125  0.4534 -0.1477
 4401TIP3   OH234617   6.466   2.340   0.330  0.0834  0.1512  0.4372
 4401TIP3    H134618   6.391   2.382   0.372 -0.5293 -0.7702  0.3074
 4401TIP3    H234619   6.434   2.252   0.309  1.2006 -0.2368  0.3495
 4402TIP3   OH234620   0.779   6.345  14.017 -0.5031 -0.5590  0.0823
 4402TIP3    H134621   0.755   6.390  13.936 -1.1944  0.8156  1.0265
 4402TIP3    H234622   0.702   6.354  14.073  0.6812  0.2604  1.6295
 4403TIP3   OH234623   1.198   5.960   4.702  0.2957 -0.2347 -0.4143
 4403TIP3    H134624   1.225   5.869   4.693  2.6825  0.4212 -0.4429
 4403TIP3    H234625   1.130   5.959   4.769  0.4895 -2.0079 -0.2280
 4404TIP3   OH234626   0.825   6.426   0.915  0.3180  0.3290 -0.0617
 4404TIP3    H134627   0.778   6.370   0.853 -0.6140 -0.3846  1.2653
 4404TIP3    H234628   0.793   6.399   1.001  0.7173  2.1214  0.6748
 4405TIP3   OH234629   5.542   5.724   2.928  0.1595 -0.5035  0.0340
 4405TIP3    H134630   5.486   5.802   2.933 -0.5253 -1.0782  1.5571
 4405TIP3    H234631   5.630   5.757   2.944 -0.0108  0.0923 -0.2268
 4406TIP3   OH234632   1.606   1.273   1.476  0.2708  0.7050 -0.7602
 4406TIP3    H134633   1.616   1.361   1.511 -1.3554 -0.2770  2.3522
 4406TIP3    H234634   1.541   1.281   1.407 -1.8239  1.5595  1.2564
 4407TIP3   OH234635   4.027   5.371  15.041 -0.4444  0.0081 -0.2822
 4407TIP3    H134636   3.937   5.338  15.050 -0.3362 -0.5451 -1.2015
 4407TIP3    H234637   4.075   5.299  15.001  0.1812  0.6636 -0.7237
 4408TIP3   OH234638   2.095   5.983  14.364  0.2320  0.1353  0.1277
 4408TIP3    H134639   2.011   5.997  14.409  0.0438 -1.9628  0.4538
 4408TIP3    H234640   2.107   6.063  14.313 -0.9543  1.3497  1.6693
 4409TIP3   OH234641   1.190   5.724   1.300  0.3568  0.0189 -0.2799
 4409TIP3    H134642   1.284   5.739   1.312  0.2381  0.5181  0.0488
 4409TIP3    H234643   1.148   5.793   1.352 -0.2027 -0.9656  0.5786
 4410TIP3   OH234644   4.567   0.296  15.274 -0.7500 -0.7656 -0.3664
 4410TIP3    H134645   4.513   0.370  15.303 -1.2972 -0.1690 -2.7821
 4410TIP3    H234646   4.652   0.310  15.316 -0.7659  1.4164 -1.0132
 4411TIP3   OH234647   6.605   0.670  12.120 -0.0349 -0.1726 -0.3323
 4411TIP3    H134648   6.579   0.578  12.113 -1.3578 -0.1135  2.8084
 4411TIP3    H234649   6.616   0.684  12.214  1.7415  2.4750 -0.8964
 4412TIP3   OH234650   0.763   6.377  16.120 -0.0237 -0.4009  0.3591
 4412TIP3    H134651   0.788   6.469  16.124 -0.2638 -0.3656  1.1854
 4412TIP3    H234652   0.692   6.374  16.056  1.1676 -0.2963 -1.0070
 4413TIP3   OH234653   4.324   6.738  13.211  0.1918 -0.0684  0.5071
 4413TIP3    H134654   4.309   6.648  13.183  0.9396  0.2119 -0.8256
 4413TIP3    H234655   4.244   6.785  13.187  0.3772 -0.0738 -0.1258
 4414TIP3   OH234656   5.930   4.433   2.465 -0.4724  0.4530 -0.5600
 4414TIP3    H134657   5.973   4.455   2.382 -1.8755  1.9773 -0.9032
 4414TIP3    H234658   5.860   4.497   2.473 -3.4319 -2.6626 -0.5319
 4415TIP3   OH234659   2.064   1.407  15.709  0.5053  0.0791 -0.1590
 4415TIP3    H134660   2.009   1.330  15.721  2.0732 -1.1010 -0.4286
 4415TIP3    H234661   2.140   1.375  15.661  1.0734  1.8424 -0.4746
 4416TIP3   OH234662   4.045   5.849   0.796  0.5790  0.4138 -0.0001
 4416TIP3    H134663   3.986   5.811   0.860  2.7719 -3.0465  0.1405
 4416TIP3    H234664   3.988   5.883   0.727 -1.6208 -3.1202 -0.0500
 4417TIP3   OH234665   0.591   4.112  12.113  0.2906 -0.1934 -0.0238
 4417TIP3    H134666   0.507   4.065  12.109  1.3176 -1.9787 -1.0966
 4417TIP3    H234667   0.630   4.085  12.196 -0.6375  1.4626  0.9842
 4418TIP3   OH234668   4.259   5.198   5.481  0.2279 -0.1463 -0.1056
 4418TIP3    H134669   4.304   5.273   5.519 -1.0540 -0.6176  2.5059
 4418TIP3    H234670   4.188   5.236   5.429  0.2920  0.4885  0.2670
 4419TIP3   OH234671   0.641   0.023   0.616  0.6936  0.4844 -0.0625
 4419TIP3    H134672   0.701  -0.007   0.685  2.4491  0.7830 -1.4243
 4419TIP3    H234673   0.601  -0.057   0.583 -2.1136  0.5122  2.9654
 4420TIP3   OH234674   2.928   0.676  16.707 -0.3354  0.4166  0.3730
 4420TIP3    H134675   2.863   0.613  16.739  0.4214  0.9317  3.0874
 4420TIP3    H234676   2.877   0.755  16.688 -0.7996  0.1048  0.3241
 4421TIP3   OH234677   1.929   6.089  16.223  0.0028  0.1977 -0.2791
 4421TIP3    H134678   1.839   6.120  16.230  0.3763  1.3641 -0.5240
 4421TIP3    H234679   1.951   6.058  16.310 -0.0703  1.5052  0.2220
 4422TIP3   OH234680   3.763   0.664  14.759 -0.6984  0.0664 -0.4216
 4422TIP3    H134681   3.843   0.713  14.776 -0.8165  0.7386 -1.7096
 4422TIP3    H234682   3.732   0.698  14.675 -2.0584 -0.5491 -0.1798
 4423TIP3   OH234683   3.985   4.810   1.570 -0.5837 -0.6108  0.2284
 4423TIP3    H134684   3.979   4.717   1.550  1.5514 -0.9504  1.0592
 4423TIP3    H234685   3.969   4.854   1.486  0.5026 -1.7725 -0.5934
 4424TIP3   OH234686   3.880   5.907   0.399  0.4542 -0.2728  0.3036
 4424TIP3    H134687   3.955   5.965   0.383 -0.2942  0.6622  0.1789
 4424TIP3    H234688   3.919   5.819   0.404  1.4212  0.0855 -0.8037
 4425TIP3   OH234689   4.511   3.325   4.433  0.0971 -0.6404 -0.1047
 4425TIP3    H134690   4.417   3.308   4.448  0.4540 -0.2659  2.7036
 4425TIP3    H234691   4.528   3.409   4.476  1.9741 -1.2593  0.3985
 4426TIP3   OH234692   3.950   2.441  13.780 -0.4593  0.1236  0.2454
 4426TIP3    H134693   3.860   2.426  13.808 -0.6778  0.2541 -0.3717
 4426TIP3    H234694   3.969   2.369  13.720  0.5728 -1.1109  1.9906
 4427TIP3   OH234695   1.558   3.373   5.715 -0.4161 -0.3942 -0.1798
 4427TIP3    H134696   1.569   3.461   5.679 -2.3725  0.1790  0.5006
 4427TIP3    H234697   1.639   3.327   5.694  0.5926  1.5434 -0.6379
 4428TIP3   OH234698   2.047   0.796  16.668 -0.4604  0.0674 -0.6486
 4428TIP3    H134699   2.104   0.871  16.687  0.7601 -1.0715  0.2683
 4428TIP3    H234700   1.975   0.806  16.730  0.6311 -0.4984  0.7490
 4429TIP3   OH234701   3.272   4.563  16.861 -0.0736 -0.1963  0.2527
 4429TIP3    H134702   3.229   4.644  16.833 -1.2940 -0.9795 -0.1617
 4429TIP3    H234703   3.208   4.519  16.915  0.5470 -0.9480  0.3897
 4430TIP3   OH234704   4.507   6.624  12.266  0.0106  0.6863  0.2002
 4430TIP3    H134705   4.486   6.592  12.354 -1.2500  1.4294  0.1766
 4430TIP3    H234706   4.503   6.720  12.274 -0.1916  0.7525 -0.6982
 4431TIP3   OH234707   3.257   5.792  11.623  0.2860 -0.0340  0.4134
 4431TIP3    H134708   3.247   5.771  11.531  2.2214 -0.0678  0.1862
 4431TIP3    H234709   3.324   5.861  11.625 -0.2563  0.4886  1.7429
 4432TIP3   OH234710   0.654   6.724   4.471 -0.2752  0.2287 -0.0738
 4432TIP3    H134711   0.596   6.782   4.521  0.8219  1.3887 -0.1362
 4432TIP3    H234712   0.634   6.743   4.380  1.5172  2.0072 -0.1240
 4433TIP3   OH234713   2.734   5.614  12.332  0.6832  0.2206  0.3131
 4433TIP3    H134714   2.639   5.614  12.322  0.7224  1.5907 -0.2392
 4433TIP3    H234715   2.755   5.531  12.375 -0.8796  0.4237  1.5003
 4434TIP3   OH234716   2.010   2.787   3.217 -0.2532  0.1250  0.2682
 4434TIP3    H134717   1.934   2.760   3.166 -0.1234  1.4045 -0.6348
 4434TIP3    H234718   2.010   2.730   3.294 -0.5705 -1.7108 -1.0662
 4435TIP3   OH234719   1.586   2.040   2.729 -0.3198 -0.9036 -0.2020
 4435TIP3    H134720   1.502   2.068   2.692  0.7838  2.7041 -0.2099
 4435TIP3    H234721   1.634   2.002   2.656 -0.3962  0.8244 -1.1726
 4436TIP3   OH234722   0.135   4.791   0.141  0.2248  0.0328  0.3933
 4436TIP3    H134723   0.099   4.798   0.229 -0.2907  1.4515  0.0793
 4436TIP3    H234724   0.168   4.879   0.121 -0.7147  0.0349 -1.2709
 4437TIP3   OH234725   2.047   5.707   1.651 -0.0638  0.1652 -0.2854
 4437TIP3    H134726   2.003   5.709   1.736 -1.6208 -2.1273 -0.9680
 4437TIP3    H234727   1.982   5.741   1.589  0.8436  1.2520 -0.6626
 4438TIP3   OH234728   0.729   3.872  14.113  0.4932  0.4334 -0.4096
 4438TIP3    H134729   0.736   3.791  14.062 -0.2984  0.2199 -0.1844
 4438TIP3    H234730   0.636   3.893  14.112  0.7113  1.3871 -0.5287
 4439TIP3   OH234731   3.494   5.043   2.886 -0.5765  0.0214 -0.3711
 4439TIP3    H134732   3.444   5.030   2.806  0.3921 -0.8362 -0.8483
 4439TIP3    H234733   3.433   5.021   2.957 -0.8327 -1.1387 -0.9469
 4440TIP3   OH234734   4.662   3.341  12.093  0.3469 -0.1148 -0.3809
 4440TIP3    H134735   4.715   3.384  12.160 -0.2974  1.6204 -0.9432
 4440TIP3    H234736   4.692   3.381  12.011 -0.6120 -0.3954 -0.8690
 4441TIP3   OH234737   2.050   2.539   3.353 -0.0670 -0.2077  0.0057
 4441TIP3    H134738   2.051   2.540   3.449  1.2413 -1.0885  0.0202
 4441TIP3    H234739   2.127   2.591   3.328 -2.1476  2.6882 -0.6297
 4442TIP3   OH234740   6.652   5.395   5.942  0.1881 -0.4584  0.4719
 4442TIP3    H134741   6.588   5.337   5.900  0.3426 -0.9491  0.9051
 4442TIP3    H234742   6.627   5.394   6.034  0.7758 -0.5905  0.6263
 4443TIP3   OH234743   5.850   6.450  10.858  0.6608  0.3701 -0.4597
 4443TIP3    H134744   5.776   6.418  10.807  0.8226  0.2517 -0.6222
 4443TIP3    H234745   5.926   6.407  10.819  0.8944  1.0438 -0.7568
 4444TIP3   OH234746   3.021   6.723   3.148 -0.4187  0.1657  0.4214
 4444TIP3    H134747   2.954   6.788   3.172  1.9272  2.2937  1.4104
 4444TIP3    H234748   3.025   6.665   3.224 -0.9300  0.2025  0.4810
 4445TIP3   OH234749   5.855   4.762  14.305 -0.4276 -0.2333 -0.0180
 4445TIP3    H134750   5.858   4.666  14.313  0.6253 -0.2801 -0.9355
 4445TIP3    H234751   5.795   4.778  14.233  0.2170 -0.2535 -0.5702
 4446TIP3   OH234752   6.649   0.849   3.253 -0.0907 -0.5218 -0.0684
 4446TIP3    H134753   6.645   0.852   3.348 -0.8807 -2.3963 -0.0198
 4446TIP3    H234754   6.622   0.936   3.225 -3.1880 -0.9393  1.3733
 4447TIP3   OH234755   4.456   0.065   5.372  0.3568  0.0462  0.2256
 4447TIP3    H134756   4.492   0.138   5.422 -0.2736 -0.1535  0.9919
 4447TIP3    H234757   4.396   0.106   5.310  0.9813  0.2802 -0.2270
 4448TIP3   OH234758   4.414   5.344   2.814  0.4214 -0.0976 -0.2274
 4448TIP3    H134759   4.499   5.333   2.773  0.3624 -1.4392 -0.0109
 4448TIP3    H234760   4.433   5.372   2.903  0.6179  0.2262 -0.3714
 4449TIP3   OH234761   4.153   2.382  11.432 -0.0856 -0.4088  0.3780
 4449TIP3    H134762   4.223   2.372  11.367  0.0690  2.6971 -0.0178
 4449TIP3    H234763   4.083   2.325  11.401  1.3880 -1.8536 -0.4353
 4450TIP3   OH234764   1.549   1.476  13.366  0.2376 -0.0596 -0.8236
 4450TIP3    H134765   1.535   1.396  13.314 -0.9200 -0.7770  0.5613
 4450TIP3    H234766   1.588   1.445  13.448  1.7564  1.0345 -1.1050
 4451TIP3   OH234767   6.509   6.018   6.461 -0.3593  0.0730  0.0239
 4451TIP3    H134768   6.439   6.060   6.410  0.3961  1.6996  0.3127
 4451TIP3    H234769   6.523   5.934   6.416 -0.9410  0.7085 -1.3833
 4452TIP3   OH234770   6.614   5.673  11.073  0.0359  0.2815  0.3792
 4452TIP3    H134771   6.703   5.676  11.109 -0.5666  1.4451  1.8111
 4452TIP3    H234772   6.628   5.673  10.978  1.5776  1.1898  0.5734
 4453TIP3   OH234773   5.079   4.293   4.612 -0.4844 -0.8510 -0.3294
 4453TIP3    H134774   4.984   4.286   4.606 -0.5024  0.8663 -2.5943
 4453TIP3    H234775   5.112   4.216   4.566 -0.7326 -2.5951  2.2884
 4454TIP3   OH234776   5.318   1.445  15.632 -0.4461 -0.2596 -0.0322
 4454TIP3    H134777   5.225   1.428  15.649  0.2728 -2.1969  2.2819
 4454TIP3    H234778   5.358   1.445  15.718  1.9378 -0.9316 -1.1050
 4455TIP3   OH234779   4.186   4.968  10.531 -0.3637 -0.3040  0.1436
 4455TIP3    H134780   4.226   5.049  10.564 -0.9994  0.0695  0.0130
 4455TIP3    H234781   4.225   4.899  10.585  0.3183  0.0695  0.1397
 4456TIP3   OH234782   3.274   2.049  16.673 -0.5548  0.3904  0.3754
 4456TIP3    H134783   3.279   2.086  16.761 -0.8210 -0.0850  0.5919
 4456TIP3    H234784   3.184   2.067  16.644 -0.7792 -0.3482  0.5994
 4457TIP3   OH234785   0.507   4.038  16.142 -0.2636 -0.5276  0.2480
 4457TIP3    H134786   0.485   4.128  16.163 -2.4634 -0.1669 -3.2543
 4457TIP3    H234787   0.602   4.033  16.156 -0.4809  1.5108  3.0193
 4458TIP3   OH234788   4.934   1.648  12.565 -0.3303 -0.3990 -0.1520
 4458TIP3    H134789   4.864   1.591  12.531  0.2609 -0.6135 -1.0324
 4458TIP3    H234790   4.986   1.669  12.488  2.1955 -2.4673  0.9147
 4459TIP3   OH234791   2.014   3.397  15.388  0.3778  0.5766 -0.5968
 4459TIP3    H134792   2.058   3.371  15.469 -0.2593 -2.6881 -1.2039
 4459TIP3    H234793   2.072   3.367  15.318 -0.6327  0.3631 -1.3540
 4460TIP3   OH234794   1.841   5.620  15.527  0.2970 -0.0726  0.0861
 4460TIP3    H134795   1.892   5.550  15.569  1.3908 -0.1602 -1.3740
 4460TIP3    H234796   1.824   5.588  15.439 -1.6343  0.3055  0.3004
 4461TIP3   OH234797   4.708   0.620  15.124  0.4243 -0.4542  0.0453
 4461TIP3    H134798   4.673   0.689  15.067  2.2808  0.0953 -0.4642
 4461TIP3    H234799   4.631   0.586  15.170 -0.7965  0.6164 -1.1408
 4462TIP3   OH234800   3.376   4.480  12.063 -0.3309 -0.3551 -0.1324
 4462TIP3    H134801   3.461   4.489  12.106 -0.0614  3.2843 -1.2906
 4462TIP3    H234802   3.317   4.450  12.132  1.6009 -1.8068  0.9486
 4463TIP3   OH234803   0.305   1.648   2.933 -0.0231 -0.0994  0.1441
 4463TIP3    H134804   0.378   1.591   2.959 -0.9779 -1.3149  0.2548
 4463TIP3    H234805   0.229   1.590   2.935 -1.1587  1.3870  1.0281
 4464TIP3   OH234806   2.395   0.294   4.940  0.2634  0.2269  0.0714
 4464TIP3    H134807   2.400   0.331   5.028  1.3016  0.1001  0.0665
 4464TIP3    H234808   2.454   0.347   4.887  1.0522 -0.8491 -0.1465
 4465TIP3   OH234809   5.634   1.057   2.579 -0.1306  0.0423 -0.0352
 4465TIP3    H134810   5.543   1.042   2.554  0.2268  1.5531 -2.4871
 4465TIP3    H234811   5.679   1.075   2.496  2.6504 -1.8123  0.9849
 4466TIP3   OH234812   6.050   3.872   0.172  0.0378  0.7306 -0.0888
 4466TIP3    H134813   6.006   3.889   0.089  0.8461 -0.0885 -0.7056
 4466TIP3    H234814   6.039   3.778   0.186  2.1493  0.3844 -0.6008
 4467TIP3   OH234815   3.464   3.386   4.717  0.2518 -0.4549 -0.5267
 4467TIP3    H134816   3.482   3.304   4.765  2.7703  1.5093  2.0906
 4467TIP3    H234817   3.493   3.368   4.628  0.6722 -2.4690 -0.0129
 4468TIP3   OH234818   0.118   6.323  12.080 -0.0170 -0.3661  0.6311
 4468TIP3    H134819   0.154   6.337  11.993 -0.6106 -1.6711  0.1683
 4468TIP3    H234820   0.193   6.299  12.134  0.0668 -1.4920  0.0313
 4469TIP3   OH234821   0.263   2.009  12.755  0.1523  0.2253 -0.3542
 4469TIP3    H134822   0.345   1.971  12.724  0.5499  1.6868 -1.1353
 4469TIP3    H234823   0.249   2.086  12.699 -2.8189 -1.1702 -1.6753
 4470TIP3   OH234824   0.061   2.666  12.335 -0.2680  0.1560  0.4703
 4470TIP3    H134825   0.078   2.744  12.283 -4.5138  1.1177  0.3349
 4470TIP3    H234826   0.113   2.677  12.415  2.7591  0.8271 -1.5221
 4471TIP3   OH234827   2.709   0.896   2.048  0.2999  0.2171  0.2560
 4471TIP3    H134828   2.626   0.944   2.055  0.9602  1.3908  0.1996
 4471TIP3    H234829   2.688   0.808   2.080 -1.3754 -0.0161 -1.3904
 4472TIP3   OH234830   4.663   5.623   2.664  0.1794 -0.3430 -0.4224
 4472TIP3    H134831   4.697   5.712   2.677 -0.1417 -0.1970 -0.5808
 4472TIP3    H234832   4.617   5.603   2.745  0.5979 -0.5193 -0.2296
 4473TIP3   OH234833   4.535   2.341  12.271  0.2112 -0.5580  0.0772
 4473TIP3    H134834   4.616   2.312  12.313  0.8120  1.9424  0.7312
 4473TIP3    H234835   4.559   2.353  12.179  0.7806  0.8497  0.4031
 4474TIP3   OH234836   5.222   3.815   3.042  0.3242 -0.0300 -0.2578
 4474TIP3    H134837   5.276   3.751   2.997  0.8592  0.6164 -0.5454
 4474TIP3    H234838   5.240   3.802   3.135 -1.2185 -1.7633 -0.1765
 4475TIP3   OH234839   0.512   5.097   4.452 -0.1167 -0.0048  0.0947
 4475TIP3    H134840   0.539   5.177   4.407  0.4056 -1.3623 -2.0682
 4475TIP3    H234841   0.446   5.058   4.395  0.0589 -1.4259  0.8349
 4476TIP3   OH234842   0.264   0.186  16.816 -0.0739  0.2880 -0.4699
 4476TIP3    H134843   0.354   0.207  16.792 -0.2682  0.9656 -0.6213
 4476TIP3    H234844   0.211   0.229  16.750 -0.5694  1.2054  0.5126
 4477TIP3   OH234845   1.137   6.549   1.964  0.0347 -0.1914 -0.2275
 4477TIP3    H134846   1.114   6.543   2.057 -0.0683 -0.1980 -0.2536
 4477TIP3    H234847   1.058   6.521   1.918 -0.0937  0.3322 -0.3292
 4478TIP3   OH234848   5.212   4.508  12.893 -0.1420  0.1865 -0.2044
 4478TIP3    H134849   5.238   4.428  12.940 -1.1683 -0.5380 -0.8512
 4478TIP3    H234850   5.199   4.479  12.802  0.3293  1.2726 -0.6298
 4479TIP3   OH234851   6.738   4.976   3.187  0.7977 -0.1164 -0.0896
 4479TIP3    H134852   6.665   4.956   3.245  1.1039 -1.6555 -0.1898
 4479TIP3    H234853   6.815   4.971   3.243  0.9608 -0.0609 -0.3048
 4480TIP3   OH234854   3.214   0.918  10.817 -0.1098  0.0800  0.5133
 4480TIP3    H134855   3.192   0.883  10.903  1.2498 -2.3019 -0.0629
 4480TIP3    H234856   3.305   0.948  10.826  0.0457 -0.1953 -0.0852
 4481TIP3   OH234857   0.812   1.040   2.300 -0.2272 -0.5697  0.3402
 4481TIP3    H134858   0.726   1.053   2.260 -0.0356  0.4797  0.2553
 4481TIP3    H234859   0.850   1.128   2.306  0.2573 -0.8499  1.6876
 4482TIP3   OH234860   0.810   0.404  13.118 -0.1760  0.1119  0.4558
 4482TIP3    H134861   0.795   0.473  13.183  0.0657 -0.2734  0.9274
 4482TIP3    H234862   0.900   0.417  13.089 -0.0415 -0.1559  0.7392
 4483TIP3   OH234863   0.108   4.528  13.845  0.2615  0.2628 -0.2325
 4483TIP3    H134864   0.144   4.605  13.890  0.3901  0.5217 -0.7853
 4483TIP3    H234865   0.167   4.457  13.870  0.4292  0.4384 -0.1226
 4484TIP3   OH234866   0.734   5.396   3.505  0.2003  0.1186  0.1218
 4484TIP3    H134867   0.761   5.461   3.570 -0.6537  0.1206  0.4807
 4484TIP3    H234868   0.694   5.448   3.435 -0.3870 -0.0054  0.3605
 4485TIP3   OH234869   2.437   3.697   2.771 -0.1754  0.4198 -0.2105
 4485TIP3    H134870   2.423   3.743   2.687  0.3168  2.7486  0.9297
 4485TIP3    H234871   2.454   3.607   2.746  0.7054  1.2150 -2.6983
 4486TIP3   OH234872   3.508   1.955  14.021  0.1090 -0.4396  0.0870
 4486TIP3    H134873   3.518   2.021  13.953 -1.0805 -0.4773 -0.1420
 4486TIP3    H234874   3.587   1.962  14.074  0.6700  0.1432 -0.8224
 4487TIP3   OH234875   2.910   6.195  13.500  0.0719  0.5014 -0.5464
 4487TIP3    H134876   2.913   6.287  13.528 -2.0090  0.3608  0.2626
 4487TIP3    H234877   2.818   6.179  13.481  0.3042 -1.6109 -0.0480
 4488TIP3   OH234878   5.385   3.354   3.503 -0.4650 -0.4749 -0.0586
 4488TIP3    H134879   5.338   3.270   3.498 -0.3449 -0.6324  1.2532
 4488TIP3    H234880   5.472   3.330   3.536 -0.9599  0.3425  1.8883
 4489TIP3   OH234881   6.056   1.433  16.093  0.4453  0.3015  0.4423
 4489TIP3    H134882   6.024   1.435  16.184  0.1152  0.5994  0.3198
 4489TIP3    H234883   5.982   1.402  16.042  0.0837  1.7435  0.0552
 4490TIP3   OH234884   3.925   3.733   2.322 -0.0361 -0.3931  0.1254
 4490TIP3    H134885   3.943   3.654   2.372 -1.2622 -1.1288 -0.5519
 4490TIP3    H234886   3.832   3.725   2.298 -0.5409  1.8772  1.1576
 4491TIP3   OH234887   6.189   4.512   0.507 -0.0084  0.0619 -0.3546
 4491TIP3    H134888   6.150   4.439   0.556 -0.2080  1.2651  1.3136
 4491TIP3    H234889   6.133   4.586   0.527  0.3641  0.7396 -1.8182
 4492TIP3   OH234890   6.450   5.619  14.200  0.1613 -0.0399  0.9618
 4492TIP3    H134891   6.385   5.686  14.184  0.0002  0.0392  1.8778
 4492TIP3    H234892   6.416   5.570  14.275  0.2024 -1.2327  0.2113
 4493TIP3   OH234893   2.390   0.101   0.497  0.4582  0.4438 -0.3228
 4493TIP3    H134894   2.354   0.126   0.582 -1.0166 -0.4593 -0.6622
 4493TIP3    H234895   2.392   0.182   0.447 -2.8140  0.2561 -0.8916
 4494TIP3   OH234896   4.488   3.097   0.317 -0.1967 -0.2096 -0.3794
 4494TIP3    H134897   4.494   3.006   0.289 -2.6040 -1.0811  1.7964
 4494TIP3    H234898   4.494   3.094   0.412  4.3622  2.3824 -0.4131
 4495TIP3   OH234899   2.014   4.678  14.284  0.2541 -0.0236 -0.5687
 4495TIP3    H134900   1.969   4.619  14.344  2.1320 -0.2636  0.6030
 4495TIP3    H234901   1.951   4.749  14.269 -0.6082 -0.4800  0.8468
 4496TIP3   OH234902   3.511   1.191   0.452  0.0742 -0.1018  0.4318
 4496TIP3    H134903   3.546   1.199   0.363  1.1060 -0.1894  0.8150
 4496TIP3    H234904   3.424   1.230   0.447  0.5272  0.8507 -0.3809
 4497TIP3   OH234905   0.763   6.420   5.153 -0.0255  0.3564  0.4330
 4497TIP3    H134906   0.824   6.381   5.090 -1.3043 -1.6856  0.4098
 4497TIP3    H234907   0.793   6.511   5.162  2.9553 -0.5438  0.3669
 4498TIP3   OH234908   1.930   2.132  11.279 -0.2209 -0.3304 -0.5048
 4498TIP3    H134909   1.858   2.104  11.223 -0.4857 -0.1210 -0.2736
 4498TIP3    H234910   1.955   2.218  11.245  1.7043 -1.5637 -2.2653
 4499TIP3   OH234911   1.134   6.722  11.918  0.7105  0.1211 -0.3878
 4499TIP3    H134912   1.052   6.766  11.937 -1.2778 -3.6860  0.3850
 4499TIP3    H234913   1.188   6.737  11.995 -0.5566 -0.1839  0.5687
 4500TIP3   OH234914   0.600   2.253   4.868 -0.0639 -0.1843  0.3104
 4500TIP3    H134915   0.517   2.238   4.914 -0.3741 -1.1564 -0.5370
 4500TIP3    H234916   0.584   2.221   4.779  0.6907  1.2102 -0.3383
 4501TIP3   OH234917   6.225   1.897  12.641 -0.5209  0.3954  0.1844
 4501TIP3    H134918   6.284   1.867  12.572 -0.8615 -0.1783  0.1411
 4501TIP3    H234919   6.168   1.822  12.659 -0.6110  0.6274  0.8986
 4502TIP3   OH234920   3.624   5.948  12.193  0.0562 -0.4372 -0.5007
 4502TIP3    H134921   3.576   5.915  12.269 -0.2374  0.5613 -0.2489
 4502TIP3    H234922   3.581   5.907  12.118  0.0171 -1.0213 -0.1630
 4503TIP3   OH234923   2.841   3.303  10.991  0.1275 -0.4281  1.0889
 4503TIP3    H134924   2.778   3.288  10.920 -0.4906  0.6877  1.3727
 4503TIP3    H234925   2.906   3.235  10.981 -0.3468 -0.7158 -0.1237
 4504TIP3   OH234926   4.019   3.167   1.078 -0.2293 -0.2112 -0.0105
 4504TIP3    H134927   3.982   3.087   1.114  0.8056 -0.5225  0.3712
 4504TIP3    H234928   4.074   3.139   1.006 -0.0760  0.1835 -0.0501
 4505TIP3   OH234929   5.527   5.407  16.873  0.4754 -0.2599  0.0303
 4505TIP3    H134930   5.608   5.455  16.857  0.6288  0.0934  1.8129
 4505TIP3    H234931   5.458   5.472  16.862  0.4951 -0.2886 -0.2868
 4506TIP3   OH234932   6.306   4.998   3.079 -0.4666  0.2492  0.8812
 4506TIP3    H134933   6.253   4.936   3.029 -0.9937 -0.5050  2.3510
 4506TIP3    H234934   6.384   5.012   3.025 -1.2303 -0.1759 -0.3620
 4507TIP3   OH234935   5.564   2.841   3.711 -1.0691  0.4998 -0.3136
 4507TIP3    H134936   5.610   2.758   3.721  0.8272  1.5300 -0.3351
 4507TIP3    H234937   5.532   2.861   3.799  1.4410  1.4186  0.4282
 4508TIP3   OH234938   6.578   3.537  10.752 -0.1068  0.2637 -0.2150
 4508TIP3    H134939   6.646   3.478  10.719 -1.0644 -0.1371 -1.5405
 4508TIP3    H234940   6.537   3.489  10.824  0.4629  0.1587  0.0393
 4509TIP3   OH234941   3.435   2.417  11.365 -0.5691  0.0222  0.3425
 4509TIP3    H134942   3.363   2.361  11.336 -0.0179 -1.7787  2.2142
 4509TIP3    H234943   3.514   2.373  11.333 -0.0545 -1.0784  2.9421
 4510TIP3   OH234944   3.815   5.818   5.711 -1.0365 -0.8095 -0.6224
 4510TIP3    H134945   3.761   5.894   5.691  1.3912  1.6347  1.5212
 4510TIP3    H234946   3.905   5.852   5.712  0.0558 -3.5330  1.1631
 4511TIP3   OH234947   3.993   3.429   0.980 -0.1741 -0.1962  0.2342
 4511TIP3    H134948   3.912   3.412   0.932  1.0364 -1.6639 -1.3211
 4511TIP3    H234949   4.004   3.352   1.037 -0.2252  0.3235  0.9589
 4512TIP3   OH234950   2.573   0.768   4.748 -0.2543 -0.2211 -0.6962
 4512TIP3    H134951   2.590   0.847   4.697 -1.0039  0.5566  0.2190
 4512TIP3    H234952   2.659   0.740   4.778 -0.0460  0.7104 -0.3823
 4513TIP3   OH234953   1.234   3.612   4.058  0.1105  0.0810  0.4100
 4513TIP3    H134954   1.286   3.655   3.990 -0.7245  2.0604  0.9768
 4513TIP3    H234955   1.165   3.675   4.078 -2.1282 -2.2279  0.1295
 4514TIP3   OH234956   6.430   3.756  12.974  0.9983  0.1707  0.0341
 4514TIP3    H134957   6.445   3.783  12.883  0.6044  0.2442 -0.0074
 4514TIP3    H234958   6.470   3.669  12.980 -0.6191 -0.6254 -0.7080
 4515TIP3   OH234959   2.667   0.503   4.590  0.1039 -0.0649  0.2017
 4515TIP3    H134960   2.745   0.545   4.624 -0.3426  0.8279  0.1201
 4515TIP3    H234961   2.621   0.471   4.668  0.2600 -0.0955  0.2815
 4516TIP3   OH234962   0.832   1.046  13.516 -0.1002 -0.5398 -0.1264
 4516TIP3    H134963   0.791   0.960  13.530 -1.6182  0.4781  1.8777
 4516TIP3    H234964   0.770   1.094  13.460 -0.7917  0.3451  1.3740
 4517TIP3   OH234965   0.674   6.295  12.366 -0.0627  0.2950 -0.0077
 4517TIP3    H134966   0.649   6.203  12.369  1.0294  0.0014  0.1599
 4517TIP3    H234967   0.605   6.340  12.414 -1.0031 -0.3438 -0.7467
 4518TIP3   OH234968   4.470   2.884   0.133 -0.4413 -0.2823  0.4070
 4518TIP3    H134969   4.466   2.798   0.175 -1.6142  0.5447  1.9923
 4518TIP3    H234970   4.379   2.909   0.118 -0.1779  1.4945  1.6324
 4519TIP3   OH234971   4.261   3.188  11.470  0.0808 -0.5492  0.1837
 4519TIP3    H134972   4.270   3.100  11.507  0.7016  0.0797  1.5825
 4519TIP3    H234973   4.236   3.242  11.545  2.5487  0.9946 -0.0445
 4520TIP3   OH234974   6.091   5.562   1.500 -0.4418 -0.0276 -0.3795
 4520TIP3    H134975   6.031   5.627   1.464  0.0065 -0.0617 -1.2115
 4520TIP3    H234976   6.155   5.547   1.430  1.6970  1.5024  1.1836
 4521TIP3   OH234977   5.408   6.193   1.246  0.1118  0.0291  0.2687
 4521TIP3    H134978   5.486   6.141   1.225  0.7398  1.2226 -0.4231
 4521TIP3    H234979   5.405   6.260   1.177 -1.1434  0.4101  0.6843
 4522TIP3   OH234980   0.122   5.412   3.768 -0.1698 -0.1088  0.7487
 4522TIP3    H134981   0.173   5.474   3.716 -0.5327  0.8935  1.5782
 4522TIP3    H234982   0.049   5.387   3.711 -0.3518  0.6878  0.6238
 4523TIP3   OH234983   0.621   3.497   3.383  0.5985  1.0859  0.9436
 4523TIP3    H134984   0.563   3.514   3.309  2.6828  0.8700 -0.8035
 4523TIP3    H234985   0.564   3.498   3.460 -2.3266 -2.5607 -1.0306
 4524TIP3   OH234986   5.782   3.446   2.050 -0.3288 -0.5461 -0.3857
 4524TIP3    H134987   5.747   3.517   1.995  1.2934  0.9834  0.4776
 4524TIP3    H234988   5.865   3.423   2.008  0.7573  0.4010  1.1719
 4525TIP3   OH234989   1.099   2.836  11.853 -0.0425  0.0952 -0.0256
 4525TIP3    H134990   1.059   2.866  11.934 -2.9851 -1.7339 -0.7262
 4525TIP3    H234991   1.039   2.866  11.784  0.6643 -1.2478 -1.2508
 4526TIP3   OH234992   3.499   2.256   3.274  0.3045  0.1457  0.0304
 4526TIP3    H134993   3.566   2.194   3.245  0.6782  1.0951 -1.1333
 4526TIP3    H234994   3.418   2.222   3.236 -0.0570 -1.5068  2.1739
 4527TIP3   OH234995   4.245   4.371  10.801  0.9636 -0.0808 -0.5911
 4527TIP3    H134996   4.291   4.452  10.779 -0.1135 -0.1222 -3.1599
 4527TIP3    H234997   4.313   4.304  10.804  1.5998  0.5705 -0.3265
 4528TIP3   OH234998   6.487   4.367   5.519  0.2098 -0.0077  0.2721
 4528TIP3    H134999   6.565   4.360   5.574  1.0191 -1.5422 -1.0570
 4528TIP3    H235000   6.414   4.345   5.577  1.0333 -1.3661  0.8025
 4529TIP3   OH235001   0.668   5.781   3.850  0.2411 -0.6891  0.1365
 4529TIP3    H135002   0.705   5.844   3.912  2.0778 -1.6598  0.0663
 4529TIP3    H235003   0.730   5.779   3.777 -0.0856 -2.1432 -0.1301
 4530TIP3   OH235004   0.863   6.183  12.023 -0.2038  0.1135 -0.0357
 4530TIP3    H135005   0.817   6.190  11.939 -0.7451 -2.9562 -0.0468
 4530TIP3    H235006   0.794   6.165  12.087  0.6037 -1.1194  0.4923
 4531TIP3   OH235007   5.075   0.264   0.037 -0.2215 -0.3792 -0.8589
 4531TIP3    H135008   4.996   0.317   0.046 -0.1347 -0.6681  2.0013
 4531TIP3    H235009   5.069   0.200   0.108  2.0955 -1.0572 -1.2399
 4532TIP3   OH235010   2.165   5.747  13.965 -0.7239  0.1343  0.1024
 4532TIP3    H135011   2.173   5.783  13.876  0.5384  2.5627  1.1533
 4532TIP3    H235012   2.079   5.775  13.995 -0.6988  0.2663  0.0512
 4533TIP3   OH235013   3.069   2.399  15.974  0.2388 -0.2778  0.2999
 4533TIP3    H135014   3.004   2.333  15.998  1.6115 -1.2161  1.4984
 4533TIP3    H235015   3.062   2.466  16.042 -1.5449  1.1401 -1.2195
 4534TIP3   OH235016   5.924   6.176   3.788  0.2958 -0.1751  0.0307
 4534TIP3    H135017   5.881   6.217   3.863  0.0081 -0.4689  0.0292
 4534TIP3    H235018   6.016   6.199   3.798  0.2229 -0.0057  0.3394
 4535TIP3   OH235019   6.155   5.961   1.804  0.0794 -0.1949  0.3259
 4535TIP3    H135020   6.076   5.910   1.825 -0.4834  0.9611  1.0691
 4535TIP3    H235021   6.180   6.001   1.887  1.4943 -0.5876  0.1062
 4536TIP3   OH235022   5.669   6.006   1.252  0.5581 -0.1175  0.4239
 4536TIP3    H135023   5.764   5.994   1.242  0.5870 -0.9472  1.5715
 4536TIP3    H235024   5.652   5.987   1.344 -0.7257  0.0611  0.2336
 4537TIP3   OH235025   6.568   2.114  14.223  0.1134  0.3712 -0.0363
 4537TIP3    H135026   6.507   2.150  14.287  0.4290 -0.5236  0.7867
 4537TIP3    H235027   6.600   2.033  14.263 -1.3303 -1.3612 -2.2920
 4538TIP3   OH235028   5.288   2.396   4.251  0.3455  0.0062 -0.0655
 4538TIP3    H135029   5.289   2.487   4.279  1.1839 -0.2425  0.7345
 4538TIP3    H235030   5.205   2.361   4.284  1.1038 -0.1516  1.7207
 4539TIP3   OH235031   3.626   3.498   2.940  0.2471 -0.1067 -0.5308
 4539TIP3    H135032   3.578   3.434   2.993 -1.6080  2.5360  1.1038
 4539TIP3    H235033   3.716   3.492   2.971  0.1052 -1.8299 -0.3675
 4540TIP3   OH235034   0.454   0.226  16.194  0.9697 -0.8022  0.2863
 4540TIP3    H135035   0.518   0.202  16.261  1.0872  2.7606  1.5488
 4540TIP3    H235036   0.506   0.264  16.124  0.5067 -0.8568 -0.0869
 4541TIP3   OH235037   5.142   6.212  12.300 -0.4502  0.2182  0.3578
 4541TIP3    H135038   5.138   6.155  12.223 -0.5340 -1.5785  1.6468
 4541TIP3    H235039   5.111   6.297  12.269 -3.0486 -1.1433 -1.0005
 4542TIP3   OH235040   2.621   4.547  11.213 -0.0828 -0.8238 -0.0574
 4542TIP3    H135041   2.541   4.515  11.170  0.0364 -1.8906  0.4982
 4542TIP3    H235042   2.677   4.470  11.220  0.0566 -0.5728  1.6707
 4543TIP3   OH235043   5.637   4.612   3.053  0.0347  0.3131  0.3483
 4543TIP3    H135044   5.580   4.615   2.976  1.1051  0.5710 -0.4509
 4543TIP3    H235045   5.667   4.702   3.064 -0.5008  0.3694  1.3684
 4544TIP3   OH235046   1.924   6.183   2.899 -0.7647 -0.2574  0.2309
 4544TIP3    H135047   1.963   6.121   2.960  0.6871  0.1611 -0.2597
 4544TIP3    H235048   1.865   6.236   2.953  0.1628 -0.1799  1.1718
 4545TIP3   OH235049   5.275   4.681  11.408  0.0094 -0.3986 -0.0096
 4545TIP3    H135050   5.201   4.647  11.359  0.3523 -3.4093  1.4548
 4545TIP3    H235051   5.297   4.612  11.471  4.0438  0.3946 -0.3658
 4546TIP3   OH235052   5.767   3.540   0.573 -0.5472 -0.7293 -1.6331
 4546TIP3    H135053   5.702   3.471   0.590 -2.8676  1.9555  0.8682
 4546TIP3    H235054   5.797   3.567   0.660 -1.1669  2.7512 -2.4188
 4547TIP3   OH235055   0.707   1.763  14.599 -0.3806 -0.3819 -0.5147
 4547TIP3    H135056   0.725   1.839  14.655 -1.1340 -0.3975 -0.2435
 4547TIP3    H235057   0.645   1.795  14.534 -2.1502 -1.2032  0.7053
 4548TIP3   OH235058   4.149   0.574  12.392  0.9271  0.1630  0.3835
 4548TIP3    H135059   4.054   0.584  12.386  0.7513 -1.8473 -0.6087
 4548TIP3    H235060   4.184   0.648  12.341 -0.0749  1.1935  1.1649
 4549TIP3   OH235061   4.563   6.373   5.345  0.1556 -0.0409 -0.2288
 4549TIP3    H135062   4.521   6.412   5.268  0.1526  1.2991  0.4405
 4549TIP3    H235063   4.528   6.421   5.419  1.4707 -0.1551  0.4819
 4550TIP3   OH235064   6.362   0.892   3.108  0.1969  0.4898  0.1173
 4550TIP3    H135065   6.410   0.967   3.142  1.6627  0.0668 -0.9711
 4550TIP3    H235066   6.324   0.851   3.186  0.8482  1.3456  0.9040
 4551TIP3   OH235067   1.381   0.747   4.210 -0.1931 -0.0756 -0.0190
 4551TIP3    H135068   1.330   0.814   4.254  0.2832  2.0102 -2.5399
 4551TIP3    H235069   1.472   0.765   4.235 -0.2812 -1.3464  1.2880
 4552TIP3   OH235070   0.916   4.916  17.010 -0.0050  0.0265 -0.5624
 4552TIP3    H135071   0.872   5.001  17.021  0.9357  0.2638  1.6462
 4552TIP3    H235072   0.893   4.867  17.089  0.9293 -1.1181 -0.9922
 4553TIP3   OH235073   0.779   6.720  11.268  0.5112  0.3158  0.2039
 4553TIP3    H135074   0.806   6.710  11.177 -1.2793 -4.1787  0.0209
 4553TIP3    H235075   0.693   6.762  11.264 -0.1581 -1.0634 -0.3303
 4554TIP3   OH235076   4.789   5.523  13.741 -0.0821  0.2271  0.2249
 4554TIP3    H135077   4.777   5.603  13.791 -2.0864  1.9451 -2.8651
 4554TIP3    H235078   4.715   5.467  13.767 -0.2786  0.5203  0.2947
 4555TIP3   OH235079   2.692   4.356   2.999 -0.2768 -0.2288  0.2684
 4555TIP3    H135080   2.665   4.394   3.082  0.5237  0.8425  0.0551
 4555TIP3    H235081   2.615   4.307   2.968 -0.9614  0.3304  1.0725
 4556TIP3   OH235082   0.076   6.456   4.637 -0.3953 -0.1460 -0.5849
 4556TIP3    H135083   0.001   6.450   4.697 -0.3975 -0.5251 -0.6246
 4556TIP3    H235084   0.101   6.365   4.621  0.8654  0.0089  0.4335
 4557TIP3   OH235085   3.392   0.093   1.516  0.6308 -0.0996 -0.1484
 4557TIP3    H135086   3.389   0.151   1.439 -1.8818  1.0176  0.7588
 4557TIP3    H235087   3.439   0.144   1.582  1.3395 -0.4114 -0.4092
 4558TIP3   OH235088   0.992   2.704  12.900  0.2470 -0.4216 -0.1468
 4558TIP3    H135089   0.999   2.777  12.838  0.9369 -0.9172 -0.6638
 4558TIP3    H235090   1.060   2.721  12.965 -0.1151 -0.1836  0.1613
 4559TIP3   OH235091   6.419   3.153   1.894  0.0357 -0.0789 -0.6841
 4559TIP3    H135092   6.385   3.076   1.850 -0.1520 -0.7631  0.6318
 4559TIP3    H235093   6.513   3.151   1.878  0.0680 -0.7307 -0.4267
 4560TIP3   OH235094   2.246   3.919   5.595  0.1343  0.1983 -0.1057
 4560TIP3    H135095   2.258   3.998   5.648  1.5639  1.7836 -2.6840
 4560TIP3    H235096   2.193   3.948   5.520  0.4537 -1.3391 -0.9443
 4561TIP3   OH235097   6.521   0.789  13.092 -0.4526  0.3382 -0.4393
 4561TIP3    H135098   6.484   0.822  13.010 -0.5243  0.0107 -0.5396
 4561TIP3    H235099   6.609   0.761  13.069 -0.7032 -0.3628 -0.5460
 4562TIP3   OH235100   3.443   1.730  13.875 -0.0166  0.0758 -0.3251
 4562TIP3    H135101   3.394   1.679  13.939  0.7242 -1.3779 -0.9184
 4562TIP3    H235102   3.484   1.800  13.927 -1.9657  0.7962  0.3099
 4563TIP3   OH235103   5.232   1.830  13.653 -0.2270 -0.0672  0.3935
 4563TIP3    H135104   5.221   1.748  13.606 -1.2528  0.6531 -0.6430
 4563TIP3    H235105   5.233   1.804  13.746 -2.3502 -1.0916  0.1746
 4564TIP3   OH235106   5.889   0.946   3.328  0.2260 -0.3242 -0.2268
 4564TIP3    H135107   5.869   1.002   3.253 -0.4801 -0.4703 -0.1542
 4564TIP3    H235108   5.973   0.905   3.306  0.9266  1.0366 -0.1090
 4565TIP3   OH235109   0.531   3.574  10.813  0.0461 -0.1335  0.7397
 4565TIP3    H135110   0.563   3.572  10.723 -0.3649 -0.4990  0.5990
 4565TIP3    H235111   0.596   3.625  10.861 -0.1869  0.8240  0.0529
 4566TIP3   OH235112   3.952   2.821   0.921 -0.0100  0.1053 -0.7697
 4566TIP3    H135113   3.983   2.858   0.838  1.4791  1.8285  0.5125
 4566TIP3    H235114   4.014   2.751   0.941 -1.3447 -1.4482 -1.9128
 4567TIP3   OH235115   1.104   3.079   2.070  0.3359 -0.4730 -0.1283
 4567TIP3    H135116   1.143   3.136   2.004 -0.1470 -0.1964 -0.1801
 4567TIP3    H235117   1.009   3.085   2.054  0.2927 -1.4418 -0.2637
 4568TIP3   OH235118   1.773   2.357  15.402 -0.5255  0.2882  0.2725
 4568TIP3    H135119   1.809   2.443  15.424 -1.0261  0.4104  0.6254
 4568TIP3    H235120   1.697   2.377  15.347 -0.3902  0.0564  0.0043
 4569TIP3   OH235121   3.257   0.372   0.862  0.4955 -0.0331 -0.1829
 4569TIP3    H135122   3.339   0.324   0.877 -0.5243 -1.4281  1.0497
 4569TIP3    H235123   3.189   0.317   0.901 -1.0683  1.0226 -1.3403
 4570TIP3   OH235124   0.398   0.679  13.852  1.0100 -0.1054  0.3639
 4570TIP3    H135125   0.467   0.660  13.788  0.1426  0.8923 -0.8894
 4570TIP3    H235126   0.317   0.654  13.808  0.1065  3.5827 -0.2125
 4571TIP3   OH235127   6.000   4.708  15.766 -0.0803 -0.0503 -0.2342
 4571TIP3    H135128   6.061   4.683  15.835 -0.9092 -0.3975  0.3822
 4571TIP3    H235129   5.973   4.797  15.789 -0.9309 -0.4463  0.3020
 4572TIP3   OH235130   4.726   6.148   5.376  0.1547 -0.2087  0.5486
 4572TIP3    H135131   4.802   6.207   5.375  0.0322 -0.0624  0.1326
 4572TIP3    H235132   4.653   6.201   5.344  0.5514 -1.2987 -2.2241
 4573TIP3   OH235133   5.258   4.630  14.897 -0.1887  0.1664 -0.3496
 4573TIP3    H135134   5.206   4.572  14.953 -0.5427  0.7916 -0.0329
 4573TIP3    H235135   5.327   4.573  14.861 -0.3538 -0.3823  0.1985
 4574TIP3   OH235136   0.857   5.257   2.684 -0.1308  0.5937  0.5860
 4574TIP3    H135137   0.800   5.194   2.729 -0.2869 -1.0626 -1.8468
 4574TIP3    H235138   0.930   5.205   2.652  1.5253  2.2883  1.5287
 4575TIP3   OH235139   1.875   0.306  14.408 -0.1248 -0.0963 -1.2087
 4575TIP3    H135140   1.952   0.304  14.466  0.2609  0.5044 -1.6983
 4575TIP3    H235141   1.860   0.214  14.386  0.2774 -0.2452 -0.8850
 4576TIP3   OH235142   3.978   1.589   3.825 -0.5841  0.0437 -0.1252
 4576TIP3    H135143   4.044   1.583   3.895 -0.3077  0.1430 -0.3759
 4576TIP3    H235144   3.900   1.624   3.868 -0.2392  0.6359  0.0157
 4577TIP3   OH235145   3.182   5.429   6.136  0.2151 -0.2709  0.4635
 4577TIP3    H135146   3.091   5.452   6.117 -0.0488 -0.2087  1.7562
 4577TIP3    H235147   3.194   5.342   6.098 -0.2795 -0.1306 -0.0131
 4578TIP3   OH235148   6.487   4.983   0.999  0.1029  0.1673 -0.0131
 4578TIP3    H135149   6.441   4.917   1.052 -0.5303  0.2995 -0.3926
 4578TIP3    H235150   6.417   5.032   0.956  0.5723  1.0983  0.2747
 4579TIP3   OH235151   2.738   4.318  11.140  0.0718 -0.0892 -0.1241
 4579TIP3    H135152   2.699   4.234  11.164  1.0769 -0.4086  0.3954
 4579TIP3    H235153   2.824   4.295  11.106  1.5828  0.9865  2.8830
 4580TIP3   OH235154   3.750   6.757   5.003 -0.0850 -0.1235  0.1676
 4580TIP3    H135155   3.718   6.844   4.980 -0.5131 -0.1933  0.4923
 4580TIP3    H235156   3.841   6.771   5.031  0.4844 -0.0499 -1.6554
 4581TIP3   OH235157   4.048   1.121   4.892  0.2187 -0.3063  0.4507
 4581TIP3    H135158   4.065   1.181   4.965 -2.8302  0.1412  0.8418
 4581TIP3    H235159   4.023   1.178   4.819 -2.6175 -1.0541  0.8014
 4582TIP3   OH235160   4.801   0.518   2.592  0.2816 -0.0503 -0.2258
 4582TIP3    H135161   4.873   0.495   2.534 -0.1397  0.1248 -0.8328
 4582TIP3    H235162   4.728   0.464   2.562 -0.1236  0.5267 -0.2981
 4583TIP3   OH235163   4.919   4.384  13.726 -0.1176  0.3722  0.4830
 4583TIP3    H135164   4.933   4.289  13.721 -1.4721  0.2517 -1.2539
 4583TIP3    H235165   4.861   4.396  13.801  0.1168 -0.1549  0.7513
 4584TIP3   OH235166   2.444   3.946   3.657  0.1196  0.1978  0.1951
 4584TIP3    H135167   2.537   3.943   3.636 -0.1305 -0.2725 -0.9152
 4584TIP3    H235168   2.407   4.004   3.590 -0.5679 -0.5895 -0.1195
 4585TIP3   OH235169   6.633   5.319  14.173 -0.4634 -0.3239  0.3770
 4585TIP3    H135170   6.573   5.324  14.098  1.8815  0.1569 -1.5414
 4585TIP3    H235171   6.684   5.239  14.156  0.2851 -0.0434  1.3094
 4586TIP3   OH235172   2.844   0.702  13.528 -0.4607 -0.3646  0.1704
 4586TIP3    H135173   2.880   0.738  13.609 -0.0242 -0.7999  0.1697
 4586TIP3    H235174   2.749   0.702  13.543 -0.4750  0.8689  0.1261
 4587TIP3   OH235175   2.263   5.863   5.720  0.4095  0.0683  0.2133
 4587TIP3    H135176   2.300   5.948   5.742  0.8792  0.6223 -2.5646
 4587TIP3    H235177   2.339   5.810   5.692 -0.1810 -0.5233 -0.2827
 4588TIP3   OH235178   3.182   2.457  11.803  0.3046  0.1531 -0.3000
 4588TIP3    H135179   3.230   2.375  11.794  0.6084  0.2543  0.3190
 4588TIP3    H235180   3.100   2.432  11.846 -0.1030  0.0104 -1.1641
 4589TIP3   OH235181   4.035   0.370   5.142 -0.0852 -0.4062  0.4283
 4589TIP3    H135182   4.104   0.378   5.209  0.4551 -0.5021 -0.1109
 4589TIP3    H235183   4.063   0.429   5.072 -1.1867  0.4894  0.7284
 4590TIP3   OH235184   0.183   5.731  11.972  0.7023  0.1461 -0.6535
 4590TIP3    H135185   0.146   5.819  11.977  1.4773  0.4668 -0.4506
 4590TIP3    H235186   0.164   5.693  12.058  0.7151  0.2601 -0.5995
 4591TIP3   OH235187   3.118   1.309   4.554  0.2536 -0.1017 -0.0417
 4591TIP3    H135188   3.056   1.251   4.510  0.0543 -1.1542  1.5930
 4591TIP3    H235189   3.200   1.297   4.505 -0.0369 -1.0512 -0.3129
 4592TIP3   OH235190   5.146   4.737   0.060  0.8252  0.4774 -0.6405
 4592TIP3    H135191   5.217   4.767   0.004 -0.2048 -0.6006 -2.5698
 4592TIP3    H235192   5.081   4.807   0.056 -0.4414 -0.7763 -3.0490
 4593TIP3   OH235193   0.419   4.825   2.560 -0.1844  0.0928  0.1466
 4593TIP3    H135194   0.405   4.919   2.574 -0.1485  0.5181 -2.3917
 4593TIP3    H235195   0.332   4.790   2.541  0.1931  0.2144 -1.9694
 4594TIP3   OH235196   3.270   0.680  13.906 -0.8319 -0.0313  0.7118
 4594TIP3    H135197   3.265   0.648  13.816 -0.6308 -2.2728  1.4679
 4594TIP3    H235198   3.343   0.742  13.905 -0.0230 -0.9652 -0.4255
 4595TIP3   OH235199   4.234   1.637  15.333 -0.3269 -0.4594  0.1313
 4595TIP3    H135200   4.306   1.582  15.302  0.9030  1.0409  0.3003
 4595TIP3    H235201   4.273   1.691  15.402 -1.3212  1.1960 -0.5882
 4596TIP3   OH235202   0.167   1.247  16.935  0.1504 -0.2035  0.4502
 4596TIP3    H135203   0.195   1.257  16.844 -1.5714  3.2571  0.1827
 4596TIP3    H235204   0.209   1.320  16.980 -3.0466  1.1567  1.3369
 4597TIP3   OH235205   0.691   6.660   5.742  0.2081 -0.6475  0.7990
 4597TIP3    H135206   0.671   6.682   5.651  2.3576  0.3154  0.5316
 4597TIP3    H235207   0.651   6.731   5.793  0.8967  0.0064  0.4399
 4598TIP3   OH235208   6.705   4.462   1.715 -0.0450  0.4986 -0.0069
 4598TIP3    H135209   6.796   4.434   1.703 -0.3904 -0.6982  0.1111
 4598TIP3    H235210   6.679   4.494   1.628  0.4625  0.7938 -0.0569
 4599TIP3   OH235211   6.246   0.144   5.295 -0.9198 -0.5063 -0.1833
 4599TIP3    H135212   6.219   0.058   5.329 -0.7741 -0.1603  0.8475
 4599TIP3    H235213   6.273   0.192   5.373  1.5182 -0.4060 -1.0540
 4600TIP3   OH235214   1.384   6.734   2.248 -0.3746  0.6232 -0.3738
 4600TIP3    H135215   1.436   6.677   2.192  0.5693  2.0457 -0.9373
 4600TIP3    H235216   1.354   6.676   2.319 -2.3148 -1.4022 -2.7453
 4601TIP3   OH235217   4.836   2.213  13.055 -0.1852 -0.6075  0.3819
 4601TIP3    H135218   4.804   2.300  13.079  0.8854 -0.6204  1.9775
 4601TIP3    H235219   4.772   2.153  13.093 -1.4194 -0.5132 -1.5086
 4602TIP3   OH235220   4.706   6.074   4.639  0.0398  0.3705  0.2942
 4602TIP3    H135221   4.701   6.169   4.651 -0.4515  0.6206 -1.7425
 4602TIP3    H235222   4.616   6.047   4.623  0.2901 -0.3016 -0.0205
 4603TIP3   OH235223   5.630   0.430  15.538 -0.3243 -0.3375  0.0430
 4603TIP3    H135224   5.712   0.403  15.497 -0.1805  1.0799 -0.6319
 4603TIP3    H235225   5.632   0.526  15.534 -1.9282 -0.2961  0.1904
 4604TIP3   OH235226   3.617   5.262  12.674  0.4987  0.3042  0.0052
 4604TIP3    H135227   3.541   5.215  12.709  1.3004 -0.3785  0.8378
 4604TIP3    H235228   3.587   5.296  12.590 -0.1375 -1.5944 -0.5484
 4605TIP3   OH235229   2.085   6.415  12.439  0.3428 -0.3821  0.6769
 4605TIP3    H135230   2.098   6.494  12.386  0.3549 -0.0828  1.1261
 4605TIP3    H235231   2.143   6.350  12.400 -0.7585 -0.6031 -0.6164
 4606TIP3   OH235232   2.441   4.082   1.577  0.0667  0.2419  0.1929
 4606TIP3    H135233   2.391   4.163   1.590 -1.0756 -0.5947  1.1079
 4606TIP3    H235234   2.415   4.051   1.490  0.1793  0.6392  0.0189
 4607TIP3   OH235235   0.140   0.585  14.919 -0.6287  0.3544 -0.0701
 4607TIP3    H135236   0.137   0.567  14.825  1.8134 -0.2554 -0.0728
 4607TIP3    H235237   0.133   0.681  14.926  0.0279  0.4681 -0.9292
 4608TIP3   OH235238   4.330   2.407  11.233 -0.3691 -0.5223  0.0987
 4608TIP3    H135239   4.368   2.490  11.262 -1.6241 -0.4297  1.5776
 4608TIP3    H235240   4.259   2.433  11.174 -0.5039 -0.5467  0.2487
 4609TIP3   OH235241   5.891   6.638  11.026 -0.5860 -0.3244  0.0573
 4609TIP3    H135242   5.868   6.568  10.964 -0.1717  0.0625 -0.5311
 4609TIP3    H235243   5.940   6.701  10.974  1.3162 -0.8470  1.1772
 4610TIP3   OH235244   0.176   6.437  11.842 -0.6941  0.8210  0.3685
 4610TIP3    H135245   0.223   6.427  11.759 -1.0428  0.1969  0.2443
 4610TIP3    H235246   0.095   6.482  11.818 -0.7187  0.7913  0.3955
 4611TIP3   OH235247   2.472   2.382   2.805  0.9509 -0.0587 -0.3946
 4611TIP3    H135248   2.475   2.379   2.710  0.1238  1.0964 -0.4616
 4611TIP3    H235249   2.417   2.457   2.826  1.0038 -0.3811  0.9969
 4612TIP3   OH235250   5.207   4.698  16.968  0.4079  0.4247  0.0007
 4612TIP3    H135251   5.164   4.772  17.011  1.3637  1.4661 -0.8189
 4612TIP3    H235252   5.175   4.701  16.878 -0.6168 -1.0028  0.2956
 4613TIP3   OH235253   1.810   0.389  10.976  0.3981  0.0120 -0.2096
 4613TIP3    H135254   1.821   0.474  10.935  0.4830 -0.3260 -0.8870
 4613TIP3    H235255   1.878   0.334  10.938  0.3699 -0.3504  0.2528
 4614TIP3   OH235256   5.420   0.769  14.358  0.4709  0.0249 -0.1261
 4614TIP3    H135257   5.392   0.826  14.287  0.4255  0.3287  0.1358
 4614TIP3    H235258   5.411   0.822  14.437  0.6059 -0.2812  0.0983
 4615TIP3   OH235259   5.347   6.395   2.493  0.2202 -0.1586 -0.1731
 4615TIP3    H135260   5.426   6.357   2.531  2.4468  2.5416 -1.9049
 4615TIP3    H235261   5.340   6.482   2.534 -2.0478 -0.4663  0.1875
 4616TIP3   OH235262   2.348   2.954  15.878 -0.4847 -0.4384 -0.1806
 4616TIP3    H135263   2.279   2.951  15.943  0.4720 -0.3329  0.8469
 4616TIP3    H235264   2.425   2.918  15.922  0.0036 -1.0240 -1.4641
 4617TIP3   OH235265   3.491   4.050  13.420 -0.4302 -0.4720 -0.1073
 4617TIP3    H135266   3.516   3.985  13.355 -0.0319  1.5762 -2.0934
 4617TIP3    H235267   3.573   4.081  13.457 -0.6013 -0.8733  0.6214
 4618TIP3   OH235268   1.151   6.098  12.160  0.0054  0.5695  0.2507
 4618TIP3    H135269   1.198   6.051  12.090 -0.6748  0.5644 -0.2102
 4618TIP3    H235270   1.174   6.050  12.240 -1.6788 -1.3537 -0.3774
 4619TIP3   OH235271   6.758   3.348  15.572  0.0169  0.4980  0.1300
 4619TIP3    H135272   6.706   3.313  15.500  1.7757 -1.2920 -0.2790
 4619TIP3    H235273   6.723   3.305  15.650  0.9151 -0.7479 -0.1513
 4620TIP3   OH235274   5.454   0.778   1.171  0.0779 -0.1345 -0.5532
 4620TIP3    H135275   5.475   0.824   1.090 -0.0092  3.1079  1.1882
 4620TIP3    H235276   5.359   0.766   1.168 -0.2716  2.1782  0.1144
 4621TIP3   OH235277   1.087   6.536   1.204 -0.1201  0.3324 -0.0847
 4621TIP3    H135278   1.104   6.442   1.198  1.6739  0.4898  1.8215
 4621TIP3    H235279   1.148   6.575   1.141 -0.6245  0.2328 -0.6312
 4622TIP3   OH235280   3.680   0.665   5.610 -0.0999  0.1882 -0.6482
 4622TIP3    H135281   3.743   0.655   5.539 -0.3588  1.4203 -1.0450
 4622TIP3    H235282   3.613   0.724   5.576 -1.4324 -1.0173 -0.1893
 4623TIP3   OH235283   6.574   2.665  15.733 -0.1388  0.0090 -0.1919
 4623TIP3    H135284   6.630   2.594  15.702 -0.2319 -0.0044 -0.3262
 4623TIP3    H235285   6.633   2.738  15.747 -0.3605  0.5751 -2.1072
 4624TIP3   OH235286   4.765   3.661  15.577 -0.1763  0.3996 -0.5714
 4624TIP3    H135287   4.759   3.608  15.657 -2.5283  0.9366 -0.3423
 4624TIP3    H235288   4.829   3.729  15.598 -0.5770  0.3716  0.7791
 4625TIP3   OH235289   1.410   2.267   5.178 -0.5716  0.2344  0.1600
 4625TIP3    H135290   1.402   2.213   5.100  0.8559 -0.5521  0.5350
 4625TIP3    H235291   1.322   2.303   5.193 -1.0349 -0.2815 -1.3109
 4626TIP3   OH235292   1.425   1.597   2.247  0.3348  0.3392  0.7978
 4626TIP3    H135293   1.431   1.649   2.328  2.1981 -0.1815  1.0149
 4626TIP3    H235294   1.513   1.601   2.210 -0.3122 -0.0938 -0.8051
 4627TIP3   OH235295   0.859   2.075  11.472 -0.0558 -0.3088  0.2784
 4627TIP3    H135296   0.769   2.048  11.488 -1.0831  2.1595 -1.0185
 4627TIP3    H235297   0.904   2.058  11.555 -2.2217  0.3819  1.6413
 4628TIP3   OH235298   4.016   1.306  16.434 -0.1789 -0.1681  0.4761
 4628TIP3    H135299   4.056   1.342  16.354  0.9188 -2.3344  0.0127
 4628TIP3    H235300   3.936   1.358  16.447  0.4463  1.2342 -1.1426
 4629TIP3   OH235301   1.505   6.499   0.895 -0.0109 -0.4348 -0.1456
 4629TIP3    H135302   1.486   6.444   0.819  0.1428  1.5497 -1.6756
 4629TIP3    H235303   1.600   6.512   0.891 -0.2086  0.9403 -0.5273
 4630TIP3   OH235304   1.083   2.067   5.179  0.0753 -0.1840  0.7270
 4630TIP3    H135305   1.021   2.051   5.109  1.2881  1.0432 -0.6541
 4630TIP3    H235306   1.068   2.158   5.205  0.0397 -0.4446  1.6607
 4631TIP3   OH235307   0.608   3.043   0.006 -0.8338  0.5232 -0.5453
 4631TIP3    H135308   0.610   2.949   0.024  0.4016  0.2731 -1.8734
 4631TIP3    H235309   0.613   3.084   0.092 -2.1997 -0.6176  0.0989
 4632TIP3   OH235310   5.389   2.058   6.039  0.1372 -0.0772  1.0431
 4632TIP3    H135311   5.326   2.029   6.104 -0.0343  0.5894  1.1808
 4632TIP3    H235312   5.335   2.091   5.967  0.3292  0.1973  1.0253
 4633TIP3   OH235313   3.691   0.753   6.051 -0.0219 -0.4334  0.5310
 4633TIP3    H135314   3.599   0.749   6.076  0.4736  0.6497  2.6533
 4633TIP3    H235315   3.728   0.671   6.083  0.4410  0.6011  2.7106
 4634TIP3   OH235316   2.084   6.674   2.926  0.1407 -0.5049 -0.1020
 4634TIP3    H135317   2.167   6.687   2.973  0.3207  1.5492 -0.9610
 4634TIP3    H235318   2.103   6.601   2.866  1.5941  0.4961 -0.8911
 4635TIP3   OH235319   6.511   2.776   3.777  0.2805 -0.1769 -0.2290
 4635TIP3    H135320   6.545   2.781   3.688 -0.6420 -0.9094 -0.6297
 4635TIP3    H235321   6.526   2.685   3.803  0.7061  0.0822  0.4218
 4636TIP3   OH235322   3.198   6.550   2.758 -0.0246  0.2564 -0.3867
 4636TIP3    H135323   3.287   6.576   2.782 -0.2192  1.2219 -0.6848
 4636TIP3    H235324   3.158   6.521   2.840  1.0041 -1.5106 -0.4941
 4637TIP3   OH235325   3.733   3.810  13.004  0.4629 -0.4797 -0.8629
 4637TIP3    H135326   3.802   3.757  13.045  0.4472  1.6156  2.0632
 4637TIP3    H235327   3.655   3.756  13.010  0.8770 -0.9832  0.2509
 4638TIP3   OH235328   2.178   6.403   2.749  0.2774 -0.2010 -0.0666
 4638TIP3    H135329   2.243   6.434   2.686  0.4638 -0.3999  0.0246
 4638TIP3    H235330   2.230   6.367   2.821  0.0683 -0.5896 -0.1049
 4639TIP3   OH235331   2.642   1.726   0.633 -0.0240 -0.2593  0.4531
 4639TIP3    H135332   2.697   1.787   0.681 -0.7581  2.2519 -1.8233
 4639TIP3    H235333   2.556   1.768   0.629 -1.0790 -2.3391  0.5632
 4640TIP3   OH235334   4.515   3.823   2.932  0.5571 -0.7313 -0.7357
 4640TIP3    H135335   4.583   3.810   2.998  0.0029  0.9354  0.1745
 4640TIP3    H235336   4.432   3.810   2.979  0.1461  0.8901 -0.9744
 4641TIP3   OH235337   2.280   3.546  12.941 -0.1439 -0.0469  0.2024
 4641TIP3    H135338   2.357   3.601  12.955  0.2969 -0.7600  0.5639
 4641TIP3    H235339   2.258   3.513  13.029 -1.1404  0.5268  0.1815
 4642TIP3   OH235340   2.967   4.687   3.127 -0.3712  0.0933  0.0591
 4642TIP3    H135341   2.946   4.594   3.138  1.1836 -0.1505  1.0594
 4642TIP3    H235342   3.063   4.690   3.126 -0.4127  1.7074  0.1791
 4643TIP3   OH235343   0.005   6.056   3.262  0.1613  0.0137  0.0350
 4643TIP3    H135344   0.001   6.116   3.337 -0.5970 -1.3711  1.1198
 4643TIP3    H235345   0.077   6.090   3.209  2.7356 -0.7117  2.9010
 4644TIP3   OH235346   4.208   1.038   0.423 -0.1203  0.0081 -0.3918
 4644TIP3    H135347   4.124   1.066   0.386  0.0617  1.3187  0.1409
 4644TIP3    H235348   4.272   1.058   0.355  0.0158  0.9585  0.0078
 4645TIP3   OH235349   4.075   2.386   4.686  0.3294 -0.3715 -0.2291
 4645TIP3    H135350   3.995   2.383   4.739  0.3177  2.5603  0.0090
 4645TIP3    H235351   4.130   2.315   4.720 -1.2856 -1.0361  1.0382
 4646TIP3   OH235352   4.327   2.050   2.164  0.0583  0.0342 -0.0312
 4646TIP3    H135353   4.384   2.124   2.144 -0.9058  0.8435  0.1926
 4646TIP3    H235354   4.269   2.082   2.233 -0.3900 -0.9200  0.0479
 4647TIP3   OH235355   5.297   1.052  15.689 -0.2476  0.1713  0.3930
 4647TIP3    H135356   5.299   1.145  15.668  2.6116 -0.0578 -0.5310
 4647TIP3    H235357   5.284   1.008  15.605  1.1215 -0.3508  0.4397
 4648TIP3   OH235358   5.361   5.021  13.054 -0.4020 -0.1283 -0.0506
 4648TIP3    H135359   5.308   5.022  12.974 -0.3918  2.1409 -0.0627
 4648TIP3    H235360   5.415   5.099  13.048  0.1983 -0.3730  1.7921
 4649TIP3   OH235361   5.723   4.404   0.995 -0.0132  0.2623 -0.0273
 4649TIP3    H135362   5.738   4.361   0.912  0.4682  0.8772 -0.2601
 4649TIP3    H235363   5.804   4.451   1.014  0.2094 -0.6104  1.2347
 4650TIP3   OH235364   3.393   4.754  12.984  0.3171  0.6408 -0.1741
 4650TIP3    H135365   3.478   4.748  13.027  0.5906 -1.2426 -0.9060
 4650TIP3    H235366   3.414   4.750  12.890 -0.6151 -0.3906 -0.3426
 4651TIP3   OH235367   1.669   4.886  12.758 -0.0280  0.2779 -0.4520
 4651TIP3    H135368   1.720   4.866  12.679  0.3557 -0.7633  0.0489
 4651TIP3    H235369   1.714   4.839  12.828 -0.3344  1.2429  0.4026
 4652TIP3   OH235370   1.675   0.720   0.793  0.3281  0.5566 -0.5087
 4652TIP3    H135371   1.758   0.687   0.828  0.1741  0.3171 -0.3779
 4652TIP3    H235372   1.615   0.646   0.797 -0.5594  1.3695  1.5136
 4653TIP3   OH235373   6.416   1.917  11.394 -0.2895  0.4895 -0.7368
 4653TIP3    H135374   6.370   1.934  11.311 -1.3327 -1.0380 -0.4830
 4653TIP3    H235375   6.476   1.845  11.373 -1.8326 -1.1107  0.2688
 4654TIP3   OH235376   3.903   5.128   5.209 -0.2283  0.5630  0.2149
 4654TIP3    H135377   3.815   5.101   5.235 -0.1506 -2.6926 -2.5820
 4654TIP3    H235378   3.961   5.077   5.266 -0.1462 -0.8129 -1.0697
 4655TIP3   OH235379   3.224   4.608  11.393 -0.5326 -0.0547 -0.2992
 4655TIP3    H135380   3.283   4.640  11.324 -1.8652  0.9805 -0.9736
 4655TIP3    H235381   3.139   4.603  11.351 -1.1501 -0.4516  0.9895
 4656TIP3   OH235382   2.284   5.094  11.599  0.3735 -0.3266  0.5371
 4656TIP3    H135383   2.361   5.150  11.589  0.3322 -0.5669 -1.3225
 4656TIP3    H235384   2.210   5.151  11.577 -0.0038 -0.1241  2.2183
 4657TIP3   OH235385   5.416   3.887  13.370 -0.3298 -0.3094  0.2997
 4657TIP3    H135386   5.450   3.975  13.355  0.7161 -0.9517 -1.2124
 4657TIP3    H235387   5.481   3.844  13.425 -0.6337 -0.2852  0.6853
 4658TIP3   OH235388   4.042   1.247  16.090 -0.2624  0.0346 -0.1009
 4658TIP3    H135389   4.059   1.300  16.168 -1.2786  0.4597 -0.1560
 4658TIP3    H235390   4.078   1.297  16.018 -1.0918  0.5907 -0.1370
 4659TIP3   OH235391   2.362   4.818   1.000 -0.0677  0.2035 -0.3494
 4659TIP3    H135392   2.339   4.752   1.066  4.4456 -1.2007 -0.0380
 4659TIP3    H235393   2.332   4.781   0.917 -0.3682 -0.7859  0.1940
 4660TIP3   OH235394   0.075   0.513  12.892  0.1693  0.3522 -0.3265
 4660TIP3    H135395   0.153   0.525  12.838  0.9453 -1.1314  0.4338
 4660TIP3    H235396   0.058   0.419  12.890 -2.2930  0.7755 -1.4085
 4661TIP3   OH235397   1.697   4.244   2.311 -0.5073  0.2868 -0.5254
 4661TIP3    H135398   1.713   4.174   2.374  0.4955  0.1390 -0.9281
 4661TIP3    H235399   1.762   4.311   2.333 -0.7372  0.6104 -0.8327
 4662TIP3   OH235400   2.102   0.752   5.377 -0.2246 -0.4683  0.0382
 4662TIP3    H135401   2.065   0.746   5.288 -1.9400 -2.5849  0.8626
 4662TIP3    H235402   2.091   0.664   5.413 -0.0291  0.5236  2.5564
 4663TIP3   OH235403   2.749   4.276  12.554 -0.2241  0.3297 -0.2169
 4663TIP3    H135404   2.834   4.284  12.510 -0.0687 -1.8109 -0.3346
 4663TIP3    H235405   2.772   4.267  12.647 -0.4047  1.4000 -0.0652
 4664TIP3   OH235406   6.733   2.808  14.492 -0.0134  0.7888 -0.7863
 4664TIP3    H135407   6.780   2.779  14.413  0.8060 -1.3302  0.4156
 4664TIP3    H235408   6.787   2.878  14.527 -0.1602  1.4585 -1.8699
 4665TIP3   OH235409   3.469   5.468   5.890  0.5779  0.0284 -0.1723
 4665TIP3    H135410   3.487   5.537   5.826  1.6781  0.1651  0.2776
 4665TIP3    H235411   3.554   5.429   5.908  0.0002 -1.2775 -0.2132
 4666TIP3   OH235412   2.732   1.850  15.979  0.8092 -0.0892 -0.7442
 4666TIP3    H135413   2.735   1.781  15.913  1.0226  0.1628 -1.0001
 4666TIP3    H235414   2.641   1.851  16.009  0.9114 -0.7919 -0.4068
 4667TIP3   OH235415   0.317   1.709   6.507  0.2990  0.0314  0.3817
 4667TIP3    H135416   0.410   1.713   6.484  0.4506 -0.5320  0.8747
 4667TIP3    H235417   0.312   1.745   6.595 -0.2699  2.1091 -0.4638
 4668TIP3   OH235418   3.536   0.019  11.837 -0.3350  0.9487 -0.1553
 4668TIP3    H135419   3.527   0.103  11.792  2.5270  1.7765  0.6892
 4668TIP3    H235420   3.618  -0.018  11.804 -0.1163 -0.1681  1.5499
 4669TIP3   OH235421   2.247   4.444  13.325 -0.0133  0.3319 -0.3293
 4669TIP3    H135422   2.339   4.425  13.311  0.1359 -0.1714  1.3258
 4669TIP3    H235423   2.230   4.422  13.416 -1.5554  1.2773 -0.3515
 4670TIP3   OH235424   2.556   0.004  13.482 -0.3744  0.1245  0.1687
 4670TIP3    H135425   2.618  -0.046  13.429  0.3310  0.6245  0.5171
 4670TIP3    H235426   2.576  -0.021  13.572 -1.8345 -1.0255  0.2012
 4671TIP3   OH235427   1.591   0.315   2.376 -0.3629 -0.5437  0.1682
 4671TIP3    H135428   1.660   0.274   2.324  1.7654  0.4719  2.1569
 4671TIP3    H235429   1.560   0.246   2.434 -1.2184 -1.0685 -0.8966
 4672TIP3   OH235430   4.187   4.820   2.770 -0.1192  0.4975  0.2368
 4672TIP3    H135431   4.183   4.814   2.866  0.8439  1.4316  0.3348
 4672TIP3    H235432   4.278   4.802   2.749 -0.1001  1.3565 -0.4293
 4673TIP3   OH235433   0.315   2.093   0.252 -0.2050  0.1774  0.0670
 4673TIP3    H135434   0.288   2.004   0.229  0.4408 -0.0096  0.0266
 4673TIP3    H235435   0.370   2.121   0.179  3.1620 -1.0017  2.0270
 4674TIP3   OH235436   4.893   2.022  12.265 -0.7540 -0.0185 -0.3728
 4674TIP3    H135437   4.953   1.981  12.326  0.8544  0.9598 -1.2607
 4674TIP3    H235438   4.947   2.086  12.217 -2.8028  1.9962 -0.1120
 4675TIP3   OH235439   4.466   3.635  16.959 -0.1091  0.1498 -0.5282
 4675TIP3    H135440   4.385   3.592  16.929  0.5309 -0.6969 -1.0812
 4675TIP3    H235441   4.512   3.566  17.009 -0.0205  0.8150  0.3218
 4676TIP3   OH235442   6.573   1.872  12.327  0.0908  0.0666  0.3577
 4676TIP3    H135443   6.657   1.846  12.289  0.8636  0.2706  1.8761
 4676TIP3    H235444   6.510   1.862  12.256  1.4762  0.3383 -0.9262
 4677TIP3   OH235445   3.694   5.293  14.480 -0.4878  0.3996  0.2827
 4677TIP3    H135446   3.667   5.265  14.568 -1.4304 -0.5265 -0.2897
 4677TIP3    H235447   3.785   5.265  14.472 -1.1402 -1.7638  0.0479
 4678TIP3   OH235448   2.719   4.396  16.745 -0.4243  0.0723 -0.4495
 4678TIP3    H135449   2.721   4.320  16.803 -1.5192  0.6318  0.3400
 4678TIP3    H235450   2.705   4.360  16.657 -3.4866 -0.5096  0.2303
 4679TIP3   OH235451   4.436   2.270   5.813 -0.7911 -1.2333  0.4967
 4679TIP3    H135452   4.468   2.180   5.805 -1.1524 -1.3052 -0.1456
 4679TIP3    H235453   4.491   2.321   5.753 -1.7983 -1.3428 -0.5403
 4680TIP3   OH235454   2.228   5.003  16.459  0.0735  0.5839 -0.4746
 4680TIP3    H135455   2.133   5.000  16.446  0.0357  0.6156 -0.2029
 4680TIP3    H235456   2.261   4.924  16.414 -0.5141 -1.8324  3.1404
 4681TIP3   OH235457   6.735   3.863  17.175  0.3082 -0.5817  0.2512
 4681TIP3    H135458   6.763   3.947  17.211  0.3018 -0.4241 -0.1117
 4681TIP3    H235459   6.643   3.855  17.202  0.4575 -0.7099  0.7234
 4682TIP3   OH235460   3.439   3.083  10.731  0.1441  0.3429  0.1425
 4682TIP3    H135461   3.406   3.172  10.713 -1.9262 -0.2307  0.9628
 4682TIP3    H235462   3.459   3.084  10.824 -0.6682 -0.2986  0.3233
 4683TIP3   OH235463   1.365   6.701  16.511  0.3942  0.1072 -0.6240
 4683TIP3    H135464   1.399   6.790  16.498 -0.0444  0.5949  1.2954
 4683TIP3    H235465   1.272   6.713  16.531  0.2815 -0.7907 -0.5885
 4684TIP3   OH235466   5.398   1.441   3.027  0.3820 -0.6731 -0.2356
 4684TIP3    H135467   5.416   1.524   2.983  2.8212 -0.8977  0.3112
 4684TIP3    H235468   5.439   1.375   2.971 -1.3735 -1.5270 -0.5628
 4685TIP3   OH235469   4.065   0.486   5.839  0.0507  0.1920  0.3622
 4685TIP3    H135470   3.994   0.548   5.825  1.4421  1.9430  0.7640
 4685TIP3    H235471   4.097   0.507   5.927  1.6213  0.0402 -0.1605
 4686TIP3   OH235472   5.296   6.585   2.037  0.1421  0.1509  0.1169
 4686TIP3    H135473   5.327   6.495   2.026  0.8321  0.3496  0.4239
 4686TIP3    H235474   5.349   6.636   1.976 -0.8248  0.2346 -0.6707
 4687TIP3   OH235475   1.700   1.885  13.646 -0.0372  0.5778 -0.1823
 4687TIP3    H135476   1.793   1.906  13.641  0.3734 -0.8496  0.7756
 4687TIP3    H235477   1.670   1.925  13.728  0.0986 -0.2003  0.2575
 4688TIP3   OH235478   5.770   5.793  16.873 -0.4142  0.1297  0.0208
 4688TIP3    H135479   5.722   5.749  16.803  1.4457  1.8267 -2.4133
 4688TIP3    H235480   5.842   5.838  16.828  0.0168  2.4248  2.8595
 4689TIP3   OH235481   6.252   6.366   0.676  0.1479  0.0593 -0.2437
 4689TIP3    H135482   6.213   6.450   0.654 -0.3092 -0.7330 -2.6863
 4689TIP3    H235483   6.183   6.318   0.722 -0.2271  0.3197 -0.5346
 4690TIP3   OH235484   2.390   0.517   5.222 -0.3449 -0.2234 -0.0655
 4690TIP3    H135485   2.322   0.537   5.158 -1.5655 -1.1047  0.9412
 4690TIP3    H235486   2.366   0.568   5.300  0.1086 -0.5776  0.3100
 4691TIP3   OH235487   4.898   0.849  14.756  0.4365 -0.1206 -0.2269
 4691TIP3    H135488   4.805   0.830  14.757  0.7930 -1.9073  0.4350
 4691TIP3    H235489   4.936   0.789  14.820  1.9431  1.1213  0.0794
 4692TIP3   OH235490   6.139   0.482   4.675 -0.0553 -0.0712 -0.1595
 4692TIP3    H135491   6.072   0.531   4.724  0.7119 -0.9913  1.8605
 4692TIP3    H235492   6.187   0.550   4.627 -0.6786  0.8968  0.5498
 4693TIP3   OH235493   5.470   3.960   6.174 -0.3403 -0.1114  0.2217
 4693TIP3    H135494   5.440   3.927   6.258  1.0174 -1.4714  0.1859
 4693TIP3    H235495   5.562   3.933   6.169  0.1049  1.5403 -0.8933
 4694TIP3   OH235496   0.199   2.025  15.402 -0.3681  0.2034  0.2860
 4694TIP3    H135497   0.157   2.015  15.488  0.2525  0.6571  0.6471
 4694TIP3    H235498   0.258   1.950  15.396 -0.3275  0.2331  0.3104
 4695TIP3   OH235499   6.696   3.919   3.676  0.3338 -0.1066 -0.0341
 4695TIP3    H135500   6.626   3.912   3.611 -0.2247 -0.0359  0.5474
 4695TIP3    H235501   6.775   3.889   3.631 -0.1197 -0.4218 -0.6216
 4696TIP3   OH235502   0.204   3.286  14.679  0.0278  0.2411 -0.4659
 4696TIP3    H135503   0.109   3.295  14.674 -0.1943 -1.1183  1.0234
 4696TIP3    H235504   0.234   3.373  14.707 -0.8970  0.2481  0.5297
 4697TIP3   OH235505   4.499   0.668  16.451  0.3489  0.1781 -0.4997
 4697TIP3    H135506   4.409   0.698  16.462  0.0030 -0.9152 -0.2482
 4697TIP3    H235507   4.517   0.676  16.357 -0.8379 -1.8212 -0.9325
 4698TIP3   OH235508   1.114   5.389   2.272 -0.0605 -0.0917 -0.4308
 4698TIP3    H135509   1.058   5.456   2.233  1.0720 -0.2904 -2.4431
 4698TIP3    H235510   1.159   5.434   2.343 -0.7497  0.7699 -0.5353
 4699TIP3   OH235511   2.042   3.306  11.936 -0.4426  0.8182  0.2180
 4699TIP3    H135512   2.016   3.299  12.028 -2.6681 -0.6957 -0.4871
 4699TIP3    H235513   1.987   3.377  11.902 -2.3936 -1.1487 -0.8340
 4700TIP3   OH235514   0.064   3.483  16.037 -0.2545 -0.9605  0.1800
 4700TIP3    H135515  -0.013   3.538  16.049  1.4729  1.3144  1.3073
 4700TIP3    H235516   0.074   3.474  15.942 -1.9518 -1.4012  0.0341
 4701TIP3   OH235517   6.546   3.944   4.372  0.3162 -0.1182  0.0684
 4701TIP3    H135518   6.558   3.957   4.278  0.5968  0.9896  0.2509
 4701TIP3    H235519   6.497   3.862   4.379 -3.3520  1.8561 -1.2454
 4702TIP3   OH235520   1.034   2.106   4.601 -0.1668 -0.6480  0.0384
 4702TIP3    H135521   0.989   2.184   4.635  0.3181 -0.1680 -0.4228
 4702TIP3    H235522   0.992   2.033   4.647  0.7083  0.0146  1.9496
 4703TIP3   OH235523   3.588   2.544  14.120  0.3637 -0.0909 -0.1723
 4703TIP3    H135524   3.652   2.527  14.189 -1.2088 -2.7505  0.7126
 4703TIP3    H235525   3.506   2.562  14.166 -0.1233  0.7853 -1.3309
 4704TIP3   OH235526   4.560   3.767   5.209 -0.8665 -0.0440 -0.5330
 4704TIP3    H135527   4.651   3.798   5.208 -0.5335 -0.9794  0.3192
 4704TIP3    H235528   4.540   3.750   5.116 -0.4317  0.9062 -0.8044
 4705TIP3   OH235529   5.351   3.206   4.029  0.7283 -0.4654 -0.1759
 4705TIP3    H135530   5.358   3.295   3.996  1.5393 -1.1690 -1.9616
 4705TIP3    H235531   5.309   3.215   4.115 -1.5684  1.4198 -1.4296
 4706TIP3   OH235532   6.199   0.707   0.991  0.2446  0.2531 -0.0588
 4706TIP3    H135533   6.136   0.708   0.920  1.0067 -0.0276 -0.7404
 4706TIP3    H235534   6.282   0.681   0.951  0.9650  1.3274  0.6788
 4707TIP3   OH235535   3.235   1.206   2.659 -0.6869 -0.1082 -0.5413
 4707TIP3    H135536   3.221   1.114   2.683 -2.3039 -0.0137 -1.0573
 4707TIP3    H235537   3.210   1.210   2.566 -0.0022  0.7252 -0.6916
 4708TIP3   OH235538   4.650   4.208  13.507  0.1129 -0.0681  1.0078
 4708TIP3    H135539   4.600   4.283  13.541 -0.3599  0.7445 -1.3701
 4708TIP3    H235540   4.701   4.245  13.435 -0.5716 -2.1635 -0.5718
 4709TIP3   OH235541   3.357   4.865  14.121 -0.4374 -0.7771  0.1949
 4709TIP3    H135542   3.291   4.829  14.061 -0.4365  0.3119 -0.4907
 4709TIP3    H235543   3.336   4.959  14.125 -0.4733 -0.8471  1.9593
 4710TIP3   OH235544   3.190   4.281  12.181 -0.0914  0.7603  0.1938
 4710TIP3    H135545   3.167   4.241  12.265 -1.4227 -4.5596 -2.4911
 4710TIP3    H235546   3.264   4.229  12.150 -0.7235  1.5408 -2.7202
 4711TIP3   OH235547   0.053   3.951  12.704 -0.0954  0.0853 -0.1161
 4711TIP3    H135548   0.022   4.011  12.636 -1.1626 -0.2276  0.0848
 4711TIP3    H235549   0.045   3.864  12.665  0.9982  0.0259 -0.2335
 4712TIP3   OH235550   0.032   6.403   2.453  0.2071 -0.4835 -0.4266
 4712TIP3    H135551   0.073   6.358   2.527 -0.6540 -0.3524  0.1345
 4712TIP3    H235552   0.047   6.496   2.471  0.2040 -0.4614 -0.5389
 4713TIP3   OH235553   0.889   4.236  13.601  0.1810 -0.2155 -0.1176
 4713TIP3    H135554   0.956   4.302  13.582 -0.4904  0.0612 -1.5909
 4713TIP3    H235555   0.926   4.185  13.673  1.4447  0.7077 -0.0912
 4714TIP3   OH235556   4.783   5.906  16.315 -0.1924  0.4083 -0.9281
 4714TIP3    H135557   4.765   6.000  16.320  2.4970  0.8686  1.0536
 4714TIP3    H235558   4.754   5.872  16.399  1.6684  0.0179 -0.4232
 4715TIP3   OH235559   2.335   6.305   4.929 -0.1003  0.2286  0.1953
 4715TIP3    H135560   2.394   6.230   4.934  0.0210  0.1976 -1.3041
 4715TIP3    H235561   2.361   6.361   5.002  0.8356 -0.4623  0.4070
 4716TIP3   OH235562   1.217   1.071   3.424  0.3178 -0.0123  0.1850
 4716TIP3    H135563   1.215   1.166   3.422  2.1510  0.0480  0.4831
 4716TIP3    H235564   1.258   1.049   3.508 -1.8712 -1.1063  1.0126
 4717TIP3   OH235565   6.050   2.787   5.665  0.4285 -0.1471 -0.3672
 4717TIP3    H135566   6.133   2.830   5.686 -0.2624  0.7737  0.5111
 4717TIP3    H235567   6.002   2.786   5.748  0.2248 -2.1487 -0.4851
 4718TIP3   OH235568   4.140   0.662   5.427 -0.1261 -0.1272 -0.6931
 4718TIP3    H135569   4.184   0.700   5.503  0.9585  0.2556 -1.5106
 4718TIP3    H235570   4.124   0.571   5.451 -0.1938  0.1039  0.1597
 4719TIP3   OH235571   2.827   3.946   5.346  0.3857 -0.4372 -0.3261
 4719TIP3    H135572   2.869   3.992   5.418 -0.6213  0.7086 -0.4555
 4719TIP3    H235573   2.891   3.948   5.275  0.6491  0.0848 -0.0750
 4720TIP3   OH235574   0.096   0.993  16.734 -1.0327 -0.5721  0.6243
 4720TIP3    H135575   0.053   0.914  16.703 -0.1702 -1.7686  2.3782
 4720TIP3    H235576   0.175   1.000  16.680 -1.0764 -0.9519  0.5099
 4721TIP3   OH235577   3.405   0.428   3.169  0.3704  0.2788 -0.2058
 4721TIP3    H135578   3.469   0.359   3.152 -0.0942 -0.0766 -0.5349
 4721TIP3    H235579   3.386   0.420   3.262 -0.5054 -0.7674 -0.4582
 4722TIP3   OH235580   2.331   4.685  15.091  1.0886 -0.1865 -0.0790
 4722TIP3    H135581   2.267   4.747  15.055  0.0657 -0.8035  0.6411
 4722TIP3    H235582   2.297   4.663  15.177  0.4525 -3.1596 -1.0352
 4723TIP3   OH235583   4.343   4.049  15.463  0.1448 -0.2078 -0.2371
 4723TIP3    H135584   4.419   4.023  15.410 -0.3206 -0.9680 -0.5559
 4723TIP3    H235585   4.375   4.121  15.517  1.3883 -1.2029  0.3876
 4724TIP3   OH235586   3.862   1.512   2.113 -0.0054  0.2679  0.2817
 4724TIP3    H135587   3.801   1.493   2.042  0.2079  1.6208 -0.2773
 4724TIP3    H235588   3.873   1.428   2.157 -0.7368 -0.4285 -0.8117
 4725TIP3   OH235589   2.544   1.041   4.676 -0.2912  0.1409  0.0871
 4725TIP3    H135590   2.595   1.111   4.716 -0.3934  0.5132 -0.4311
 4725TIP3    H235591   2.540   1.064   4.583 -2.0816  0.5682  0.2369
 4726TIP3   OH235592   0.343   5.644   3.029  0.3553  0.7365  0.1131
 4726TIP3    H135593   0.325   5.551   3.018  1.7242  0.4710  0.0668
 4726TIP3    H235594   0.378   5.651   3.118 -0.0641  1.2676  0.2427
 4727TIP3   OH235595   6.190   1.635  14.338  0.4971  0.2438 -0.1985
 4727TIP3    H135596   6.173   1.559  14.394  1.7606 -0.6860 -1.0529
 4727TIP3    H235597   6.193   1.709  14.398 -1.2395 -0.3009  0.5921
 4728TIP3   OH235598   1.060   4.638  10.809 -0.2796  0.1100 -0.3827
 4728TIP3    H135599   1.129   4.585  10.849  0.4104  0.5006 -1.0455
 4728TIP3    H235600   0.985   4.579  10.804 -0.1377 -0.1791  0.7554
 4729TIP3   OH235601   2.863   0.746  13.020  0.2335 -0.3857 -0.2551
 4729TIP3    H135602   2.954   0.743  12.992 -0.4622  0.7043 -2.8096
 4729TIP3    H235603   2.823   0.668  12.980 -0.3072  0.0412 -0.5595
 4730TIP3   OH235604   2.779   0.781   0.555  0.1979  0.5161  0.5143
 4730TIP3    H135605   2.773   0.818   0.467 -2.1848 -0.6479  0.1271
 4730TIP3    H235606   2.849   0.716   0.549 -0.8578 -0.5384 -0.9334
 4731TIP3   OH235607   1.419   5.001  14.111 -0.4394 -0.4075 -0.0671
 4731TIP3    H135608   1.350   4.935  14.099  0.5554 -1.2702 -1.2557
 4731TIP3    H235609   1.499   4.950  14.121  0.1201  0.6026  0.6400
 4732TIP3   OH235610   1.530   2.646  15.217 -0.2273 -0.1059  0.2377
 4732TIP3    H135611   1.524   2.707  15.291  1.0000 -0.3284  0.5293
 4732TIP3    H235612   1.556   2.563  15.256  0.8902 -0.1090 -0.4999
 4733TIP3   OH235613   5.709   0.216   1.973 -0.3994  0.0353 -0.8632
 4733TIP3    H135614   5.677   0.140   2.022  0.7586 -1.3830 -2.2708
 4733TIP3    H235615   5.639   0.281   1.981 -1.1709 -0.9708  0.7996
 4734TIP3   OH235616   5.141   5.337   2.167 -0.0166 -0.5209  0.2014
 4734TIP3    H135617   5.190   5.412   2.202  0.7866 -1.4217  1.0115
 4734TIP3    H235618   5.091   5.374   2.094 -0.2793  0.9814  1.1186
 4735TIP3   OH235619   1.778   4.665   4.920 -0.4108 -0.0658  0.5739
 4735TIP3    H135620   1.795   4.747   4.967  1.4036 -0.3319  0.4543
 4735TIP3    H235621   1.729   4.692   4.843 -1.3619  0.6834  1.4265
 4736TIP3   OH235622   4.230   5.940   2.561  0.1169  0.5998  0.1238
 4736TIP3    H135623   4.199   5.921   2.472  2.0362 -2.5752  0.0371
 4736TIP3    H235624   4.310   5.991   2.547  0.2144  0.4169 -0.0088
 4737TIP3   OH235625   0.562   4.985  14.830  0.0956  0.2542  0.0611
 4737TIP3    H135626   0.596   4.968  14.741 -0.1177 -0.0940  0.0428
 4737TIP3    H235627   0.641   5.000  14.883  0.2732 -0.3017 -0.0328
 4738TIP3   OH235628   2.007   3.299   1.148  0.3560 -0.1227 -0.1821
 4738TIP3    H135629   1.936   3.242   1.118 -0.2995 -0.3107  1.6444
 4738TIP3    H235630   2.067   3.303   1.074 -1.8323  0.5002 -1.9878
 4739TIP3   OH235631   2.544   5.666   0.596  0.6293  0.4446  0.0982
 4739TIP3    H135632   2.559   5.582   0.553  0.2415 -0.5294  1.8503
 4739TIP3    H235633   2.460   5.655   0.641  0.4229  1.8742  0.0820
 4740TIP3   OH235634   0.860   1.729   3.448 -0.1263  0.4664  0.4484
 4740TIP3    H135635   0.943   1.742   3.403  0.1785  3.1488  1.7049
 4740TIP3    H235636   0.807   1.677   3.386  1.9633 -0.0691 -0.9329
 4741TIP3   OH235637   4.895   3.931  11.753 -0.1777  0.4625 -0.3059
 4741TIP3    H135638   4.869   3.893  11.669 -1.0712  0.8777 -0.2186
 4741TIP3    H235639   4.837   4.005  11.765 -0.9192 -0.3487  1.2903
 4742TIP3   OH235640   5.417   5.834   4.801  0.4411  0.0289 -0.1055
 4742TIP3    H135641   5.367   5.800   4.875  1.1516 -1.9060 -0.4931
 4742TIP3    H235642   5.351   5.868   4.741 -0.1941  0.7210  0.9757
 4743TIP3   OH235643   3.343   6.377   0.909 -1.1001  0.4735  0.7295
 4743TIP3    H135644   3.395   6.302   0.879 -4.0402 -1.7241  0.8839
 4743TIP3    H235645   3.341   6.437   0.835  0.2715 -0.1622  0.1729
 4744TIP3   OH235646   2.682   5.497   2.568 -0.2422 -0.3966  0.5061
 4744TIP3    H135647   2.599   5.482   2.612  0.1778 -1.3237  1.0177
 4744TIP3    H235648   2.713   5.409   2.545  2.0635 -0.3493  3.1025
 4745TIP3   OH235649   3.434   5.371   4.579  0.1278  0.3557  0.3585
 4745TIP3    H135650   3.456   5.294   4.630 -0.0235  1.7187  2.5422
 4745TIP3    H235651   3.362   5.413   4.628  0.3445  1.9773 -0.6697
 4746TIP3   OH235652   0.354   4.272   2.503 -0.9106  0.4106 -0.3905
 4746TIP3    H135653   0.313   4.262   2.589 -0.6311 -0.2626 -0.3315
 4746TIP3    H235654   0.322   4.356   2.471 -1.0103  0.6675  0.3743
 4747TIP3   OH235655   6.552   1.099   3.198  0.1059  0.3089 -0.5084
 4747TIP3    H135656   6.540   1.159   3.124 -1.6134  1.3757  0.5973
 4747TIP3    H235657   6.606   1.148   3.260  0.6501 -0.1801 -0.5914
 4748TIP3   OH235658   6.362   4.510  14.589 -0.7450 -0.0872 -0.3535
 4748TIP3    H135659   6.289   4.571  14.596  0.7045  1.5922  0.6813
 4748TIP3    H235660   6.393   4.520  14.499 -1.3197 -0.2214 -0.5620
 4749TIP3   OH235661   0.657   5.886   4.174  0.2621 -0.1344 -0.0734
 4749TIP3    H135662   0.573   5.854   4.206 -0.5099  2.2335  0.3789
 4749TIP3    H235663   0.682   5.955   4.236  2.0648 -0.1311 -0.7573
 4750TIP3   OH235664   2.547   4.479   5.261 -0.1571  0.3244 -0.2134
 4750TIP3    H135665   2.539   4.430   5.342 -2.1828 -0.0797 -0.6277
 4750TIP3    H235666   2.566   4.414   5.194 -0.0020  0.4622 -0.3050
 4751TIP3   OH235667   3.404   1.686  11.645 -0.2499  0.7552  0.4140
 4751TIP3    H135668   3.394   1.748  11.572 -0.4798 -1.2151 -1.2699
 4751TIP3    H235669   3.314   1.669  11.674 -0.2974  0.0222 -0.1541
 4752TIP3   OH235670   2.728   4.615  15.708  0.4704  0.2443  0.7913
 4752TIP3    H135671   2.687   4.578  15.629  0.2672  3.4423 -0.7137
 4752TIP3    H235672   2.797   4.553  15.731 -0.3201 -1.4158 -1.1336
 4753TIP3   OH235673   6.307   5.265  16.584  0.4668  0.6613 -0.4883
 4753TIP3    H135674   6.400   5.249  16.568  0.8653  1.9822  0.4329
 4753TIP3    H235675   6.279   5.320  16.511  0.4583  0.4796 -0.6247
 4754TIP3   OH235676   0.586   1.394   1.031 -0.2259  0.0538 -0.0148
 4754TIP3    H135677   0.541   1.478   1.016 -0.8529 -0.2347  0.2396
 4754TIP3    H235678   0.618   1.368   0.945  0.3642  0.7819 -0.0203
 4755TIP3   OH235679   1.897   2.781  14.357 -0.0713 -0.2703 -0.0554
 4755TIP3    H135680   1.830   2.790  14.289  0.2164 -0.9292 -0.4319
 4755TIP3    H235681   1.979   2.796  14.311  0.1111 -0.5313  0.1856
 4756TIP3   OH235682   3.714   1.214  13.510  0.3847 -0.0044  0.1964
 4756TIP3    H135683   3.729   1.243  13.421 -1.0858  0.1668 -0.0113
 4756TIP3    H235684   3.796   1.232  13.556  1.3699 -0.6686 -1.2541
 4757TIP3   OH235685   5.136   3.471   3.527 -0.2662 -0.0847  0.0521
 4757TIP3    H135686   5.224   3.445   3.552 -0.5167 -0.6213  0.3939
 4757TIP3    H235687   5.079   3.408   3.572 -0.8924  1.2093  1.1054
 4758TIP3   OH235688   3.958   5.505  12.163  0.5982  0.1799  0.2086
 4758TIP3    H135689   4.003   5.454  12.096  1.9316  2.2245 -0.5079
 4758TIP3    H235690   3.866   5.480  12.155  1.4424 -3.5413  1.2216
 4759TIP3   OH235691   3.177   1.819  12.281 -0.4768 -0.0159  0.0910
 4759TIP3    H135692   3.171   1.911  12.307  0.4875  0.2638 -0.6501
 4759TIP3    H235693   3.167   1.770  12.363  1.2103  0.8183  0.8279
 4760TIP3   OH235694   5.433   6.612  14.564 -0.6442 -0.3523 -0.8226
 4760TIP3    H135695   5.356   6.569  14.527 -2.5034  2.1308  0.0077
 4760TIP3    H235696   5.427   6.703  14.534  1.5898  0.0705 -0.1402
 4761TIP3   OH235697   4.223   3.978   0.022  0.5551 -0.1573  0.1570
 4761TIP3    H135698   4.287   4.044  -0.004 -1.2607  1.7280  0.2802
 4761TIP3    H235699   4.208   3.926  -0.056  1.3689  0.1276 -0.1943
 4762TIP3   OH235700   0.382   0.238  10.943 -0.2538 -0.5848  0.0311
 4762TIP3    H135701   0.454   0.299  10.960 -0.2643 -1.1422  2.2977
 4762TIP3    H235702   0.305   0.282  10.977 -0.4248 -1.3937  0.7220
 4763TIP3   OH235703   3.696   5.048   1.300 -0.2140 -0.4123 -0.7485
 4763TIP3    H135704   3.614   4.999   1.297  0.7152 -1.9959 -0.7950
 4763TIP3    H235705   3.748   5.012   1.228  0.7623  0.1421 -0.3199
 4764TIP3   OH235706   1.612   1.205   0.256  0.0162  0.0874  0.2242
 4764TIP3    H135707   1.674   1.271   0.287 -0.4075  0.3273  0.5670
 4764TIP3    H235708   1.591   1.154   0.335 -0.7101  0.4075  0.2393
 4765TIP3   OH235709   6.759   5.950   2.074 -0.4442  0.4534  0.8029
 4765TIP3    H135710   6.699   5.895   2.023  1.7086 -1.5948  0.4197
 4765TIP3    H235711   6.754   5.916   2.163  0.1442  0.2736  0.7695
 4766TIP3   OH235712   0.544   5.545  14.789 -0.0398  0.0008  0.2393
 4766TIP3    H135713   0.507   5.536  14.876 -0.5414  0.5294  0.0861
 4766TIP3    H235714   0.632   5.580  14.804 -0.1796  0.2292  0.5189
 4767TIP3   OH235715   3.194   1.287  16.481 -0.0028 -0.0398  0.6690
 4767TIP3    H135716   3.223   1.335  16.559 -0.1986 -0.9164  1.2839
 4767TIP3    H235717   3.123   1.341  16.446  0.7429  0.8661  0.5270
 4768TIP3   OH235718   5.793   0.545   0.413 -0.3532 -0.0097  0.7310
 4768TIP3    H135719   5.880   0.579   0.393 -1.0978  1.1978 -0.5398
 4768TIP3    H235720   5.786   0.465   0.360 -0.0631 -0.0534  0.7570
 4769TIP3   OH235721   1.750   3.843  13.214 -0.0425  0.5095 -0.0458
 4769TIP3    H135722   1.726   3.800  13.296 -0.3697  0.7442 -0.0144
 4769TIP3    H235723   1.780   3.930  13.241  1.7145 -0.0913 -0.0037
 4770TIP3   OH235724   6.610   5.805   1.882  0.3504  0.1109 -0.0174
 4770TIP3    H135725   6.664   5.761   1.816  0.5695  1.7251 -0.9373
 4770TIP3    H235726   6.560   5.869   1.832  0.1131  0.9700  1.3158
 4771TIP3   OH235727   5.605   1.101  12.681 -0.2365 -0.0569 -0.1153
 4771TIP3    H135728   5.591   1.055  12.764 -1.1556  1.4221  0.5857
 4771TIP3    H235729   5.644   1.185  12.707  0.7105 -0.1285 -1.2928
 4772TIP3   OH235730   0.289   2.696  13.296 -0.7225 -0.7118  0.1576
 4772TIP3    H135731   0.364   2.672  13.242  0.1098 -0.0999  1.0423
 4772TIP3    H235732   0.232   2.745  13.236  0.7023  0.9128  0.1021
 4773TIP3   OH235733   6.625   3.290   5.568 -0.2367  0.4843  0.5556
 4773TIP3    H135734   6.681   3.287   5.491 -1.7605  0.1418 -0.5708
 4773TIP3    H235735   6.590   3.379   5.570  0.7545  0.8629  1.5678
 4774TIP3   OH235736   5.245   0.125  10.737 -0.4130  0.0295  0.4294
 4774TIP3    H135737   5.234   0.034  10.765 -3.0344 -0.0457 -0.7055
 4774TIP3    H235738   5.268   0.119  10.645 -0.0638  0.5137  0.4843
 4775TIP3   OH235739   4.606   5.907   0.272  0.2232 -0.2445 -0.3526
 4775TIP3    H135740   4.676   5.972   0.271 -1.7971  2.0206 -3.2562
 4775TIP3    H235741   4.639   5.835   0.217  1.8391 -1.0241  1.5989
 4776TIP3   OH235742   3.045   5.187   1.657  0.6829 -0.0088  0.0605
 4776TIP3    H135743   2.973   5.161   1.600 -0.1128 -1.0037  1.5169
 4776TIP3    H235744   3.010   5.259   1.709  0.9914 -0.0043  0.2649
 4777TIP3   OH235745   5.525   0.116  11.298  0.5577  0.2652  0.0217
 4777TIP3    H135746   5.564   0.054  11.359  1.2130 -0.7105 -1.3686
 4777TIP3    H235747   5.512   0.066  11.218 -1.4010  1.2036 -0.2805
 4778TIP3   OH235748   0.787   4.341  15.372  0.0123  0.0629 -0.1218
 4778TIP3    H135749   0.777   4.302  15.459 -0.6390  0.1468 -0.1549
 4778TIP3    H235750   0.719   4.299  15.319  2.3733 -2.2882 -1.4190
 4779TIP3   OH235751   0.888   1.135   2.024 -0.4178 -0.4387  0.0787
 4779TIP3    H135752   0.946   1.145   1.949 -2.0132 -0.4011 -1.1731
 4779TIP3    H235753   0.859   1.044   2.020 -0.4196 -0.4697  0.7208
 4780TIP3   OH235754   0.459   6.446  15.043  0.0361 -0.3978 -0.0375
 4780TIP3    H135755   0.432   6.533  15.014  0.4898 -0.2177  0.0898
 4780TIP3    H235756   0.552   6.454  15.064  0.3523 -1.1750 -1.0834
 4781TIP3   OH235757   5.473   0.336   2.089  0.2906 -0.6325  0.0359
 4781TIP3    H135758   5.507   0.306   2.173 -1.1807 -2.4344  0.0341
 4781TIP3    H235759   5.504   0.426   2.080  2.6334 -1.2713  1.3063
 4782TIP3   OH235760   1.097   2.698   3.233  0.4488  0.0101  0.0347
 4782TIP3    H135761   1.030   2.720   3.297  1.1044  0.3671  0.6033
 4782TIP3    H235762   1.134   2.782   3.207  0.6892 -0.1853 -0.2665
 4783TIP3   OH235763   6.734   2.712   5.737 -0.3398 -0.6584  0.1890
 4783TIP3    H135764   6.694   2.724   5.823  1.8929  1.7131  0.9725
 4783TIP3    H235765   6.809   2.655   5.753  0.0390 -0.2690 -0.2019
 4784TIP3   OH235766   3.430   0.294  15.894 -0.6918  0.4578 -0.0200
 4784TIP3    H135767   3.373   0.218  15.886 -1.1112  0.9087 -1.4852
 4784TIP3    H235768   3.394   0.344  15.968 -2.2525  0.7743 -0.9758
 4785TIP3   OH235769   5.051   5.708   1.163 -0.3149  0.5188  0.0829
 4785TIP3    H135770   5.022   5.620   1.138  1.0186  0.3806 -1.0220
 4785TIP3    H235771   5.126   5.725   1.107  0.2252  1.8596  1.2034
 4786TIP3   OH235772   6.736   5.559  15.464 -0.4975  0.3201 -0.4652
 4786TIP3    H135773   6.685   5.539  15.543  0.4326  0.7772  0.2792
 4786TIP3    H235774   6.783   5.640  15.487  2.0791 -1.1462 -0.3780
 4787TIP3   OH235775   0.057   1.201  11.661  0.1947 -0.0144  0.0413
 4787TIP3    H135776   0.068   1.105  11.662 -0.9339 -0.1508  0.4691
 4787TIP3    H235777  -0.008   1.217  11.593 -1.5737  0.2060  1.7381
 4788TIP3   OH235778   0.622   1.441  16.721 -0.2329 -0.5904 -0.0171
 4788TIP3    H135779   0.535   1.479  16.713 -0.5579 -1.3904 -0.3380
 4788TIP3    H235780   0.608   1.360  16.770 -0.1108 -2.1811 -2.5185
 4789TIP3   OH235781   4.159   4.586   4.744  0.4611  0.2211 -0.1383
 4789TIP3    H135782   4.226   4.537   4.697 -0.8044 -0.3517 -1.4078
 4789TIP3    H235783   4.107   4.519   4.788  1.2102  0.7113  1.5085
 4790TIP3   OH235784   1.128   2.730  17.214  0.3694  0.3552 -0.2125
 4790TIP3    H135785   1.077   2.682  17.279 -1.2847  2.6477  0.2252
 4790TIP3    H235786   1.082   2.813  17.203  1.8776  0.9191 -2.6720
 4791TIP3   OH235787   5.994   6.417  13.025  0.3198 -0.5782  0.0464
 4791TIP3    H135788   5.919   6.474  13.041  0.3125 -0.5777  0.0120
 4791TIP3    H235789   6.062   6.451  13.083  0.0318 -1.0908  0.6979
 4792TIP3   OH235790   2.608   3.033   6.000 -0.1707 -0.2025 -0.4338
 4792TIP3    H135791   2.628   3.021   6.093 -0.6483  1.7006 -0.0755
 4792TIP3    H235792   2.657   3.111   5.975  0.7046 -1.2242 -2.0403
 4793TIP3   OH235793   0.911   3.009   5.897  0.4338  0.0189 -0.6593
 4793TIP3    H135794   0.864   3.086   5.927 -0.5187 -1.0397  0.6279
 4793TIP3    H235795   0.842   2.951   5.863  0.9101 -1.1362  0.3250
 4794TIP3   OH235796   2.167   3.689   3.952 -0.3554 -0.1548 -0.3167
 4794TIP3    H135797   2.171   3.759   3.887 -2.8257 -0.2735 -0.6475
 4794TIP3    H235798   2.212   3.615   3.911  1.6642  1.0040 -0.2407
 4795TIP3   OH235799   5.802   0.323  16.854  0.1530 -0.4769  0.3436
 4795TIP3    H135800   5.763   0.235  16.851  1.8490 -1.3384  2.1696
 4795TIP3    H235801   5.871   0.321  16.789 -1.0476  0.1691 -0.9819
 4796TIP3   OH235802   6.544   3.396   0.695 -0.4530 -0.0811  0.0134
 4796TIP3    H135803   6.563   3.458   0.766  0.4357 -0.4686  0.1136
 4796TIP3    H235804   6.472   3.437   0.647 -0.2645  0.7520  0.4288
 4797TIP3   OH235805   6.238   4.687   2.037  0.0298 -0.0086 -0.0465
 4797TIP3    H135806   6.265   4.640   2.115 -0.1699  0.9478  0.6098
 4797TIP3    H235807   6.177   4.628   1.993 -0.8669 -0.0116  1.1950
 4798TIP3   OH235808   1.899   2.325   3.939  0.3154  0.1662 -0.2381
 4798TIP3    H135809   1.831   2.318   3.872  0.4581 -2.0134 -0.2013
 4798TIP3    H235810   1.861   2.382   4.006 -0.3594  1.2565 -1.5198
 4799TIP3   OH235811   0.961   6.318  12.355  0.1141  0.6098 -0.3225
 4799TIP3    H135812   0.991   6.228  12.366 -0.4217  0.6167  1.1943
 4799TIP3    H235813   0.869   6.317  12.381 -0.3475  1.2797 -1.8285
 4800TIP3   OH235814   2.593   1.827  12.393 -0.0957 -0.7490  0.2696
 4800TIP3    H135815   2.543   1.839  12.474 -0.8882 -1.7410 -0.0669
 4800TIP3    H235816   2.549   1.885  12.330  0.0020 -0.6088  0.3311
 4801TIP3   OH235817   2.468   5.464   0.407  0.7175  0.3479  0.0393
 4801TIP3    H135818   2.488   5.371   0.420 -1.0486 -0.1594 -0.7528
 4801TIP3    H235819   2.438   5.470   0.317  1.5393  1.8228 -0.1371
 4802TIP3   OH235820   1.043   4.413   3.776  0.9331 -0.2172 -0.5444
 4802TIP3    H135821   1.106   4.482   3.798 -0.7659  0.6315  1.9861
 4802TIP3    H235822   1.082   4.333   3.810  0.2073  0.4737  2.0154
 4803TIP3   OH235823   5.883   3.896   2.934  0.7256  0.6351  0.1902
 4803TIP3    H135824   5.913   3.825   2.878  1.5399 -0.2169  1.6844
 4803TIP3    H235825   5.792   3.911   2.908  0.6024 -0.8319 -0.2480
 4804TIP3   OH235826   5.403   2.720   1.540 -0.4771 -0.1621 -0.7530
 4804TIP3    H135827   5.385   2.630   1.570  1.8277  0.0765  1.4226
 4804TIP3    H235828   5.476   2.710   1.479  2.8164  0.6122  2.8426
 4805TIP3   OH235829   5.105   4.308   1.710 -0.6026  0.0447 -0.2934
 4805TIP3    H135830   5.090   4.245   1.640 -0.7766 -0.2184 -0.0163
 4805TIP3    H235831   5.055   4.275   1.784  1.3153 -0.8553  0.6532
 4806TIP3   OH235832   2.276   3.669  13.525  0.4705  0.0031  0.0806
 4806TIP3    H135833   2.346   3.671  13.459  2.1449 -2.1401  1.6941
 4806TIP3    H235834   2.198   3.696  13.477  2.1132  1.0851 -2.1347
 4807TIP3   OH235835   6.456   6.555  11.359 -0.6689  0.6141  0.0111
 4807TIP3    H135836   6.384   6.550  11.422 -0.4617 -0.5040  0.1815
 4807TIP3    H235837   6.501   6.471  11.369 -0.5506  0.4807 -1.5224
 4808TIP3   OH235838   4.872   2.087   4.018  0.0259  0.6740  0.1319
 4808TIP3    H135839   4.807   2.126   3.959 -0.1486 -1.0603 -0.8572
 4808TIP3    H235840   4.955   2.098   3.972  0.0828  0.5412  0.2052
 4809TIP3   OH235841   3.621   0.120  13.825 -0.1166  0.6312  0.6500
 4809TIP3    H135842   3.708   0.141  13.792  0.4771  1.1085  2.4846
 4809TIP3    H235843   3.576   0.204  13.830 -0.8887  0.3146 -0.8521
 4810TIP3   OH235844   0.059   3.941   1.285 -0.0108 -0.0424 -0.1589
 4810TIP3    H135845  -0.033   3.916   1.273  0.1511 -0.2753 -0.9550
 4810TIP3    H235846   0.095   3.940   1.196  1.3343 -2.1778  0.3815
 4811TIP3   OH235847   0.106   4.903   3.394  0.1346 -0.0091  0.5416
 4811TIP3    H135848   0.124   4.823   3.345  0.2988 -0.0741  0.7054
 4811TIP3    H235849   0.094   4.873   3.485 -1.9749 -0.1202  0.2661
 4812TIP3   OH235850   5.319   2.490  14.254 -0.6215  0.0427  0.0451
 4812TIP3    H135851   5.226   2.466  14.257 -1.1021  1.9423  1.6931
 4812TIP3    H235852   5.320   2.574  14.209  0.2404  0.2365  0.4209
 4813TIP3   OH235853   6.120   4.793  13.641 -0.1852  0.2430  0.5863
 4813TIP3    H135854   6.073   4.718  13.603  0.3792  0.2314 -0.0902
 4813TIP3    H235855   6.212   4.770  13.633  0.0152  1.3823 -0.3806
 4814TIP3   OH235856   6.764   0.831  10.779 -0.5087 -0.0628  0.0554
 4814TIP3    H135857   6.709   0.907  10.800 -1.9527 -0.6127 -1.7108
 4814TIP3    H235858   6.705   0.757  10.779  0.2144 -0.6790 -1.7687
 4815TIP3   OH235859   1.730   2.880   6.393 -0.3100 -0.5301 -0.3000
 4815TIP3    H135860   1.817   2.919   6.398 -2.0608  3.3340  1.6422
 4815TIP3    H235861   1.683   2.932   6.328 -1.7730 -1.3978  0.0226
 4816TIP3   OH235862   1.905   6.192  12.774  0.3093 -0.2498 -0.2884
 4816TIP3    H135863   1.822   6.215  12.732  0.4469  1.8674  0.5813
 4816TIP3    H235864   1.925   6.105  12.739 -1.2426  0.0686 -2.0729
 4817TIP3   OH235865   6.130   5.772   3.367  0.2631  0.1266 -0.0465
 4817TIP3    H135866   6.150   5.723   3.447 -2.0139 -2.0762 -0.7516
 4817TIP3    H235867   6.152   5.711   3.296 -1.0128  0.7651 -1.0020
 4818TIP3   OH235868   4.953   0.413   0.469  0.3916  0.5394 -0.0149
 4818TIP3    H135869   5.033   0.464   0.454 -0.4564  1.5243 -1.3490
 4818TIP3    H235870   4.885   0.480   0.483 -0.4338 -0.2626 -0.1656
 4819TIP3   OH235871   4.004   6.216  16.334  0.0638  0.1343 -0.0192
 4819TIP3    H135872   4.028   6.216  16.427  1.2820  0.8221 -0.3336
 4819TIP3    H235873   3.968   6.303  16.319  0.8453  0.3871 -0.4422
 4820TIP3   OH235874   2.427   2.859   0.381 -0.4211  0.2023 -0.1412
 4820TIP3    H135875   2.378   2.941   0.371 -0.0384  0.3099 -1.1978
 4820TIP3    H235876   2.362   2.796   0.411 -1.1035  0.4774 -1.0153
 4821TIP3   OH235877   0.823   1.007   5.744  0.0660 -0.5028  0.1309
 4821TIP3    H135878   0.856   1.076   5.687 -1.1497  0.4074  0.5226
 4821TIP3    H235879   0.847   0.926   5.698  0.3707  0.1859 -0.9623
 4822TIP3   OH235880   3.320   4.421   5.520 -0.0667 -0.2551 -0.4461
 4822TIP3    H135881   3.238   4.389   5.558 -0.0928  0.4373  0.0790
 4822TIP3    H235882   3.294   4.462   5.438 -0.3243  0.4667 -0.0117
 4823TIP3   OH235883   5.231   0.361  14.604  0.2095 -0.1586  0.2300
 4823TIP3    H135884   5.294   0.380  14.534  0.0339 -0.9407 -0.1502
 4823TIP3    H235885   5.190   0.445  14.624  1.1771  0.3078  0.2905
 4824TIP3   OH235886   5.921   5.563   2.914  0.4491  0.2352  0.3427
 4824TIP3    H135887   5.929   5.657   2.896 -0.1664  0.4744  1.2309
 4824TIP3    H235888   5.840   5.537   2.870 -1.0156  0.8043  2.6292
 4825TIP3   OH235889   3.345   4.835  11.892  0.7526  0.0052  0.2774
 4825TIP3    H135890   3.287   4.768  11.857 -0.9527  2.3282 -1.5158
 4825TIP3    H235891   3.416   4.842  11.827  0.1194  0.9637 -0.3298
 4826TIP3   OH235892   1.084   4.815   4.376 -0.5464 -0.3854 -0.1556
 4826TIP3    H135893   1.058   4.782   4.462 -1.3672 -2.0858 -1.0243
 4826TIP3    H235894   1.020   4.884   4.357 -0.4163 -0.0635  0.5463
 4827TIP3   OH235895   3.490   6.156   0.789  0.3442 -0.1855 -0.0456
 4827TIP3    H135896   3.441   6.074   0.801  2.3573 -1.2518  1.3129
 4827TIP3    H235897   3.497   6.166   0.695 -0.4580 -1.2784 -0.2352
 4828TIP3   OH235898   3.500   3.004   1.734 -0.3682 -0.0810 -0.6557
 4828TIP3    H135899   3.520   2.940   1.802 -0.4888  1.0083  0.4240
 4828TIP3    H235900   3.409   3.029   1.749  0.5970  2.6882  0.9403
 4829TIP3   OH235901   3.234   4.045  16.997 -0.2082  0.2606  0.2193
 4829TIP3    H135902   3.288   3.998  16.933 -0.9686  1.2241 -1.1561
 4829TIP3    H235903   3.293   4.059  17.071  1.0042  0.0104 -0.6762
 4830TIP3   OH235904   2.881   6.645  11.916 -0.0189  0.0981  0.0602
 4830TIP3    H135905   2.823   6.680  11.984  0.2872  0.8195 -0.0467
 4830TIP3    H235906   2.851   6.686  11.835 -0.5901 -1.0054 -0.3035
 4831TIP3   OH235907   1.456   2.397   3.887  0.1685 -0.1161 -0.0154
 4831TIP3    H135908   1.385   2.449   3.851  0.9154  0.7180 -0.3100
 4831TIP3    H235909   1.457   2.318   3.833 -0.6179 -0.1898  0.0811
 4832TIP3   OH235910   2.079   4.158   1.789  0.0854 -0.5303 -0.4035
 4832TIP3    H135911   2.026   4.205   1.853  1.0650  1.0082 -0.6846
 4832TIP3    H235912   2.046   4.069   1.791 -1.8414  0.1713  0.1426
 4833TIP3   OH235913   3.606   3.235  14.670 -0.1813  0.0050  0.0087
 4833TIP3    H135914   3.624   3.207  14.580 -1.4133  2.0236 -0.8930
 4833TIP3    H235915   3.570   3.157  14.713  0.6905 -1.0509 -1.1527
 4834TIP3   OH235916   5.348   6.299   5.131 -0.3042 -0.2200  0.1594
 4834TIP3    H135917   5.262   6.258   5.131 -0.5892  0.3788  0.0627
 4834TIP3    H235918   5.409   6.226   5.134 -0.8344 -0.6123  1.8455
 4835TIP3   OH235919   0.641   2.210  12.845 -0.2420 -0.2762 -0.3049
 4835TIP3    H135920   0.621   2.176  12.758 -0.5080 -0.5036 -0.1563
 4835TIP3    H235921   0.592   2.153  12.905 -1.0194  0.6243 -0.0735
 4836TIP3   OH235922   0.046   4.154  14.716 -0.0303 -0.1425  0.0928
 4836TIP3    H135923  -0.039   4.163  14.672  1.2538  0.2919 -2.4067
 4836TIP3    H235924   0.043   4.217  14.788 -1.1220  1.1957 -1.1026
 4837TIP3   OH235925   3.021   2.742  13.681  0.2057 -0.1464  0.4984
 4837TIP3    H135926   3.087   2.738  13.751 -0.1379 -1.3231  0.7598
 4837TIP3    H235927   2.937   2.746  13.727  0.0657  1.0752  0.1627
 4838TIP3   OH235928   1.578   6.432   4.567 -0.3800 -0.5025  0.0703
 4838TIP3    H135929   1.616   6.509   4.524 -0.5486  0.8994  2.3293
 4838TIP3    H235930   1.528   6.388   4.499  3.5652 -1.2664 -2.5051
 4839TIP3   OH235931   0.577   4.494   2.281  0.1918  0.4199 -0.6430
 4839TIP3    H135932   0.651   4.543   2.246  2.4804 -3.1694 -1.1570
 4839TIP3    H235933   0.534   4.457   2.204 -0.8534  0.7113 -0.2140
 4840TIP3   OH235934   6.643   3.658  16.032 -0.1230 -0.4393 -0.8325
 4840TIP3    H135935   6.601   3.694  16.109 -0.8655 -0.0435 -1.4231
 4840TIP3    H235936   6.575   3.607  15.989  0.3715 -0.9030 -1.0709
 4841TIP3   OH235937   6.294   4.293   1.893 -0.2038  0.1955  0.1718
 4841TIP3    H135938   6.271   4.309   1.802  1.4918  0.0095 -0.3131
 4841TIP3    H235939   6.210   4.282   1.938 -1.0268 -0.6410 -1.5302
 4842TIP3   OH235940   4.159   0.721   3.285  0.0868 -0.2116 -0.3298
 4842TIP3    H135941   4.184   0.772   3.208 -0.0917 -0.5210 -0.5946
 4842TIP3    H235942   4.135   0.786   3.350  0.2092  0.0518 -0.5453
 4843TIP3   OH235943   0.867   6.165   3.183  0.0255  0.7929 -0.8417
 4843TIP3    H135944   0.833   6.177   3.271 -0.3565  2.5389 -1.1995
 4843TIP3    H235945   0.831   6.082   3.153 -0.2970  0.4694  0.4348
 4844TIP3   OH235946   2.350   6.687   6.626  0.5900 -0.0993  0.3930
 4844TIP3    H135947   2.436   6.699   6.665  0.6462 -0.9053  0.5121
 4844TIP3    H235948   2.300   6.636   6.690  0.6119 -1.2330 -0.4710
 4845TIP3   OH235949   2.590   6.183   3.601  0.3479 -0.7496 -0.3885
 4845TIP3    H135950   2.546   6.200   3.518  0.4325  0.1378 -0.2562
 4845TIP3    H235951   2.568   6.259   3.656  1.3752 -0.6867 -0.0568
 4846TIP3   OH235952   6.523   6.247  16.542  0.2523 -0.1595  0.2222
 4846TIP3    H135953   6.466   6.175  16.568  0.8817 -0.9011 -0.4017
 4846TIP3    H235954   6.570   6.214  16.465  1.5969  0.3815  0.7808
 4847TIP3   OH235955   6.109   0.403   6.378 -0.4343  0.3052 -0.2105
 4847TIP3    H135956   6.203   0.417   6.372 -0.1956 -0.4306  1.5616
 4847TIP3    H235957   6.071   0.491   6.378  0.2296  0.5886 -1.2721
 4848TIP3   OH235958   6.616   0.199  12.332  0.2179  0.0310  0.1702
 4848TIP3    H135959   6.532   0.222  12.292  0.6439  1.0587 -0.1478
 4848TIP3    H235960   6.645   0.122  12.285 -0.0409  0.3084 -0.4479
 4849TIP3   OH235961   6.560   4.385   4.478  0.4487 -0.3147 -0.1713
 4849TIP3    H135962   6.501   4.460   4.466  1.6397  0.7558  0.4984
 4849TIP3    H235963   6.515   4.328   4.540  0.6092  1.0633  1.2443
 4850TIP3   OH235964   0.955   1.487  12.988 -0.1416 -0.0029 -0.0882
 4850TIP3    H135965   0.921   1.485  12.898 -1.1515  0.0715  0.2812
 4850TIP3    H235966   1.050   1.492  12.978 -0.1806 -1.0726 -1.1575
 4851TIP3   OH235967   4.382   1.876  15.132 -0.3811  0.3260  0.0944
 4851TIP3    H135968   4.422   1.963  15.135 -0.8179  0.6364 -1.9596
 4851TIP3    H235969   4.355   1.859  15.222  0.4219  1.9884  0.6741
 4852TIP3   OH235970   2.217   4.961   0.569 -0.4838  0.6793  0.5544
 4852TIP3    H135971   2.252   5.021   0.635 -0.7884  0.0753  1.2636
 4852TIP3    H235972   2.179   5.018   0.503 -0.6661  1.2765  1.1708
 4853TIP3   OH235973   0.177   0.712  12.050 -0.9367 -0.0054 -0.2145
 4853TIP3    H135974   0.227   0.636  12.079 -1.2235  0.2312  0.9285
 4853TIP3    H235975   0.109   0.676  11.993  0.3243 -0.3626 -1.5289
 4854TIP3   OH235976   5.455   1.423  12.927 -0.3766 -0.2856  0.1623
 4854TIP3    H135977   5.449   1.347  12.869 -2.0455  0.9434 -1.3003
 4854TIP3    H235978   5.549   1.440  12.933 -0.1419 -0.8633 -1.6020
 4855TIP3   OH235979   5.336   4.281   3.943  0.5265  0.1472 -0.1957
 4855TIP3    H135980   5.350   4.259   4.035 -1.0110 -0.2961 -0.0611
 4855TIP3    H235981   5.297   4.369   3.945 -1.1564 -0.5779 -0.3208
 4856TIP3   OH235982   6.501   5.980  13.576 -0.4617  0.0839 -0.3367
 4856TIP3    H135983   6.516   6.029  13.657 -1.7313 -2.6681  1.6217
 4856TIP3    H235984   6.408   5.994  13.556 -0.1207  0.8663 -1.4170
 4857TIP3   OH235985   0.598   5.448   2.625 -0.3404 -0.4938 -0.0872
 4857TIP3    H135986   0.529   5.513   2.613  0.1642 -0.2887 -1.9290
 4857TIP3    H235987   0.591   5.423   2.718 -1.8743  0.6468  0.1232
 4858TIP3   OH235988   0.871   5.845  15.134 -0.1862 -0.3784  1.0305
 4858TIP3    H135989   0.954   5.797  15.127  0.1561  0.1986  1.1122
 4858TIP3    H235990   0.884   5.904  15.209 -1.3273 -1.5729  2.1838
 4859TIP3   OH235991   0.500   0.869   2.745 -0.1306  0.1627  0.0563
 4859TIP3    H135992   0.427   0.828   2.793  1.7185 -1.2412  1.7453
 4859TIP3    H235993   0.475   0.961   2.739 -1.0426  0.1344  2.6171
 4860TIP3   OH235994   0.483   2.758  14.837 -0.0266 -0.3069  0.1086
 4860TIP3    H135995   0.441   2.683  14.880  0.8021 -0.2621  1.0092
 4860TIP3    H235996   0.550   2.719  14.782  0.5745 -0.2283  0.7692
 4861TIP3   OH235997   2.610   0.292   2.644  0.1595 -0.3962 -0.1173
 4861TIP3    H135998   2.644   0.377   2.616 -0.8525  0.9530  2.6227
 4861TIP3    H235999   2.688   0.241   2.666  0.8345 -0.6020 -2.7278
 4862TIP3   OH236000   4.706   1.767   1.423 -0.1382  0.4199 -0.4890
 4862TIP3    H136001   4.776   1.704   1.403  0.4948  0.6917  0.8253
 4862TIP3    H236002   4.669   1.736   1.506  0.3864  1.9371  0.3326
 4863TIP3   OH236003   0.727   0.823   3.666 -0.6320 -0.0176  0.7073
 4863TIP3    H136004   0.777   0.879   3.726  1.5647  0.6805 -1.7006
 4863TIP3    H236005   0.720   0.874   3.585 -3.0724 -1.1601  0.1256
 4864TIP3   OH236006   5.390   3.851  17.028 -0.3789 -0.8307  0.4830
 4864TIP3    H136007   5.419   3.784  16.967  0.5379 -0.2448  0.2731
 4864TIP3    H236008   5.315   3.892  16.984 -1.5242 -2.2992  0.9981
 4865TIP3   OH236009   4.511   3.760  17.216  0.0238 -0.3723  0.3276
 4865TIP3    H136010   4.602   3.756  17.187 -0.3577 -0.7140 -0.8437
 4865TIP3    H236011   4.460   3.734  17.139 -1.0914  0.3354  0.8181
 4866TIP3   OH236012   2.252   4.430  14.220 -0.3276 -0.2048  0.3771
 4866TIP3    H136013   2.215   4.478  14.294 -0.3664  0.5274 -0.1154
 4866TIP3    H236014   2.185   4.435  14.152  1.0439  1.9905 -0.8823
 4867TIP3   OH236015   0.920   3.375   4.429  0.0809  0.0673  0.2443
 4867TIP3    H136016   0.909   3.410   4.340 -0.1026  0.1806  0.3119
 4867TIP3    H236017   0.995   3.315   4.422 -0.3178 -0.3972 -0.1257
 4868TIP3   OH236018   4.932   2.131  14.288 -0.9153 -0.2774 -0.5900
 4868TIP3    H136019   4.966   2.220  14.290 -0.9423 -0.2329 -1.6528
 4868TIP3    H236020   4.892   2.118  14.374  3.3950 -0.9845  1.4347
 4869TIP3   OH236021   3.793   4.394   2.249 -0.1098  0.1252  0.3164
 4869TIP3    H136022   3.738   4.343   2.307  0.4482 -0.3672  0.4157
 4869TIP3    H236023   3.823   4.332   2.182 -0.8949  0.7208 -0.6126
 4870TIP3   OH236024   5.327   0.961  16.473  0.2756 -0.2317  0.6068
 4870TIP3    H136025   5.373   1.015  16.537  0.4045  0.4971 -0.0793
 4870TIP3    H236026   5.285   0.892  16.524 -1.8748  1.8973  1.8085
 4871TIP3   OH236027   6.525   1.706  11.268 -0.0648  0.2630 -0.6560
 4871TIP3    H136028   6.582   1.630  11.250  0.7057  0.9667 -1.2408
 4871TIP3    H236029   6.575   1.781  11.236 -1.2835  0.9137 -1.0460
 4872TIP3   OH236030   5.816   6.307   2.694 -0.0273  0.6525  0.0338
 4872TIP3    H136031   5.838   6.394   2.727  0.6142  1.2012 -1.7677
 4872TIP3    H236032   5.898   6.273   2.659 -0.4231 -0.4025  0.1128
 4873TIP3   OH236033   4.854   1.378  10.489  0.3525  0.4820 -0.0149
 4873TIP3    H136034   4.891   1.411  10.407 -0.5106  2.7590  0.4723
 4873TIP3    H236035   4.929   1.351  10.541  1.0121  0.5673 -0.9216
 4874TIP3   OH236036   4.274   2.618   3.553 -0.1046  0.0554 -0.1329
 4874TIP3    H136037   4.212   2.624   3.481  0.0792  0.4562 -0.2595
 4874TIP3    H236038   4.323   2.700   3.549 -0.4362  0.2932  0.7642
 4875TIP3   OH236039   1.369   5.347   1.196 -0.3937 -0.3963  0.7923
 4875TIP3    H136040   1.371   5.290   1.119 -0.5549 -1.4149  1.5195
 4875TIP3    H236041   1.361   5.286   1.270 -1.6839  0.6198  1.5135
 4876TIP3   OH236042   0.357   1.951   6.291  0.6848 -0.7563 -0.4956
 4876TIP3    H136043   0.299   1.992   6.356  0.9620  0.3118 -0.9078
 4876TIP3    H236044   0.444   1.982   6.314  0.6662  0.4614 -1.9763
 4877TIP3   OH236045   1.764   4.593  16.638  0.1155  0.6387 -0.6732
 4877TIP3    H136046   1.694   4.639  16.684  0.2036 -0.4590  0.5847
 4877TIP3    H236047   1.734   4.586  16.548 -0.7210  1.4932 -0.4680
 4878TIP3   OH236048   5.758   1.379   2.659 -0.2719  0.0151  0.2733
 4878TIP3    H136049   5.687   1.356   2.719  1.6082  0.3274  2.6993
 4878TIP3    H236050   5.775   1.472   2.676  0.3794  0.0676 -0.6255
 4879TIP3   OH236051   3.853   5.297   1.581 -0.0722  0.0912 -0.0091
 4879TIP3    H136052   3.859   5.381   1.627  0.4040 -0.6139  1.2301
 4879TIP3    H236053   3.942   5.262   1.583  0.3233  0.7986 -2.9433
 4880TIP3   OH236054   6.480   0.142   0.318 -0.3791  0.1150 -0.4019
 4880TIP3    H136055   6.548   0.078   0.299 -0.0314 -0.0036  1.1839
 4880TIP3    H236056   6.422   0.138   0.242  1.0562 -0.1918 -1.4964
 4881TIP3   OH236057   3.197   5.746   5.800  0.2391 -0.5679  0.0120
 4881TIP3    H136058   3.106   5.752   5.830  0.0024  1.4556 -0.9789
 4881TIP3    H236059   3.248   5.782   5.873  0.2872 -1.8838  0.6471
 4882TIP3   OH236060   2.152   6.603  11.878 -0.1812  0.5635  0.2148
 4882TIP3    H136061   2.070   6.652  11.871 -0.3574  0.0629 -1.3716
 4882TIP3    H236062   2.126   6.517  11.912 -0.3089  0.4173 -0.2548
 4883TIP3   OH236063   4.028   2.705  17.189  0.0414 -0.3293 -0.1772
 4883TIP3    H136064   4.000   2.713  17.280  2.0488  0.8594  0.3690
 4883TIP3    H236065   4.062   2.616  17.182  0.7357 -0.1333  0.5185
 4884TIP3   OH236066   3.449   1.977  16.939 -0.1827  0.0292  0.3298
 4884TIP3    H136067   3.521   1.937  16.890 -0.3088  0.5531 -0.2903
 4884TIP3    H236068   3.473   1.965  17.031  0.5892  0.0185  0.1298
 4885TIP3   OH236069   5.414   6.077  16.872  0.2045 -0.4795  0.1606
 4885TIP3    H136070   5.499   6.068  16.916  0.9574  2.8641 -0.5086
 4885TIP3    H236071   5.428   6.039  16.786  0.5972 -1.2071  0.5360
 4886TIP3   OH236072   4.940   0.684   4.180  0.0584 -0.2082  0.2760
 4886TIP3    H136073   4.899   0.766   4.150  0.6510  0.1661  0.4894
 4886TIP3    H236074   4.866   0.628   4.204 -0.5002 -0.8687 -2.7566
 4887TIP3   OH236075   1.262   5.454   3.275  0.1861  0.6537 -0.0567
 4887TIP3    H136076   1.354   5.474   3.257  0.2441  0.9341  0.5321
 4887TIP3    H236077   1.220   5.451   3.189  0.8371  0.0669 -0.3587
 4888TIP3   OH236078   2.539   6.116  15.804  0.4490 -0.2029  0.0901
 4888TIP3    H136079   2.622   6.071  15.788  0.6256 -0.0913  0.6752
 4888TIP3    H236080   2.512   6.086  15.891 -0.4202 -0.6933 -0.3413
 4889TIP3   OH236081   5.546   2.108  12.549  0.0249 -0.2411  0.0067
 4889TIP3    H136082   5.563   2.119  12.455  0.1861  1.0661  0.1770
 4889TIP3    H236083   5.547   2.197  12.584  1.0804 -0.7994  1.4539
 4890TIP3   OH236084   1.348   3.805  14.080 -0.2087 -0.3226  0.4830
 4890TIP3    H136085   1.309   3.862  14.013 -1.5681 -0.8442  0.8262
 4890TIP3    H236086   1.284   3.804  14.150 -0.3393 -2.5349  0.3655
 4891TIP3   OH236087   5.796   1.839   0.661 -0.0105  0.1924  0.4445
 4891TIP3    H136088   5.817   1.925   0.697 -1.0100  0.3633  0.6539
 4891TIP3    H236089   5.743   1.858   0.583  1.1238 -0.1993 -0.4422
 4892TIP3   OH236090   1.348   4.685  15.073  0.5074 -0.0642 -0.4781
 4892TIP3    H136091   1.424   4.741  15.085  1.8725 -2.6009  3.6856
 4892TIP3    H236092   1.277   4.730  15.120  0.8277 -0.3169  0.2549
 4893TIP3   OH236093   4.184   0.835  12.247  0.6943  0.2223 -0.0842
 4893TIP3    H136094   4.209   0.927  12.238 -0.7523  0.4429 -2.2177
 4893TIP3    H236095   4.228   0.791  12.174 -1.5168 -0.1198 -1.2682
 4894TIP3   OH236096   1.475   6.551   3.762 -0.0650  0.3353  0.1882
 4894TIP3    H136097   1.534   6.605   3.708  0.6181  0.0900  0.6775
 4894TIP3    H236098   1.525   6.535   3.842 -0.2561 -1.0113  0.0484
 4895TIP3   OH236099   1.703   4.632   2.127  0.3590 -0.1665 -0.1750
 4895TIP3    H136100   1.765   4.567   2.159  0.2240 -2.0261 -3.4914
 4895TIP3    H236101   1.708   4.703   2.190  3.6843 -1.5367  1.1946
 4896TIP3   OH236102   1.881   2.713  15.237 -0.0332  0.4121 -0.6742
 4896TIP3    H136103   1.848   2.661  15.309  1.3567  0.5276  0.0715
 4896TIP3    H236104   1.856   2.803  15.258 -0.7778  0.2806 -1.0016
 4897TIP3   OH236105   4.119   1.876   5.866 -0.9176  0.7152  0.0936
 4897TIP3    H136106   4.045   1.837   5.914 -1.5663  0.4004 -1.1520
 4897TIP3    H236107   4.078   1.940   5.808 -0.3810 -0.6992 -1.8672
 4898TIP3   OH236108   3.273   1.157   2.385 -0.0211 -0.1653 -0.0444
 4898TIP3    H136109   3.314   1.084   2.339  0.3639  0.9449 -1.5001
 4898TIP3    H236110   3.339   1.226   2.384 -0.4050  0.2311  1.2755
 4899TIP3   OH236111   3.805   0.295  14.729 -0.3546 -0.3399  0.3651
 4899TIP3    H136112   3.889   0.251  14.735  1.0137  1.4758 -3.7590
 4899TIP3    H236113   3.748   0.231  14.686  0.2073  0.0366 -0.9621
 4900TIP3   OH236114   2.032   2.432   5.470 -0.0582 -0.0546  0.4167
 4900TIP3    H136115   1.983   2.473   5.541 -0.5785 -0.5040  0.3195
 4900TIP3    H236116   2.106   2.389   5.514  1.0158  1.7441  0.4272
 4901TIP3   OH236117   5.062   0.071  15.682 -0.1362 -0.1128  0.2359
 4901TIP3    H136118   5.011  -0.009  15.670  0.8679 -0.6571 -0.5128
 4901TIP3    H236119   5.123   0.072  15.607  0.1846  1.0976  0.4979
 4902TIP3   OH236120   2.781   1.210  11.334  0.5508 -0.0975  0.0777
 4902TIP3    H136121   2.814   1.298  11.350  1.3834 -0.3631 -0.1252
 4902TIP3    H236122   2.773   1.204  11.239  1.0659 -0.4298  0.0500
 4903TIP3   OH236123   1.182   3.098  11.281 -0.1078 -0.2362  0.0943
 4903TIP3    H136124   1.131   3.123  11.204  1.5017  0.1326 -0.8744
 4903TIP3    H236125   1.207   3.182  11.321 -0.9731 -0.4268  1.0593
 4904TIP3   OH236126   3.772   5.053   1.561  0.1364  0.1276 -0.4866
 4904TIP3    H136127   3.806   5.142   1.567  2.0669 -0.5839 -0.6780
 4904TIP3    H236128   3.752   5.041   1.468 -0.6460  0.5296 -0.3789
 4905TIP3   OH236129   5.280   2.559  11.060 -0.3057 -0.4158 -0.0327
 4905TIP3    H136130   5.373   2.550  11.039  0.0820  1.6634  0.6147
 4905TIP3    H236131   5.256   2.644  11.024 -1.1445  0.4740  2.4993
 4906TIP3   OH236132   3.681   2.947   2.774 -0.4117  0.3268  0.0188
 4906TIP3    H136133   3.588   2.933   2.756 -0.2509 -0.9192  0.1324
 4906TIP3    H236134   3.726   2.890   2.712  0.3016  1.4870 -0.5436
 4907TIP3   OH236135   2.183   1.890   2.563 -0.1793  0.6057  0.8083
 4907TIP3    H136136   2.261   1.906   2.510 -0.7784  0.9934  0.0242
 4907TIP3    H236137   2.132   1.970   2.556 -1.2708 -0.1237  0.2133
 4908TIP3   OH236138   3.008   2.554  13.212  0.4213 -0.1346 -0.1407
 4908TIP3    H136139   2.956   2.553  13.132  2.9594 -0.8957 -1.8556
 4908TIP3    H236140   3.014   2.647  13.235  0.4403  0.1931 -1.4043
 4909TIP3   OH236141   3.039   5.211   4.245  0.0661 -0.1361 -0.2108
 4909TIP3    H136142   3.125   5.253   4.232 -1.7042  3.2536 -1.7866
 4909TIP3    H236143   3.031   5.151   4.171  0.9111 -0.1887 -0.2710
 4910TIP3   OH236144   4.666   5.632   0.301 -0.2188  0.4667 -0.7461
 4910TIP3    H136145   4.741   5.662   0.250  1.1779 -2.3293 -0.4302
 4910TIP3    H236146   4.701   5.619   0.389 -1.8739  2.2722  0.2205
 4911TIP3   OH236147   5.749   6.108   1.700 -0.1842  0.1011 -0.2059
 4911TIP3    H136148   5.814   6.175   1.722 -0.6827  0.8837 -1.0776
 4911TIP3    H236149   5.709   6.085   1.784 -1.5214  2.4675 -0.1676
 4912TIP3   OH236150   3.898   0.477   1.946  0.1983 -1.0444 -0.8730
 4912TIP3    H136151   3.883   0.395   1.993 -0.2534 -0.3532  0.2196
 4912TIP3    H236152   3.895   0.453   1.854 -1.1987 -2.0549 -0.5805
 4913TIP3   OH236153   3.701   4.704   0.816  0.4047 -0.5815 -0.2590
 4913TIP3    H136154   3.644   4.643   0.864  0.9640 -0.8536  0.0699
 4913TIP3    H236155   3.784   4.657   0.808  1.0215  0.3688  0.5152
 4914TIP3   OH236156   4.159   1.785  12.139  0.6401 -0.0007  0.0738
 4914TIP3    H136157   4.154   1.768  12.044 -0.6466  0.5629  0.0297
 4914TIP3    H236158   4.080   1.836  12.158  0.4335 -0.8904  1.6218
 4915TIP3   OH236159   2.869   6.043   0.439  0.6170  0.1674  0.0389
 4915TIP3    H136160   2.795   6.062   0.381 -0.6874  1.4860  2.0766
 4915TIP3    H236161   2.946   6.066   0.387 -0.4783  0.4251 -1.5000
 4916TIP3   OH236162   1.970   6.330   3.447 -0.9146 -0.2327  0.2919
 4916TIP3    H136163   1.985   6.425   3.447 -2.6989  0.0754  1.3152
 4916TIP3    H236164   1.920   6.314   3.367  1.0512 -0.6348 -0.9043
 4917TIP3   OH236165   6.027   1.748   0.519  0.2813  0.0135  0.1441
 4917TIP3    H136166   6.043   1.666   0.472 -0.3173 -0.0524  0.0516
 4917TIP3    H236167   5.947   1.732   0.569  0.0586  0.6045 -0.0220
 4918TIP3   OH236168   3.022   3.947   3.926 -0.2129  0.2797  0.8649
 4918TIP3    H136169   3.081   3.993   3.987  0.9689  2.6596 -1.9668
 4918TIP3    H236170   2.936   3.957   3.966  0.5901  1.3506  2.4249
 4919TIP3   OH236171   3.670   0.119   1.929 -0.1672 -0.5311  0.3290
 4919TIP3    H136172   3.728   0.186   1.964 -0.9161 -0.1239  0.7855
 4919TIP3    H236173   3.583   0.159   1.929 -0.1678 -0.4088 -2.2391
 4920TIP3   OH236174   0.987   3.490   1.250 -0.2612  0.5068 -0.1885
 4920TIP3    H136175   1.039   3.424   1.294 -0.8897 -0.0313 -0.2463
 4920TIP3    H236176   0.906   3.445   1.225 -1.0974  1.5185  0.6095
 4921TIP3   OH236177   5.050   0.539   5.356  0.3403  0.7730  0.5249
 4921TIP3    H136178   5.018   0.593   5.428  0.9989  1.9059 -0.0203
 4921TIP3    H236179   5.145   0.550   5.358  0.5125 -0.5946  0.5724
 4922TIP3   OH236180   5.654   3.245   6.083 -0.4739  0.4187  0.2794
 4922TIP3    H136181   5.606   3.298   6.147 -1.1718 -0.2927  0.3493
 4922TIP3    H236182   5.668   3.304   6.009  1.0757  1.5108  1.4136
 4923TIP3   OH236183   3.023   0.813   5.584  0.3514 -0.4589  0.0523
 4923TIP3    H136184   3.059   0.725   5.584 -0.9937 -1.0211  0.5931
 4923TIP3    H236185   2.980   0.823   5.499 -0.7339 -0.8580  0.5407
 4924TIP3   OH236186   3.833   1.351   0.320  0.2082 -0.5116  0.0006
 4924TIP3    H136187   3.876   1.307   0.393  0.3499 -0.3747 -0.0002
 4924TIP3    H236188   3.855   1.443   0.330  2.8963 -0.8805 -1.9910
 4925TIP3   OH236189   6.231   3.898   0.732  0.7232  0.6352 -0.6229
 4925TIP3    H136190   6.206   3.979   0.776 -0.3765  0.8003 -1.5004
 4925TIP3    H236191   6.182   3.900   0.649  1.5721 -0.3744 -1.1682
 4926TIP3   OH236192   5.211   2.074  15.420 -0.0505 -0.3467 -0.1028
 4926TIP3    H136193   5.207   1.981  15.442 -1.8816 -0.1279  0.5437
 4926TIP3    H236194   5.221   2.118  15.504  0.1680  0.0883 -0.3550
 4927TIP3   OH236195   3.453   5.529  12.540  0.7170  0.4858  0.0510
 4927TIP3    H136196   3.446   5.584  12.618 -1.0858  1.5330 -0.8032
 4927TIP3    H236197   3.491   5.587  12.474  1.9906 -0.3133  0.0790
 4928TIP3   OH236198   4.634   2.853  14.708  1.2959  0.1951  0.5838
 4928TIP3    H136199   4.680   2.774  14.680 -0.1487 -0.1499 -0.8949
 4928TIP3    H236200   4.559   2.821  14.758  1.4940  0.6770  1.1954
 4929TIP3   OH236201   1.550   0.155   3.128  0.3060  0.5213 -0.0302
 4929TIP3    H136202   1.477   0.122   3.076 -0.5779  0.2059  1.3857
 4929TIP3    H236203   1.624   0.155   3.068 -0.6631  0.0232 -1.2422
 4930TIP3   OH236204   1.598   6.778  14.986 -0.1267  0.2736 -0.3354
 4930TIP3    H136205   1.517   6.737  14.957 -0.6175 -0.3104  1.7415
 4930TIP3    H236206   1.631   6.720  15.055  1.9190  0.6523 -0.9606
 4931TIP3   OH236207   0.108   1.985  12.451 -0.0238  0.1726 -0.0013
 4931TIP3    H136208   0.073   1.941  12.373  1.5742  1.7549 -1.6530
 4931TIP3    H236209   0.032   2.027  12.491 -0.5351  0.9552 -1.7824
 4932TIP3   OH236210   4.478   1.153   1.674  0.3870 -0.2824  0.0777
 4932TIP3    H136211   4.468   1.201   1.591  0.4384 -0.2010  0.1183
 4932TIP3    H236212   4.507   1.066   1.647  0.0457 -0.3690 -0.0122
 4933TIP3   OH236213   3.606   4.262   2.412 -0.6582 -0.2799 -0.5846
 4933TIP3    H136214   3.584   4.211   2.490 -1.0551  0.3691 -0.2625
 4933TIP3    H236215   3.524   4.266   2.362 -1.2514  1.9207  0.4904
 4934TIP3   OH236216   1.311   3.088  14.511 -0.0937 -0.4946  0.1330
 4934TIP3    H136217   1.398   3.052  14.531  0.0648 -0.6563 -0.8294
 4934TIP3    H236218   1.288   3.050  14.427 -0.8567  0.0020  0.1121
 4935TIP3   OH236219   6.569   5.353   1.682 -0.4807 -0.1924 -0.0284
 4935TIP3    H136220   6.602   5.325   1.597 -0.3552  2.2736 -0.8426
 4935TIP3    H236221   6.594   5.283   1.742  2.4087 -0.4643 -1.4355
 4936TIP3   OH236222   0.586   4.580   2.887  0.0380 -0.2841  0.2189
 4936TIP3    H136223   0.649   4.643   2.852  0.5295  0.1510  1.8625
 4936TIP3    H236224   0.634   4.535   2.957 -1.3120 -0.3025  1.1437
 4937TIP3   OH236225   5.420   0.146  14.567  0.1024  0.1928  0.1078
 4937TIP3    H136226   5.488   0.168  14.631  0.2822  1.9023 -0.6506
 4937TIP3    H236227   5.338   0.167  14.611  0.0589 -1.4403  0.8527
 4938TIP3   OH236228   1.292   2.998   5.731  0.3811  0.4000  0.4235
 4938TIP3    H136229   1.350   2.946   5.675 -1.5860 -0.4272 -0.8874
 4938TIP3    H236230   1.246   2.934   5.784 -0.6947  0.9255  0.1279
 4939TIP3   OH236231   6.661   6.504   3.637  0.0619 -0.5975  0.8406
 4939TIP3    H136232   6.726   6.539   3.576  0.0961  0.5766  1.5403
 4939TIP3    H236233   6.577   6.519   3.594  0.0914  0.1593  1.0489
 4940TIP3   OH236234   5.531   5.495  15.214  0.7155  0.1000 -0.2808
 4940TIP3    H136235   5.465   5.444  15.167  0.4323  2.2465 -2.3054
 4940TIP3    H236236   5.525   5.465  15.304 -1.7576 -1.0456 -0.7880
 4941TIP3   OH236237   5.228   6.120   1.549  0.1274  0.4290  0.5019
 4941TIP3    H136238   5.240   6.207   1.510 -0.5657  0.9860  1.5137
 4941TIP3    H236239   5.171   6.074   1.487 -0.6092  1.1548  0.6368
 4942TIP3   OH236240   2.360   5.255   4.425 -0.6021 -0.0791 -0.2483
 4942TIP3    H136241   2.314   5.221   4.502  0.0680  0.3549  0.3490
 4942TIP3    H236242   2.382   5.345   4.448 -1.6908  0.5349 -1.5158
 4943TIP3   OH236243   2.308   1.495   1.384  0.4407 -0.6323  0.2675
 4943TIP3    H136244   2.394   1.490   1.342  0.6288  0.1017  0.5533
 4943TIP3    H236245   2.313   1.573   1.440 -0.3455 -0.6927  0.4310
 4944TIP3   OH236246   5.578   5.382   4.878 -0.6685 -0.7228 -0.5340
 4944TIP3    H136247   5.514   5.315   4.900  0.6287 -1.5633  0.7783
 4944TIP3    H236248   5.575   5.443   4.951  0.2671 -0.9588 -0.2924
 4945TIP3   OH236249   1.401   1.104   1.072 -0.0597  0.4405 -0.6626
 4945TIP3    H136250   1.316   1.079   1.037  0.5012 -1.3440 -0.7595
 4945TIP3    H236251   1.464   1.069   1.010  0.7910  0.6518  0.0830
 4946TIP3   OH236252   5.313   6.272  16.719  0.0975 -0.1665 -0.1075
 4946TIP3    H136253   5.319   6.352  16.772 -3.1823 -1.0995  1.7887
 4946TIP3    H236254   5.359   6.206  16.770  1.5549  0.1053 -1.0093
 4947TIP3   OH236255   4.523   0.591   2.127  0.0872 -0.4669 -0.0729
 4947TIP3    H136256   4.541   0.684   2.115  0.8021 -0.4410  1.1491
 4947TIP3    H236257   4.603   0.556   2.168  0.2953 -1.8466 -1.6074
 4948TIP3   OH236258   3.344   2.159  13.082  0.8039 -0.1431  0.0271
 4948TIP3    H136259   3.398   2.084  13.060 -1.0479 -1.2930 -0.6682
 4948TIP3    H236260   3.320   2.145  13.174  1.6222  0.3479  0.3243
 4949TIP3   OH236261   4.777   5.672   0.553  0.0318  0.2185  0.2167
 4949TIP3    H136262   4.710   5.712   0.609 -1.2000 -2.2433  0.5757
 4949TIP3    H236263   4.859   5.712   0.581 -1.0235  1.7430  1.2279
 4950TIP3   OH236264   4.379   4.422   5.486  0.8722 -0.2974 -0.1238
 4950TIP3    H136265   4.447   4.490   5.488  0.8076 -0.2529  0.6778
 4950TIP3    H236266   4.418   4.347   5.529  0.2809 -0.1503  0.6760
 4951TIP3   OH236267   6.274   1.549  16.384  0.0814 -0.3585  0.8047
 4951TIP3    H136268   6.281   1.541  16.479  2.1540  0.0907  0.7251
 4951TIP3    H236269   6.339   1.616  16.361  0.4196 -1.2931 -1.0361
 4952TIP3   OH236270   2.951   4.827   0.977  0.0858 -0.0350 -0.2823
 4952TIP3    H136271   2.924   4.909   0.935 -0.7159 -0.3043 -0.2953
 4952TIP3    H236272   2.883   4.764   0.953  1.6684 -1.1948 -1.8266
 4953TIP3   OH236273   0.952   6.706   5.567 -0.5558 -0.1587  0.5094
 4953TIP3    H136274   0.878   6.753   5.527 -1.9594 -2.0968  0.7689
 4953TIP3    H236275   0.986   6.651   5.496 -0.6634 -0.7983  0.9501
 4954TIP3   OH236276   6.671   5.436   5.045  0.3250  0.1902 -0.1516
 4954TIP3    H136277   6.704   5.524   5.059  1.1975 -0.2587  0.6897
 4954TIP3    H236278   6.732   5.379   5.091  0.8547 -1.0178 -2.2495
 4955TIP3   OH236279   6.263   5.729  16.259 -0.0166 -0.5482 -0.1266
 4955TIP3    H136280   6.273   5.652  16.203  0.0063 -0.1324 -0.7013
 4955TIP3    H236281   6.170   5.729  16.282  0.2684 -1.5772  1.0987
 4956TIP3   OH236282   3.865   2.548   3.303 -0.1045  0.6254  0.4473
 4956TIP3    H136283   3.783   2.569   3.259 -0.6232 -0.7287  0.7649
 4956TIP3    H236284   3.843   2.479   3.365  1.4951 -0.5096 -0.2298
 4957TIP3   OH236285   5.397   5.400   6.480  0.0513 -0.3658 -0.3465
 4957TIP3    H136286   5.435   5.483   6.508  0.6960 -0.9036  0.4151
 4957TIP3    H236287   5.369   5.415   6.390  1.8118  0.1468 -0.8456
 4958TIP3   OH236288   0.693   1.959   3.559  0.0245  0.0688 -0.2801
 4958TIP3    H136289   0.754   1.885   3.549 -0.2335 -0.0958 -0.6656
 4958TIP3    H236290   0.644   1.939   3.638  0.1588 -0.0306 -0.2212
 4959TIP3   OH236291   1.241   2.966  10.835  0.3757 -0.1569 -0.0737
 4959TIP3    H136292   1.300   2.969  10.910  0.1722  1.0409  0.0630
 4959TIP3    H236293   1.209   3.056  10.827 -0.1072 -0.4221 -1.1966
 4960TIP3   OH236294   2.722   1.098   1.800 -0.1730 -0.3350 -0.3881
 4960TIP3    H136295   2.754   1.179   1.840 -1.4221  0.0209 -0.0686
 4960TIP3    H236296   2.705   1.040   1.875 -1.6382  0.0039 -0.4367
 4961TIP3   OH236297   0.573   2.252   2.128 -0.4440 -0.1942  0.3006
 4961TIP3    H136298   0.658   2.207   2.121 -0.0821  0.5228  0.0945
 4961TIP3    H236299   0.513   2.196   2.079  0.0491 -0.3543 -0.1272
 4962TIP3   OH236300   3.171   1.836   2.075  0.5663  0.4404 -0.1828
 4962TIP3    H136301   3.231   1.778   2.122  0.4641  2.3566  2.3841
 4962TIP3    H236302   3.201   1.924   2.095 -0.3420  1.3563 -2.6250
 4963TIP3   OH236303   1.615   3.704   9.936 -0.4605  0.1198  0.1867
 4963TIP3    H136304   1.660   3.620   9.926 -1.4452 -0.4471  0.4399
 4963TIP3    H236305   1.527   3.680   9.964 -0.5931  1.2679  0.7559
 4964TIP3   OH236306   0.338   4.835   4.493 -0.7696  0.4806 -0.0157
 4964TIP3    H136307   0.338   4.903   4.425 -0.7459  0.2623 -0.2381
 4964TIP3    H236308   0.284   4.765   4.456  0.2850 -0.1751 -0.3676
 4965TIP3   OH236309   1.487   2.418   0.900  0.4633  0.2552 -0.2012
 4965TIP3    H136310   1.456   2.476   0.831  0.1564  0.3972  0.0540
 4965TIP3    H236311   1.409   2.401   0.954  1.0662  1.5061  1.0875
 4966TIP3   OH236312   0.240   2.552   3.440 -0.0508 -0.4930 -0.1062
 4966TIP3    H136313   0.204   2.479   3.389  1.8271 -1.6988  0.2347
 4966TIP3    H236314   0.189   2.553   3.520 -1.7460  0.1809 -1.1653
 4967TIP3   OH236315   1.173   6.574  14.197  0.2014 -0.6299  0.2391
 4967TIP3    H136316   1.135   6.534  14.276 -2.3382 -0.2320 -0.7273
 4967TIP3    H236317   1.183   6.667  14.220 -1.3897 -0.3349 -0.1663
 4968TIP3   OH236318   1.691   6.044  11.657 -0.1110  0.6121 -0.6556
 4968TIP3    H136319   1.665   6.133  11.679  0.4300  0.9538 -1.3789
 4968TIP3    H236320   1.611   6.003  11.624 -0.5270  0.6031  0.3456
 4969TIP3   OH236321   3.938   4.014   2.715 -0.0602  0.1341 -0.4511
 4969TIP3    H136322   3.892   3.975   2.788  0.9889  0.1691  0.2476
 4969TIP3    H236323   3.990   4.085   2.755 -0.3343  0.8738 -1.3848
 4970TIP3   OH236324   5.063   2.491  11.240 -0.3792  0.0663  0.1782
 4970TIP3    H136325   5.004   2.540  11.183  1.2012  2.2310  0.3401
 4970TIP3    H236326   5.150   2.506  11.203  0.6056  0.9986  2.7732
 4971TIP3   OH236327   3.759   5.429  16.026  0.3736 -0.2024  0.1983
 4971TIP3    H136328   3.822   5.480  16.078  0.9562 -1.2032  0.5023
 4971TIP3    H236329   3.674   5.449  16.065  0.4079  1.6560 -0.6157
 4972TIP3   OH236330   5.279   2.306  15.192  0.0280 -0.0581  0.5858
 4972TIP3    H136331   5.305   2.387  15.235 -0.1125  0.4710 -0.3108
 4972TIP3    H236332   5.285   2.239  15.260 -0.3843  0.8014  1.4673
 4973TIP3   OH236333   4.880   3.101  12.249 -0.4620 -0.1481 -0.1127
 4973TIP3    H136334   4.953   3.073  12.305 -1.2405 -0.1177  0.9326
 4973TIP3    H236335   4.810   3.124  12.311 -1.2366  0.1629 -1.0952
 4974TIP3   OH236336   4.161   6.652  15.055 -0.1693  0.4298 -0.0177
 4974TIP3    H136337   4.086   6.634  14.999 -0.0169 -0.2799 -0.0024
 4974TIP3    H236338   4.234   6.607  15.013 -0.1333 -0.4552  0.9686
 4975TIP3   OH236339   5.191   5.466  16.577 -0.0690  0.0438  0.2273
 4975TIP3    H136340   5.132   5.450  16.503  1.0429  1.9995 -1.1322
 4975TIP3    H236341   5.236   5.383  16.590  1.4014  0.2562 -2.8694
 4976TIP3   OH236342   5.291   5.190  10.392 -0.6397  0.5435  0.2406
 4976TIP3    H136343   5.275   5.222  10.481  2.0163 -1.8489  1.6765
 4976TIP3    H236344   5.379   5.222  10.371 -0.0409 -1.3871 -0.3053
 4977TIP3   OH236345   1.764   1.036   0.547 -0.2358  0.1658 -0.2168
 4977TIP3    H136346   1.842   1.047   0.494  0.2707 -0.8250  0.3168
 4977TIP3    H236347   1.795   1.044   0.638 -0.8658  0.4808 -0.0261
 4978TIP3   OH236348   0.091   4.072   5.720 -0.0221  0.1137  0.5609
 4978TIP3    H136349   0.126   4.050   5.806 -0.6087 -3.2043  0.0278
 4978TIP3    H236350   0.004   4.031   5.719 -0.0899  0.2716 -1.5224
 4979TIP3   OH236351   1.032   1.400   2.535 -0.0200  1.0290 -0.7629
 4979TIP3    H136352   1.062   1.412   2.446 -0.7655 -0.2841 -1.2073
 4979TIP3    H236353   0.956   1.458   2.543  1.0161  2.3714 -0.4548
 4980TIP3   OH236354   5.847   4.855   4.467 -1.1680  0.2256 -0.7443
 4980TIP3    H136355   5.776   4.794   4.445 -1.1308  0.3362 -1.1866
 4980TIP3    H236356   5.834   4.928   4.406 -1.7861  1.0997  0.4065
 4981TIP3   OH236357   3.959   0.406  12.713  0.2812 -0.3496  0.4530
 4981TIP3    H136358   3.894   0.338  12.698  0.0740 -0.2115  0.7274
 4981TIP3    H236359   4.035   0.379  12.661 -0.0665 -0.3997 -0.0325
 4982TIP3   OH236360   2.879   2.631  11.714  0.0669 -0.3788 -0.2107
 4982TIP3    H136361   2.884   2.564  11.783 -2.7871 -0.4507  0.0053
 4982TIP3    H236362   2.862   2.582  11.634  0.3354 -0.0712 -0.4573
 4983TIP3   OH236363   5.217   3.760   5.399 -0.3566 -0.2173 -0.2706
 4983TIP3    H136364   5.162   3.787   5.472  0.0735 -2.6562  1.0116
 4983TIP3    H236365   5.204   3.828   5.333 -3.6044  0.1236  0.6295
 4984TIP3   OH236366   4.985   0.260  14.641  0.4357 -0.4061 -0.0724
 4984TIP3    H136367   4.994   0.174  14.682  0.9330 -0.1488  0.3557
 4984TIP3    H236368   5.074   0.292  14.632  0.3204 -0.4039 -1.2349
 4985TIP3   OH236369   3.881   2.270  12.023 -0.3137 -0.1334 -0.4742
 4985TIP3    H136370   3.830   2.314  11.954 -2.4066  0.7749  1.5657
 4985TIP3    H236371   3.954   2.329  12.039 -0.8337  0.5686 -0.6440
 4986TIP3   OH236372   2.092   3.439   4.161  0.3919  0.3353 -0.2635
 4986TIP3    H136373   2.044   3.522   4.155  0.5007  0.5516  1.6337
 4986TIP3    H236374   2.062   3.400   4.243  1.0704 -1.0420 -0.6667
 4987TIP3   OH236375   1.610   3.362  13.488 -0.1056  0.1438  0.5429
 4987TIP3    H136376   1.687   3.385  13.436 -0.8148 -0.9613 -1.0284
 4987TIP3    H236377   1.599   3.268  13.475 -1.3649  0.1807  1.2459
 4988TIP3   OH236378   4.975   3.316   1.442  0.5145  0.0297  0.0385
 4988TIP3    H136379   5.052   3.367   1.470  0.3915 -0.8004  1.9754
 4988TIP3    H236380   5.012   3.237   1.404  0.7657  2.0928 -4.3824
 4989TIP3   OH236381   4.549   5.180   5.126  0.3554  0.5044  0.2373
 4989TIP3    H136382   4.560   5.085   5.132 -0.0522  0.4336 -0.1030
 4989TIP3    H236383   4.459   5.192   5.097  0.6995  0.9647 -0.6881
 4990TIP3   OH236384   4.408   5.138   1.794  0.1645 -0.1850 -0.3391
 4990TIP3    H136385   4.380   5.170   1.880  1.1193 -0.2772  0.0116
 4990TIP3    H236386   4.477   5.198   1.768 -0.7691  0.4104 -1.4751
 4991TIP3   OH236387   0.946   5.318  14.500 -0.1871  0.3384 -0.0637
 4991TIP3    H136388   0.896   5.303  14.420 -0.8164  1.4795  0.1009
 4991TIP3    H236389   0.936   5.411  14.518 -0.7116 -0.0367  1.7712
 4992TIP3   OH236390   1.557   1.607   3.715 -0.0298  0.3013 -0.3666
 4992TIP3    H136391   1.573   1.548   3.789 -0.6363 -0.0950 -0.5456
 4992TIP3    H236392   1.595   1.690   3.742  1.6642 -0.4194 -0.4990
 4993TIP3   OH236393   0.787   1.655  16.981 -0.3707  0.0881 -0.2813
 4993TIP3    H136394   0.845   1.580  16.966  0.0052  0.3253 -0.0299
 4993TIP3    H236395   0.802   1.713  16.906 -2.0900 -0.9664 -1.4932
 4994TIP3   OH236396   2.371   5.062  15.630  0.4119  0.2467  0.0149
 4994TIP3    H136397   2.416   5.145  15.619 -0.4757  0.8605  0.8854
 4994TIP3    H236398   2.438   5.002  15.663  0.9521  0.7351 -0.1988
 4995TIP3   OH236399   4.775   3.732  17.136  0.3254 -0.1002 -0.5621
 4995TIP3    H136400   4.841   3.673  17.173 -0.1438 -1.2203 -1.4789
 4995TIP3    H236401   4.825   3.793  17.082  0.8625  0.6467  0.7417
 4996TIP3   OH236402   6.279   1.471  15.331  0.3606  0.3386  0.2206
 4996TIP3    H136403   6.249   1.380  15.331 -0.0923  0.4868 -0.0243
 4996TIP3    H236404   6.271   1.498  15.423  1.1182 -0.0726  0.4029
 4997TIP3   OH236405   0.404   5.987  11.761 -0.4110 -0.5426 -0.2836
 4997TIP3    H136406   0.337   6.048  11.729 -0.3689 -1.0645 -1.3969
 4997TIP3    H236407   0.367   5.950  11.841 -0.7246  0.4410  0.0278
 4998TIP3   OH236408   3.750   4.389   5.462 -0.1571 -0.4429 -0.5468
 4998TIP3    H136409   3.779   4.360   5.549 -0.9058 -0.3592 -0.2650
 4998TIP3    H236410   3.669   4.341   5.447 -0.7200  0.5321 -0.6355
 4999TIP3   OH236411   0.166   1.481   0.649 -0.1179 -0.4390  0.0662
 4999TIP3    H136412   0.088   1.490   0.595  0.1594 -0.8417 -0.4059
 4999TIP3    H236413   0.154   1.544   0.720 -1.8960 -2.0593  1.2347
 5000TIP3   OH236414   5.420   0.445  15.143 -0.1615 -0.7540 -0.4210
 5000TIP3    H136415   5.368   0.443  15.062 -0.7475  1.2438 -0.1282
 5000TIP3    H236416   5.510   0.460  15.113 -0.0520 -2.1121 -0.8059
 5001TIP3   OH236417   3.875   3.753  15.188  0.2628  0.0800  0.1834
 5001TIP3    H136418   3.895   3.836  15.231 -3.0539  1.1742 -0.2330
 5001TIP3    H236419   3.843   3.778  15.101  2.0062 -1.8374 -1.0671
 5002TIP3   OH236420   3.406   5.467  14.164  0.6995  0.5604  0.6487
 5002TIP3    H136421   3.469   5.454  14.094 -1.6060 -1.0761 -1.1700
 5002TIP3    H236422   3.458   5.465  14.244  2.5305 -4.8072 -0.5052
 5003TIP3   OH236423   5.460   0.281   5.438 -0.6426  0.1439 -0.2973
 5003TIP3    H136424   5.516   0.223   5.490 -0.8987 -0.0432 -0.2307
 5003TIP3    H236425   5.439   0.354   5.496  0.6333  0.8988 -0.7519
 5004TIP3   OH236426   4.323   6.376  11.225  0.4654  0.2923  0.3720
 5004TIP3    H136427   4.240   6.348  11.187  0.8206 -0.6074  0.2351
 5004TIP3    H236428   4.387   6.364  11.154  0.9412 -0.3436  0.8939
 5005TIP3   OH236429   5.589   5.671   2.288 -0.1943 -0.2927 -0.2559
 5005TIP3    H136430   5.510   5.703   2.332 -0.8212 -2.4281  0.2697
 5005TIP3    H236431   5.658   5.681   2.353 -0.6704 -1.3322  0.4225
 5006TIP3   OH236432   2.501   5.203   0.443  0.0534 -1.0155  0.1583
 5006TIP3    H136433   2.542   5.187   0.528 -0.7030  1.5324  1.0338
 5006TIP3    H236434   2.417   5.157   0.448 -1.0220  1.0390  1.7120
 5007TIP3   OH236435   1.306   3.978   3.291  0.0507  0.3180 -0.6605
 5007TIP3    H136436   1.391   3.943   3.316  0.6199  1.8674 -0.4079
 5007TIP3    H236437   1.243   3.928   3.343  0.8833  0.0496  0.0974
 5008TIP3   OH236438   2.835   1.470  11.426  0.0545  0.3231 -0.2513
 5008TIP3    H136439   2.851   1.556  11.389  2.7328  0.4696  1.1633
 5008TIP3    H236440   2.900   1.460  11.496 -1.5757 -1.9769  1.0395
 5009TIP3   OH236441   5.208   2.289  11.635 -0.5157  0.1359  0.0129
 5009TIP3    H136442   5.136   2.250  11.685 -1.0876  0.9414 -0.1745
 5009TIP3    H236443   5.259   2.337  11.701 -0.9973  0.7973 -0.0885
 5010TIP3   OH236444   0.370   5.461   5.957 -0.3522  0.2940  0.3899
 5010TIP3    H136445   0.421   5.412   5.892 -2.5845  0.1571 -1.3341
 5010TIP3    H236446   0.422   5.539   5.974  0.6733 -0.0834 -0.9446
 5011TIP3   OH236447   3.858   5.349   4.650  0.0450  0.3814 -0.7406
 5011TIP3    H136448   3.841   5.431   4.696 -0.7398 -0.1463 -0.0776
 5011TIP3    H236449   3.872   5.375   4.559 -0.7497  1.1960 -0.6295
 5012TIP3   OH236450   1.729   4.299   3.395  0.2302 -0.0503 -0.3161
 5012TIP3    H136451   1.780   4.343   3.462  0.4206  0.9203 -1.0881
 5012TIP3    H236452   1.639   4.302   3.427  0.6178 -1.7831  1.0562
 5013TIP3   OH236453   4.203   1.411  16.662 -0.3062 -0.0779 -0.6383
 5013TIP3    H136454   4.248   1.496  16.656  1.3177 -0.9948 -1.8128
 5013TIP3    H236455   4.190   1.384  16.571  0.0100 -1.4976 -0.2824
 5014TIP3   OH236456   4.709   2.269  16.873  0.4249 -0.2635  0.0196
 5014TIP3    H136457   4.637   2.282  16.934  0.6138 -1.1681  0.4405
 5014TIP3    H236458   4.773   2.336  16.896 -0.1627  0.3688 -0.1812
 5015TIP3   OH236459   2.520   2.813   5.402 -0.2111 -0.0644 -0.1691
 5015TIP3    H136460   2.565   2.877   5.346 -1.0586  0.8299  0.1612
 5015TIP3    H236461   2.475   2.755   5.341  0.1698 -0.0538 -0.4616
 5016TIP3   OH236462   5.678   2.458   0.373 -0.1947 -0.1374 -0.5153
 5016TIP3    H136463   5.681   2.451   0.278  1.2410  1.8404 -0.6709
 5016TIP3    H236464   5.605   2.403   0.400 -0.1759 -1.2670 -2.7003
 5017TIP3   OH236465   0.894   6.467   2.923  0.4692  0.0612 -0.1325
 5017TIP3    H136466   0.813   6.509   2.894  0.7398 -0.0421 -1.0583
 5017TIP3    H236467   0.870   6.376   2.939  0.1376  0.2977  0.7821
 5018TIP3   OH236468   0.976   2.835   3.464 -0.3349 -0.5860 -0.1714
 5018TIP3    H136469   1.059   2.828   3.511  0.7323  0.6193 -1.8132
 5018TIP3    H236470   0.942   2.921   3.488  0.7709  0.5166 -2.4352
 5019TIP3   OH236471   5.125   3.323   3.007  0.2525  0.2267 -0.0402
 5019TIP3    H136472   5.114   3.275   3.090 -0.4616 -0.1220 -0.3332
 5019TIP3    H236473   5.069   3.399   3.016  1.3832  1.0248  0.4216
 5020TIP3   OH236474   1.306   5.270  13.838  0.3497 -0.4558  1.1582
 5020TIP3    H136475   1.303   5.291  13.932  0.2551 -1.6215  1.4265
 5020TIP3    H236476   1.399   5.279  13.815 -0.0408  2.7959  0.6367
 5021TIP3   OH236477   6.170   1.660   4.936 -0.2185  0.4050  0.1965
 5021TIP3    H136478   6.097   1.661   4.874 -0.6297 -0.8491  0.6539
 5021TIP3    H236479   6.195   1.568   4.943  0.6691  0.6973  0.8969
 5022TIP3   OH236480   4.347   4.405   4.111 -0.5859 -0.2413 -0.0275
 5022TIP3    H136481   4.276   4.466   4.093  0.1991 -0.0137 -2.7400
 5022TIP3    H236482   4.380   4.381   4.024  1.1033 -2.1741  1.0839
 5023TIP3   OH236483   5.471   0.065  12.664  0.5791 -0.7358 -0.2024
 5023TIP3    H136484   5.441   0.048  12.753 -1.8280 -0.9735 -0.9936
 5023TIP3    H236485   5.416   0.138  12.634  0.4600 -1.4904 -1.8983
 5024TIP3   OH236486   2.715   1.820  13.967 -0.1487 -0.0899  0.1580
 5024TIP3    H136487   2.706   1.729  13.939 -0.5595  0.6026 -2.0589
 5024TIP3    H236488   2.660   1.827  14.045 -0.2239 -1.7128  0.2548
 5025TIP3   OH236489   2.753   6.711  13.753 -0.6028  0.2101 -0.3108
 5025TIP3    H136490   2.751   6.779  13.820  0.3653  1.3765 -1.4386
 5025TIP3    H236491   2.846   6.687  13.746 -0.7065  0.0459 -1.1785
 5026TIP3   OH236492   0.608   3.668  15.236 -0.1070  0.1393  0.0315
 5026TIP3    H136493   0.574   3.744  15.282  1.4219  0.1335  1.2377
 5026TIP3    H236494   0.574   3.593  15.285  1.7439  0.1371  1.3761
 5027TIP3   OH236495   3.802   4.952   2.138 -0.8167 -0.2094 -0.6678
 5027TIP3    H136496   3.837   4.915   2.218 -0.8309  1.1494 -0.0155
 5027TIP3    H236497   3.872   4.941   2.073  0.5327  1.7379  0.4113
 5028TIP3   OH236498   5.727   4.772  16.555 -0.0481 -0.4232  0.2388
 5028TIP3    H136499   5.807   4.806  16.594  0.8038 -0.9411 -1.0302
 5028TIP3    H236500   5.757   4.715  16.485 -1.5349  0.0446 -0.8018
 5029TIP3   OH236501   1.657   0.575  14.655 -0.0690  1.2242  0.4015
 5029TIP3    H136502   1.642   0.509  14.587  3.1748  2.6875 -1.8490
 5029TIP3    H236503   1.723   0.535  14.713 -1.2152  0.8590  1.4845
 5030TIP3   OH236504   6.394   4.133   0.489  0.3853 -0.3188 -0.5571
 5030TIP3    H136505   6.312   4.092   0.462  0.0970  0.0158 -0.1922
 5030TIP3    H236506   6.457   4.060   0.494  0.0338 -0.6200 -0.5329
 5031TIP3   OH236507   5.884   5.861  15.369  0.3415  0.1242 -0.1261
 5031TIP3    H136508   5.814   5.918  15.336 -0.9266 -0.4891  1.4326
 5031TIP3    H236509   5.857   5.773  15.341  0.8884 -0.0237 -0.1802
 5032TIP3   OH236510   1.894   5.895  13.714 -0.0840 -0.3078 -0.0481
 5032TIP3    H136511   1.924   5.862  13.799 -1.5099 -1.5621 -0.0115
 5032TIP3    H236512   1.805   5.926  13.730  0.2142  0.9204 -0.7403
 5033TIP3   OH236513   2.343   1.000   7.124 -0.1795  0.1925 -0.0420
 5033TIP3    H136514   2.411   0.992   7.057  0.2219 -1.8181  0.5537
 5033TIP3    H236515   2.350   1.090   7.155  0.8916  0.5866 -1.3713
 5034TIP3   OH236516   1.613   3.793  11.330  0.0418 -0.0427  0.7178
 5034TIP3    H136517   1.702   3.760  11.334  0.0294 -0.0401  1.0246
 5034TIP3    H236518   1.622   3.886  11.311  0.1519  0.2340  2.0529
 5035TIP3   OH236519   2.669   2.454   4.198  0.9641 -0.4039 -0.0838
 5035TIP3    H136520   2.694   2.361   4.196  3.0438  0.1472 -1.4431
 5035TIP3    H236521   2.743   2.498   4.238  0.6245  0.8427 -0.8034
 5036TIP3   OH236522   3.072   5.441  17.040  0.6888 -0.2984  0.1211
 5036TIP3    H136523   3.012   5.483  17.102  0.2368  0.0118 -0.5179
 5036TIP3    H236524   3.048   5.348  17.044 -0.3564 -0.0736 -0.6905
 5037TIP3   OH236525   0.476   3.227   4.614  0.1110 -0.6849 -0.1526
 5037TIP3    H136526   0.560   3.271   4.598  0.1431  0.0994  1.9960
 5037TIP3    H236527   0.500   3.136   4.628  0.2777 -1.0209 -2.4263
 5038TIP3   OH236528   4.853   4.021   2.090 -0.0914 -0.0458  0.2858
 5038TIP3    H136529   4.782   4.082   2.111  0.0045  0.0890  0.2220
 5038TIP3    H236530   4.815   3.934   2.103 -0.5331  0.0118 -0.5933
 5039TIP3   OH236531   3.372   5.996   3.891  0.1600  0.4886 -0.1193
 5039TIP3    H136532   3.349   6.026   3.978  1.1258  0.0623  0.2956
 5039TIP3    H236533   3.454   5.948   3.903 -0.2660 -0.5172 -1.0801
 5040TIP3   OH236534   5.949   2.702  12.243 -0.6863  0.0444  0.1569
 5040TIP3    H136535   6.022   2.671  12.298 -0.7407  0.6703  0.5866
 5040TIP3    H236536   5.884   2.735  12.305 -0.3287  1.6720 -0.3067
 5041TIP3   OH236537   5.066   5.656  13.329  0.1783  0.7989  0.0952
 5041TIP3    H136538   5.095   5.736  13.285 -0.9889  0.4586 -1.3189
 5041TIP3    H236539   4.985   5.632  13.284  0.6194 -1.2894  0.3926
 5042TIP3   OH236540   5.412   3.199  11.312 -0.2019  0.1027  0.4573
 5042TIP3    H136541   5.471   3.143  11.261 -1.6892 -2.6919  1.7038
 5042TIP3    H236542   5.418   3.285  11.269  1.8289 -1.0758 -1.7741
 5043TIP3   OH236543   3.939   3.601  16.980 -0.6575  0.1769 -0.4513
 5043TIP3    H136544   3.972   3.610  17.070 -1.2321  2.4548 -0.4328
 5043TIP3    H236545   3.852   3.641  16.983 -0.4109  0.8620 -2.1807
 5044TIP3   OH236546   1.445   6.036  12.691  0.1225  0.6047 -0.1710
 5044TIP3    H136547   1.420   6.121  12.656 -2.3667 -0.1920 -0.4150
 5044TIP3    H236548   1.365   6.001  12.729  1.6099 -0.7350  1.8174
 5045TIP3   OH236549   5.820   4.960  12.111 -0.2658 -0.0611 -0.1612
 5045TIP3    H136550   5.780   4.971  12.024 -0.2862 -0.5313 -0.2115
 5045TIP3    H236551   5.914   4.969  12.095 -0.3077  0.4301 -0.1387
 5046TIP3   OH236552   6.178   2.058  14.137 -0.2539  0.2580  0.1391
 5046TIP3    H136553   6.186   2.093  14.049  0.5596 -0.9781 -0.2891
 5046TIP3    H236554   6.263   2.017  14.155 -0.4659  0.3515  1.4259
 5047TIP3   OH236555   5.023   6.668   5.934 -0.3302 -0.2485  0.1586
 5047TIP3    H136556   4.990   6.682   5.845 -0.0073  1.7323  0.3212
 5047TIP3    H236557   4.944   6.659   5.988 -0.5806  1.5075  0.1025
 5048TIP3   OH236558   1.444   1.296  11.344 -0.1261  0.1998 -0.6367
 5048TIP3    H136559   1.353   1.302  11.314 -0.0402  2.1736 -0.5187
 5048TIP3    H236560   1.491   1.360  11.291  0.8256  0.6535  0.7337
 5049TIP3   OH236561   3.128   2.784  16.329  0.1104  0.9057 -0.0626
 5049TIP3    H136562   3.202   2.724  16.336 -0.1930  0.3321 -1.4778
 5049TIP3    H236563   3.111   2.813  16.418  1.3435  0.1897  0.4113
 5050TIP3   OH236564   4.206   2.055   3.124  0.1139  0.1443  0.0728
 5050TIP3    H136565   4.246   2.028   3.041 -0.7342  0.8070 -0.5684
 5050TIP3    H236566   4.275   2.043   3.189  2.4309  4.0699 -1.4348
 5051TIP3   OH236567   2.226   0.836  14.618  0.2319  0.2287 -0.0218
 5051TIP3    H136568   2.149   0.824  14.562  0.8944  0.8171 -1.0677
 5051TIP3    H236569   2.283   0.895  14.569  0.2046  1.8913  1.8946
 5052TIP3   OH236570   5.876   5.564   5.682  0.0812 -0.0682  0.2550
 5052TIP3    H136571   5.942   5.585   5.749  0.4373  1.6033 -0.5885
 5052TIP3    H236572   5.891   5.629   5.613 -2.2930  0.1729 -0.0655
 5053TIP3   OH236573   1.424   5.578   1.042 -0.1257 -0.1056 -0.3156
 5053TIP3    H136574   1.519   5.587   1.036 -0.0731  2.1549  2.7681
 5053TIP3    H236575   1.412   5.500   1.097 -0.0667 -0.3797 -0.6883
 5054TIP3   OH236576   2.292   3.022   1.380 -0.4648  0.0336  0.5348
 5054TIP3    H136577   2.254   2.952   1.432 -1.8913  0.6473  0.3461
 5054TIP3    H236578   2.267   3.103   1.425  2.2051  0.3974  1.4302
 5055TIP3   OH236579   3.683   3.789  15.429  0.1879  0.1293  0.5563
 5055TIP3    H136580   3.744   3.789  15.502  1.1260  0.5691 -0.2216
 5055TIP3    H236581   3.732   3.827  15.356  0.0080 -2.3564 -0.9368
 5056TIP3   OH236582   0.150   3.135  15.556  0.0392 -0.8282  0.0891
 5056TIP3    H136583   0.097   3.078  15.611  1.8814 -1.6274  1.1061
 5056TIP3    H236584   0.116   3.223  15.571 -0.2480 -1.1941  1.5935
 5057TIP3   OH236585   2.489   1.587  15.234  0.2243  0.1815  0.5010
 5057TIP3    H136586   2.431   1.608  15.308 -0.6479 -0.5161  0.0269
 5057TIP3    H236587   2.462   1.647  15.165 -0.7403 -0.9196 -0.1054
 5058TIP3   OH236588   3.506   4.105  15.476 -0.3031 -0.6218 -0.2594
 5058TIP3    H136589   3.594   4.144  15.478 -0.4706 -0.0671 -2.7892
 5058TIP3    H236590   3.448   4.175  15.507 -0.0581 -0.4030 -0.2940
 5059TIP3   OH236591   5.280   2.081   1.508  0.2402  0.6545  0.6737
 5059TIP3    H136592   5.283   1.993   1.545  0.1631 -0.3890 -1.7171
 5059TIP3    H236593   5.204   2.122   1.550 -0.0328 -0.5863  1.4292
 5060TIP3   OH236594   4.797   1.262  16.298 -0.1133 -0.7732  0.1918
 5060TIP3    H136595   4.805   1.167  16.304  1.7591 -0.7255 -1.0459
 5060TIP3    H236596   4.770   1.290  16.386 -1.6697 -2.5276  0.2744
 5061TIP3   OH236597   0.081   2.327  16.134 -1.0290  0.0740  0.0513
 5061TIP3    H136598   0.007   2.370  16.176 -0.7059  0.7564 -0.0836
 5061TIP3    H236599   0.156   2.383  16.153 -0.5032 -0.7389  0.3914
 5062TIP3   OH236600   1.636   6.137   3.447 -0.0126  0.0345  0.9827
 5062TIP3    H136601   1.593   6.105   3.368  1.7491 -0.7912  0.3264
 5062TIP3    H236602   1.651   6.229   3.430 -2.3272  0.5728  1.6124
 5063TIP3   OH236603   0.913   5.029   4.154  0.4450  0.3572  0.0180
 5063TIP3    H136604   0.872   4.955   4.108  0.9955 -0.5744  0.9872
 5063TIP3    H236605   0.880   5.022   4.244 -0.3610  1.9589 -0.1471
 5064TIP3   OH236606   2.321   6.478   2.527  0.2271 -0.0759  0.0927
 5064TIP3    H136607   2.288   6.566   2.509 -0.1813 -0.2106  0.1646
 5064TIP3    H236608   2.362   6.451   2.446  3.1705  1.4033  1.0197
 5065TIP3   OH236609   2.944   0.399  15.864 -0.1128  0.0622 -0.2845
 5065TIP3    H136610   2.958   0.318  15.816 -0.6351 -0.0455 -0.2549
 5065TIP3    H236611   3.031   0.441  15.866  0.2007 -0.5978 -0.0973
 5066TIP3   OH236612   6.714   3.607  16.670  0.1413  0.0738  0.1444
 5066TIP3    H136613   6.647   3.631  16.735 -0.2762  2.6820 -1.2048
 5066TIP3    H236614   6.749   3.691  16.640  0.2575 -1.0919 -3.0938
 5067TIP3   OH236615   4.809   2.141   2.705  0.1031 -0.1047 -0.4806
 5067TIP3    H136616   4.745   2.111   2.770 -0.7552  0.3005 -1.1312
 5067TIP3    H236617   4.886   2.164   2.756 -1.1942  1.9781  0.6224
 5068TIP3   OH236618   1.424   2.028   4.360  0.5955 -0.1005  0.6458
 5068TIP3    H136619   1.393   2.115   4.385  1.3843  0.8001 -1.3985
 5068TIP3    H236620   1.499   2.012   4.418  0.1819  0.3809  1.3260
 5069TIP3   OH236621   3.914   2.200   3.424  0.1794 -0.2050  0.6033
 5069TIP3    H136622   3.963   2.216   3.343 -0.1031  0.5085  0.5675
 5069TIP3    H236623   3.842   2.264   3.421 -0.2841 -0.6991  1.0436
 5070TIP3   OH236624   0.330   0.222  12.855 -0.1079  0.2959  0.4572
 5070TIP3    H136625   0.326   0.314  12.832  1.2270  0.5898  1.3367
 5070TIP3    H236626   0.405   0.215  12.914 -0.7508 -1.1965  1.1295
 5071TIP3   OH236627   4.444   1.964  16.112 -0.6383  0.3773 -0.1534
 5071TIP3    H136628   4.481   1.945  16.198  0.2233  1.9598 -0.1583
 5071TIP3    H236629   4.496   2.037  16.079 -0.9484 -0.2258 -2.0385
 5072TIP3   OH236630   3.837   2.161  13.068  0.0616  0.2158 -0.8521
 5072TIP3    H136631   3.796   2.105  13.002 -1.1257  0.3471 -0.2432
 5072TIP3    H236632   3.781   2.151  13.145  0.4280  1.4436 -0.4250
 5073TIP3   OH236633   4.083   5.728  12.626  0.4090  0.5007  0.1464
 5073TIP3    H136634   4.149   5.796  12.615  0.7001  0.1437 -0.2906
 5073TIP3    H236635   4.096   5.668  12.552 -0.0584  0.1459  0.3461
 5074TIP3   OH236636   6.657   0.796  14.293 -0.0198 -0.0391 -0.4198
 5074TIP3    H136637   6.609   0.878  14.280 -0.6299 -0.2925  0.2450
 5074TIP3    H236638   6.597   0.740  14.341  0.0088 -1.2687 -1.8055
 5075TIP3   OH236639   0.828   0.431   4.693  0.5955 -0.6910 -0.6707
 5075TIP3    H136640   0.884   0.407   4.767 -1.4012 -0.1731  1.0565
 5075TIP3    H236641   0.820   0.350   4.641  0.8716 -1.4415  0.4487
 5076TIP3   OH236642   5.455   3.685  16.816 -0.3542 -0.3889  0.0223
 5076TIP3    H136643   5.548   3.664  16.827 -0.1754  1.1524  1.7460
 5076TIP3    H236644   5.418   3.608  16.773  1.5897 -1.3043 -0.0739
 5077TIP3   OH236645   2.039   4.662   5.010  0.7784 -0.1626 -0.3269
 5077TIP3    H136646   2.089   4.585   4.985 -0.0841 -1.0847  0.7732
 5077TIP3    H236647   1.954   4.650   4.969  0.6472  0.2238 -0.1739
 5078TIP3   OH236648   4.331   6.394  11.657 -0.4746 -0.3596  0.8992
 5078TIP3    H136649   4.341   6.458  11.587 -0.5704 -1.3714 -0.0548
 5078TIP3    H236650   4.255   6.423  11.707 -0.7253  0.0626  0.2690
 5079TIP3   OH236651   1.233   0.700   2.502  0.4449  0.0709  0.2005
 5079TIP3    H136652   1.164   0.762   2.480  0.9019  0.4874 -0.0762
 5079TIP3    H236653   1.279   0.684   2.420  0.0137 -1.0411  0.1568
 5080TIP3   OH236654   6.033   1.798  10.571 -0.5591  0.9902 -0.7654
 5080TIP3    H136655   6.027   1.891  10.594  0.3274  1.6035 -2.8351
 5080TIP3    H236656   6.113   1.768  10.613 -0.1110  1.5355 -1.2120
 5081TIP3   OH236657   2.245   2.268  15.588  0.5574  1.0233 -0.5348
 5081TIP3    H136658   2.176   2.334  15.585 -0.4106  0.1745  1.6032
 5081TIP3    H236659   2.199   2.185  15.576  1.5298  0.6224 -1.5058
 5082TIP3   OH236660   3.602   3.976  16.103 -0.1602 -0.4606 -0.2060
 5082TIP3    H136661   3.665   3.925  16.153 -1.9137 -1.4903  0.9936
 5082TIP3    H236662   3.574   4.045  16.163 -0.6723 -0.4090 -0.5033
 5083TIP3   OH236663   1.298   2.828   3.463  0.6798  0.0380  0.0277
 5083TIP3    H136664   1.321   2.735   3.473  1.8858  0.3044 -0.1234
 5083TIP3    H236665   1.253   2.851   3.544 -1.1163 -1.1084 -0.6310
 5084TIP3   OH236666   1.696   1.426   3.539 -0.5782 -0.8949 -0.4421
 5084TIP3    H136667   1.644   1.479   3.600  0.6451 -0.5189  0.2824
 5084TIP3    H236668   1.698   1.478   3.458  0.2305 -0.0301  0.1215
 5085TIP3   OH236669   4.046   0.123  16.887  0.3414  0.1211  0.1802
 5085TIP3    H136670   4.053   0.090  16.976 -2.2568  0.5772  0.5865
 5085TIP3    H236671   3.980   0.192  16.892  0.3313  0.3089 -2.0640
 5086TIP3   OH236672   5.694   0.579  14.871  0.4863  0.5937  0.1585
 5086TIP3    H136673   5.685   0.487  14.847  0.0044  0.3208  1.3520
 5086TIP3    H236674   5.788   0.591  14.883  0.6305  0.4688 -0.7986
 5087TIP3   OH236675   3.088   1.782  12.016 -0.1372 -0.5606  0.4544
 5087TIP3    H136676   3.067   1.689  12.015  1.7769 -1.0158 -1.0034
 5087TIP3    H236677   3.127   1.797  12.102 -2.8467 -0.5026  1.7108
 5088TIP3   OH236678   6.272   0.617   2.416 -0.1555 -0.3533  0.2591
 5088TIP3    H136679   6.339   0.559   2.452  1.7083  1.7138  0.2723
 5088TIP3    H236680   6.197   0.606   2.474  0.8291 -1.3058  1.3875
 5089TIP3   OH236681   4.104   0.984  16.676  1.0396  0.5279 -0.7773
 5089TIP3    H136682   4.120   1.044  16.749 -1.2933 -0.7080  0.8333
 5089TIP3    H236683   4.025   1.019  16.634  1.7156  0.5791 -2.0412
 5090TIP3   OH236684   6.774   0.228  16.325  0.4030  0.7534 -0.3788
 5090TIP3    H136685   6.703   0.164  16.327  0.1346  1.0770  0.7246
 5090TIP3    H236686   6.811   0.225  16.414  0.9913  1.4464 -0.5979
 5091TIP3   OH236687   6.522   4.565   5.741  0.3083  0.6065  0.7176
 5091TIP3    H136688   6.475   4.599   5.666  0.2100 -1.6287 -0.2828
 5091TIP3    H236689   6.615   4.572   5.718  0.2519 -1.4982 -0.3278
 5092TIP3   OH236690   2.635   3.243  12.600 -0.3014 -0.4080 -0.6724
 5092TIP3    H136691   2.715   3.243  12.652 -0.3115 -0.7785 -0.6525
 5092TIP3    H236692   2.575   3.185  12.648 -0.7915  0.3327 -0.3690
 5093TIP3   OH236693   0.383   3.629   4.077  0.0885  0.2866 -0.3607
 5093TIP3    H136694   0.449   3.613   4.010 -0.2708 -0.4398 -0.5457
 5093TIP3    H236695   0.432   3.633   4.159  0.4651  0.6298 -0.6034
 5094TIP3   OH236696   5.700   4.877   6.016 -0.6074  0.3062 -0.4308
 5094TIP3    H136697   5.745   4.961   6.004 -1.7634  1.0733  0.4555
 5094TIP3    H236698   5.656   4.861   5.932 -0.2257  0.4855 -0.6666
 5095TIP3   OH236699   4.409   3.139  11.820  0.7196  0.3128  0.4896
 5095TIP3    H136700   4.480   3.181  11.771  0.5529 -1.1176 -1.0168
 5095TIP3    H236701   4.337   3.202  11.816  1.4802  1.2152  0.9090
 5096TIP3   OH236702   1.754   6.575   1.650  0.1273 -0.6019  0.2615
 5096TIP3    H136703   1.678   6.529   1.616  0.0981 -0.7832  0.5633
 5096TIP3    H236704   1.728   6.602   1.738 -0.0060  0.3717 -0.0754
 5097TIP3   OH236705   3.273   2.161  15.125 -0.0226  0.2071  0.0376
 5097TIP3    H136706   3.228   2.224  15.182 -0.9215 -1.3946  1.1274
 5097TIP3    H236707   3.343   2.125  15.180 -1.2808 -1.8041  0.3373
 5098TIP3   OH236708   5.761   4.094  11.739 -0.3733 -0.1387  0.6453
 5098TIP3    H136709   5.805   4.177  11.756 -0.7341 -0.0113  0.9787
 5098TIP3    H236710   5.826   4.027  11.761  0.5787  0.0628 -1.4513
 5099TIP3   OH236711   6.033   1.103  11.743 -0.3443 -0.0942 -0.1633
 5099TIP3    H136712   6.011   1.059  11.661  0.0841 -0.0980 -0.2779
 5099TIP3    H236713   5.953   1.099  11.795  0.0677 -2.1386  0.3432
 5100TIP3   OH236714   3.535   3.811  12.010 -0.1298 -0.4013  0.4568
 5100TIP3    H136715   3.477   3.800  11.935 -0.5306 -0.8843  0.8314
 5100TIP3    H236716   3.585   3.891  11.991 -0.3223 -0.4552 -0.2555
 5101TIP3   OH236717   1.691   1.954  12.594 -0.1327 -0.8803 -0.0319
 5101TIP3    H136718   1.713   1.875  12.643  0.8243 -1.9801 -2.1599
 5101TIP3    H236719   1.755   2.019  12.623 -0.1056 -1.2497  0.7564
 5102TIP3   OH236720   0.399   6.098   4.588  0.2015  0.1853 -0.1401
 5102TIP3    H136721   0.394   6.006   4.561  1.8323 -0.2093  0.7892
 5102TIP3    H236722   0.384   6.147   4.508  0.6809 -0.9095 -0.9241
 5103TIP3   OH236723   6.654   6.376  12.947 -0.6382 -0.6223 -0.4126
 5103TIP3    H136724   6.698   6.355  12.865 -1.6892 -2.1094 -0.6120
 5103TIP3    H236725   6.577   6.319  12.949 -1.6823  0.7885  0.6943
 5104TIP3   OH236726   6.459   4.813   3.952 -0.0485  0.1231  0.3725
 5104TIP3    H136727   6.502   4.883   4.001  2.4425 -1.2054  0.1721
 5104TIP3    H236728   6.441   4.746   4.018  0.0808 -0.1920  0.0893
 5105TIP3   OH236729   1.731   1.822  15.055  0.0142 -0.0778 -0.0938
 5105TIP3    H136730   1.690   1.909  15.051  3.0185  1.3435 -1.9258
 5105TIP3    H236731   1.733   1.792  14.964 -2.2015 -2.7219  0.6702
 5106TIP3   OH236732   5.953   5.121   0.333  0.4166 -0.0333 -0.1481
 5106TIP3    H136733   5.874   5.074   0.305 -0.3066  0.0345  1.7214
 5106TIP3    H236734   6.013   5.052   0.360  0.8372 -0.0636 -1.1532
 5107TIP3   OH236735   1.736   0.607  12.827  0.2083  0.2855 -0.7934
 5107TIP3    H136736   1.684   0.610  12.747  1.9946 -0.7491 -2.0404
 5107TIP3    H236737   1.741   0.514  12.848  0.7283  0.4599 -0.1408
 5108TIP3   OH236738   2.195   4.085  16.079  0.6383 -0.2880 -0.3933
 5108TIP3    H136739   2.163   4.072  16.169  2.0100 -0.3463  0.0977
 5108TIP3    H236740   2.231   4.000  16.055  0.1013 -0.3209 -1.0731
 5109TIP3   OH236741   0.772   5.492   4.944  0.3350 -0.0069  0.2201
 5109TIP3    H136742   0.709   5.541   4.997 -2.0057 -0.5573 -1.9672
 5109TIP3    H236743   0.824   5.559   4.899  1.2991  0.4443  1.9310
 5110TIP3   OH236744   4.676   6.619   5.694  0.5902  0.3377 -0.0238
 5110TIP3    H136745   4.601   6.648   5.746  0.8060  0.5919  0.1478
 5110TIP3    H236746   4.686   6.526   5.716  2.0802  0.9701  2.1502
 5111TIP3   OH236747   2.562   0.796   1.749 -0.8976 -0.1274  0.1396
 5111TIP3    H136748   2.499   0.863   1.724 -1.1126 -0.7782 -1.1310
 5111TIP3    H236749   2.556   0.790   1.844 -0.9143  1.6071  0.2501
 5112TIP3   OH236750   4.865   3.886  12.193 -0.3306  0.1340  0.2410
 5112TIP3    H136751   4.802   3.910  12.260 -0.6604  0.5309 -0.2072
 5112TIP3    H236752   4.897   3.800  12.220  0.3445  0.7623  1.4792
 5113TIP3   OH236753   1.008   2.897   1.017 -0.2739  0.4982 -0.0030
 5113TIP3    H136754   1.038   2.834   0.952  0.2284  0.6043  0.1263
 5113TIP3    H236755   0.979   2.972   0.965 -0.8493  0.1709 -0.1554
 5114TIP3   OH236756   6.220   2.483   0.631  0.0817  0.1138  0.1304
 5114TIP3    H136757   6.244   2.492   0.539  3.7513  0.8914  1.0863
 5114TIP3    H236758   6.211   2.573   0.662 -0.1831 -0.1361  0.7826
 5115TIP3   OH236759   0.853   2.366   0.148  0.4457  0.1856 -0.4247
 5115TIP3    H136760   0.788   2.418   0.196  1.4619  0.1813  0.9781
 5115TIP3    H236761   0.847   2.279   0.187 -0.3814 -0.4676 -1.9360
 5116TIP3   OH236762   0.625   2.297  10.902  0.1803  0.1197  0.1786
 5116TIP3    H136763   0.558   2.274  10.837 -1.0888  0.8838  1.1941
 5116TIP3    H236764   0.652   2.385  10.877  0.6799 -0.1187 -0.1235
 5117TIP3   OH236765   3.284   0.985   1.639 -0.2423  0.1116  0.0694
 5117TIP3    H136766   3.265   1.030   1.721 -1.8328  0.7652 -0.6517
 5117TIP3    H236767   3.318   1.054   1.581 -0.9029  0.0285 -0.4230
 5118TIP3   OH236768   1.021   1.493  15.955  0.5170 -0.1307 -0.1545
 5118TIP3    H136769   1.115   1.500  15.974  0.6883 -0.0788 -0.9800
 5118TIP3    H236770   1.000   1.401  15.974  0.8090 -0.2267 -0.2923
 5119TIP3   OH236771   6.769   2.576   2.691  0.1892 -0.0161 -0.5455
 5119TIP3    H136772   6.846   2.633   2.699 -0.7090  1.1027  0.2130
 5119TIP3    H236773   6.748   2.578   2.598 -0.5914  1.9144 -0.3462
 5120TIP3   OH236774   4.329   6.286   3.912  0.0560 -0.3473  0.0063
 5120TIP3    H136775   4.397   6.327   3.966  1.2761 -3.1565  0.6654
 5120TIP3    H236776   4.298   6.357   3.855  2.0955  1.4811  1.0893
 5121TIP3   OH236777   0.526   4.751  12.508 -0.2049 -0.1803 -0.3561
 5121TIP3    H136778   0.482   4.833  12.530 -1.7825 -0.7977 -1.0907
 5121TIP3    H236779   0.504   4.691  12.580  1.3135  0.1543  0.4065
 5122TIP3   OH236780   5.605   5.085  16.466  0.2396  0.1713 -0.0572
 5122TIP3    H136781   5.682   5.044  16.427  0.5124  1.7508 -1.2096
 5122TIP3    H236782   5.594   5.039  16.550  1.5807 -1.0272 -0.5051
 5123TIP3   OH236783   1.830   4.400  10.530 -0.1439  0.0235  0.1958
 5123TIP3    H136784   1.861   4.310  10.534  1.2068  0.4595 -0.1951
 5123TIP3    H236785   1.736   4.394  10.545  0.1964 -1.2819  1.9497
 5124TIP3   OH236786   3.670   6.743  15.133 -0.0370  0.1013  0.5469
 5124TIP3    H136787   3.625   6.821  15.102 -0.2037 -0.7650 -1.5032
 5124TIP3    H236788   3.603   6.674  15.129  0.9099 -0.7795 -0.6488
 5125TIP3   OH236789   5.257   4.621   1.261 -0.3193  0.5633 -0.1696
 5125TIP3    H136790   5.351   4.605   1.276 -0.2224 -0.2794 -1.5443
 5125TIP3    H236791   5.213   4.563   1.322  0.0486  1.4007  0.9092
 5126TIP3   OH236792   0.336   5.353  10.821  0.1753  0.2141  0.1771
 5126TIP3    H136793   0.378   5.436  10.800  0.6757 -0.4399 -1.4679
 5126TIP3    H236794   0.381   5.288  10.767 -0.2339 -1.1316  1.4134
 5127TIP3   OH236795   2.039   6.771   0.405 -0.5558 -0.6574  0.1263
 5127TIP3    H136796   2.028   6.857   0.447 -2.2948 -0.1562 -1.2992
 5127TIP3    H236797   2.097   6.723   0.464 -0.2006  1.2142  1.3580
 5128TIP3   OH236798   2.324   0.637   0.897 -0.3914  0.5677  0.6714
 5128TIP3    H136799   2.237   0.660   0.866  0.1881  0.9536 -0.7365
 5128TIP3    H236800   2.383   0.690   0.843  0.8063 -1.5188 -0.1163
 5129TIP3   OH236801   0.986   0.508   6.757  0.1963  0.2404 -0.3302
 5129TIP3    H136802   1.043   0.584   6.754 -1.3277  1.3981 -0.5444
 5129TIP3    H236803   1.021   0.454   6.828  2.6591  0.0156 -1.6776
 5130TIP3   OH236804   4.319   0.973  12.866 -0.4550  0.5222 -0.2345
 5130TIP3    H136805   4.256   0.970  12.793 -0.5523 -1.8915 -0.1009
 5130TIP3    H236806   4.339   1.066  12.876 -0.4420  0.9285 -3.3417
 5131TIP3   OH236807   0.228   0.974   0.895 -0.2326 -0.0619 -0.5318
 5131TIP3    H136808   0.298   0.967   0.830  0.1813  1.4318 -0.2771
 5131TIP3    H236809   0.148   0.973   0.844  0.0259 -0.4853 -0.9331
 5132TIP3   OH236810   3.697   5.918  15.512  0.3114  0.6445 -0.3915
 5132TIP3    H136811   3.665   5.828  15.522 -2.5809  1.5636 -0.6581
 5132TIP3    H236812   3.703   5.952  15.602  1.2281  0.2552 -0.3016
 5133TIP3   OH236813   1.121   5.653   4.237  0.1301  0.1844  0.1081
 5133TIP3    H136814   1.161   5.566   4.241 -0.3051 -0.0340 -0.1962
 5133TIP3    H236815   1.161   5.694   4.160 -0.2879 -0.0658 -0.2459
 5134TIP3   OH236816   4.579   2.987   4.793  0.1185  0.0542 -0.1980
 5134TIP3    H136817   4.556   2.898   4.768 -0.3598 -0.1114  0.8002
 5134TIP3    H236818   4.631   2.977   4.873  0.2824  0.6552 -0.2262
 5135TIP3   OH236819   4.190   4.977  12.426  0.5515 -0.5373  0.3370
 5135TIP3    H136820   4.208   5.021  12.509  0.3550 -0.4675  0.3409
 5135TIP3    H236821   4.175   4.886  12.450 -0.6672 -0.2931  0.5051
 5136TIP3   OH236822   6.544   3.504  12.919  0.7589  0.5654  0.5611
 5136TIP3    H136823   6.546   3.449  12.841  0.2288  2.2140 -0.6404
 5136TIP3    H236824   6.570   3.446  12.990  1.1602 -0.9822 -0.8270
 5137TIP3   OH236825   3.527   6.149  11.961 -0.0677 -0.5749  0.3719
 5137TIP3    H136826   3.505   6.066  11.918 -0.8074  0.6739 -1.7450
 5137TIP3    H236827   3.465   6.212  11.925  0.9409  1.0660  1.4156
 5138TIP3   OH236828   4.676   4.309  12.683 -0.2443 -0.0721  0.5971
 5138TIP3    H136829   4.605   4.258  12.643 -0.9504  1.7469 -0.5420
 5138TIP3    H236830   4.638   4.341  12.765 -0.3064 -0.1416  0.5967
 5139TIP3   OH236831   0.420   3.431   5.984 -0.6558 -0.4218 -0.1601
 5139TIP3    H136832   0.401   3.428   6.078  0.1978  1.8210  0.1201
 5139TIP3    H236833   0.422   3.340   5.957 -0.1225 -1.1338  2.1800
 5140TIP3   OH236834   0.520   1.178  12.527 -0.0480 -0.2816  0.1808
 5140TIP3    H136835   0.453   1.213  12.469 -0.0725  0.6477  0.7721
 5140TIP3    H236836   0.566   1.255  12.561  0.5053 -0.8537  0.7460
 5141TIP3   OH236837   4.071   4.589   2.665 -0.1048  0.1326 -0.0904
 5141TIP3    H136838   4.164   4.571   2.673  0.0751  1.1034  0.1618
 5141TIP3    H236839   4.066   4.685   2.665 -1.0945  0.0819 -0.1267
 5142TIP3   OH236840   1.388   0.317   3.327 -0.7476 -0.0930  0.3333
 5142TIP3    H136841   1.295   0.295   3.327 -1.2756  2.0216  1.6092
 5142TIP3    H236842   1.422   0.276   3.247 -2.3353 -2.5781  0.8783
 5143TIP3   OH236843   0.052   3.528  11.186 -0.0810  0.4740  0.4900
 5143TIP3    H136844   0.062   3.612  11.142  0.9941  1.0771  1.8707
 5143TIP3    H236845   0.061   3.463  11.116 -1.6269  1.4994 -0.7113
 5144TIP3   OH236846   5.882   2.449  12.484 -0.2323 -0.4194  0.4337
 5144TIP3    H136847   5.934   2.405  12.417 -0.2889  0.6778 -0.3387
 5144TIP3    H236848   5.881   2.388  12.558  0.4527 -1.3115 -0.2916
 5145TIP3   OH236849   4.922   5.965   2.130  0.8372  0.5000  0.6285
 5145TIP3    H136850   4.837   5.945   2.090  0.7398  0.2071  0.9755
 5145TIP3    H236851   4.971   6.009   2.061  0.3041  0.9191  0.5099
 5146TIP3   OH236852   4.732   1.753  16.716  0.1656  0.0695  0.4907
 5146TIP3    H136853   4.681   1.834  16.713 -1.1801 -0.6773  1.9979
 5146TIP3    H236854   4.810   1.775  16.765  0.7151  0.9146 -0.7406
 5147TIP3   OH236855   3.631   0.523  16.716  0.2448  0.7030 -0.7439
 5147TIP3    H136856   3.704   0.551  16.662  1.8500 -2.1109 -0.1182
 5147TIP3    H236857   3.560   0.506  16.654  1.3898 -0.4266 -1.7412
 5148TIP3   OH236858   0.389   1.711   1.413  0.2699 -0.6300 -0.3090
 5148TIP3    H136859   0.419   1.637   1.359 -0.5277  0.3334 -2.1374
 5148TIP3    H236860   0.299   1.688   1.437  0.3837 -0.7408  0.0049
 5149TIP3   OH236861   1.928   4.335   2.425  0.2841 -0.7652  0.3776
 5149TIP3    H136862   1.929   4.245   2.455  1.6165 -0.8629  0.0803
 5149TIP3    H236863   1.988   4.381   2.485  1.3333 -0.5445 -0.8067
 5150TIP3   OH236864   3.594   4.046   0.559  1.1139 -0.4109 -0.8944
 5150TIP3    H136865   3.622   4.111   0.623  2.2740 -0.3764 -1.4302
 5150TIP3    H236866   3.570   3.970   0.611 -1.3235  0.8095 -0.1841
 5151TIP3   OH236867   5.964   1.162  16.734  0.2183  0.3271  0.5903
 5151TIP3    H136868   6.058   1.144  16.731  0.3686  0.7740  2.0939
 5151TIP3    H236869   5.957   1.244  16.783 -1.0139 -0.2712  1.4340
 5152TIP3   OH236870   5.608   0.189   3.973  0.1956  0.2056 -0.6459
 5152TIP3    H136871   5.534   0.138   3.940 -0.3374  0.7516 -0.3227
 5152TIP3    H236872   5.615   0.263   3.913 -0.0531  0.5945 -0.2009
 5153TIP3   OH236873   3.973   6.742   5.230  0.5362 -0.6304  0.1191
 5153TIP3    H136874   4.020   6.686   5.169  1.7349  0.8866 -0.3713
 5153TIP3    H236875   3.959   6.824   5.183  0.7165  0.2673  1.5715
 5154TIP3   OH236876   5.912   3.096  13.692  0.1036  0.6479 -0.2107
 5154TIP3    H136877   5.912   3.027  13.758 -0.4167 -0.7309 -1.6158
 5154TIP3    H236878   5.991   3.147  13.710 -0.3500  0.6573  1.8175
 5155TIP3   OH236879   0.819   0.158   4.573 -0.0133 -0.6348 -0.2020
 5155TIP3    H136880   0.797   0.073   4.609  1.1854  0.1808  2.5480
 5155TIP3    H236881   0.886   0.140   4.507 -2.5717 -2.1825 -2.4999
 5156TIP3   OH236882   1.990   0.588  11.328  0.6878  0.0171 -0.4400
 5156TIP3    H136883   1.999   0.522  11.260 -0.1208 -2.0231  1.3757
 5156TIP3    H236884   1.918   0.557  11.383  0.4120  2.3079  0.5751
 5157TIP3   OH236885   0.066   3.043   5.959 -0.2356 -0.2521  0.1977
 5157TIP3    H136886   0.035   3.009   6.043 -0.9634 -0.0289  0.0204
 5157TIP3    H236887   0.162   3.039   5.966 -0.2927 -2.0952  0.2701
 5158TIP3   OH236888   1.711   2.247   1.845  0.1264 -0.2187 -0.1571
 5158TIP3    H136889   1.779   2.276   1.784  1.9201  1.0791  2.3389
 5158TIP3    H236890   1.742   2.162   1.876 -0.3736 -0.4990 -0.4145
 5159TIP3   OH236891   5.334   4.330  13.080  0.4760 -0.0277 -0.5654
 5159TIP3    H136892   5.389   4.389  13.131  0.7473 -0.4217 -0.4012
 5159TIP3    H236893   5.339   4.246  13.127 -0.4521 -0.0032 -0.4087
 5160TIP3   OH236894   4.233   2.510   1.619  0.2828  0.0314 -0.5050
 5160TIP3    H136895   4.314   2.480   1.578  0.4145  0.1494 -0.3331
 5160TIP3    H236896   4.246   2.494   1.713 -1.2095 -3.0343 -0.7799
 5161TIP3   OH236897   1.766   1.211  12.920 -0.2024 -0.0159 -0.2405
 5161TIP3    H136898   1.732   1.200  12.831 -0.4006 -3.4852  0.1774
 5161TIP3    H236899   1.797   1.301  12.924  2.0163 -0.4860 -4.6083
 5162TIP3   OH236900   6.306   0.347  14.063 -0.7716 -0.4901  0.1040
 5162TIP3    H136901   6.401   0.356  14.064 -1.0239  2.9602 -0.4928
 5162TIP3    H236902   6.285   0.310  14.148  0.9918  0.2325  0.8859
 5163TIP3   OH236903   0.717   4.310   0.954 -0.2051 -0.3691 -0.0779
 5163TIP3    H136904   0.622   4.315   0.968 -0.2641  0.8371 -0.8452
 5163TIP3    H236905   0.732   4.221   0.923 -1.2661 -0.1805 -1.1977
 5164TIP3   OH236906   2.158   3.686   5.779  0.3295 -0.5061 -0.5866
 5164TIP3    H136907   2.142   3.610   5.723 -0.3100 -0.0457 -1.0404
 5164TIP3    H236908   2.112   3.758   5.735 -0.9187 -0.3153  0.9888
 5165TIP3   OH236909   5.254   5.737  12.752  0.0987  0.2426 -0.4090
 5165TIP3    H136910   5.335   5.727  12.703  0.5418  1.4652  0.0701
 5165TIP3    H236911   5.209   5.811  12.711 -0.0221  0.5974  0.3529
 5166TIP3   OH236912   2.328   4.863  16.922 -1.0643  0.3968 -0.1964
 5166TIP3    H136913   2.311   4.769  16.926  3.2234 -0.4570  0.5583
 5166TIP3    H236914   2.312   4.886  16.830 -0.7268 -1.3831 -0.7195
 5167TIP3   OH236915   0.542   4.897   5.742  0.2232 -0.1502 -0.0105
 5167TIP3    H136916   0.586   4.813   5.729  0.5738  0.0151  0.1174
 5167TIP3    H236917   0.581   4.933   5.822  1.0557  0.7674 -0.8056
 5168TIP3   OH236918   4.364   4.679   1.878 -0.0052 -0.8661 -0.6027
 5168TIP3    H136919   4.379   4.625   1.956 -1.2173 -0.4643 -0.0681
 5168TIP3    H236920   4.423   4.753   1.888 -2.9487  1.2593  2.0075
 5169TIP3   OH236921   3.857   0.031   4.091  0.0896 -0.3181 -0.1432
 5169TIP3    H136922   3.772   0.015   4.050  1.0952 -2.0299 -1.6590
 5169TIP3    H236923   3.861   0.126   4.102 -1.7975 -0.1760 -0.5139
 5170TIP3   OH236924   2.013   3.941  16.417  0.1319  0.3778  0.0904
 5170TIP3    H136925   1.953   4.010  16.392 -0.1340 -0.0019 -0.3291
 5170TIP3    H236926   2.031   3.957  16.510 -0.0484  0.9107  0.0345
 5171TIP3   OH236927   0.164   5.657  11.693 -0.4435 -0.4005 -0.0852
 5171TIP3    H136928   0.184   5.701  11.776  1.4677  0.1010 -0.7974
 5171TIP3    H236929   0.249   5.632  11.658 -1.4293 -4.3403  0.0959
 5172TIP3   OH236930   0.101   6.404   5.732 -0.1971  0.1308 -0.3548
 5172TIP3    H136931   0.031   6.449   5.780 -0.3441  0.1776 -0.6134
 5172TIP3    H236932   0.065   6.317   5.715  0.0237 -0.0318 -0.0007
 5173TIP3   OH236933   4.959   6.664   5.129  1.1942  0.3310 -0.1856
 5173TIP3    H136934   4.980   6.600   5.061  0.6843 -0.1504  0.1019
 5173TIP3    H236935   4.995   6.628   5.209  0.6284  0.2414  0.0343
 5174TIP3   OH236936   2.744   4.083  12.857 -0.6106  0.4136 -0.8841
 5174TIP3    H136937   2.648   4.083  12.851 -0.5540  0.3612 -1.9671
 5174TIP3    H236938   2.770   4.167  12.820 -0.3611  1.7020  2.0893
 5175TIP3   OH236939   2.705   2.761   1.482 -0.0646  0.8455  0.5304
 5175TIP3    H136940   2.777   2.726   1.427 -1.9422 -0.9168 -0.9105
 5175TIP3    H236941   2.631   2.704   1.461 -1.4428  1.6086  3.2499
 5176TIP3   OH236942   4.266   1.626   1.102 -0.3267  0.0859 -0.4156
 5176TIP3    H136943   4.334   1.585   1.155 -2.8455 -1.1729  1.9970
 5176TIP3    H236944   4.291   1.718   1.098  1.3625 -0.2977  0.6648
 5177TIP3   OH236945   4.685   0.751  11.841  0.0802 -0.9057 -0.1801
 5177TIP3    H136946   4.730   0.747  11.756  0.3251 -0.3906 -0.0776
 5177TIP3    H236947   4.667   0.844  11.854 -1.3560 -1.1346 -0.3888
 5178TIP3   OH236948   1.171   4.277  13.323  0.0805  0.6902  0.0204
 5178TIP3    H136949   1.140   4.204  13.269  1.5909 -1.0273  1.4181
 5178TIP3    H236950   1.263   4.256  13.342 -0.1775  1.6311  2.5741
 5179TIP3   OH236951   5.862   2.058   0.806 -0.1274 -0.3897 -0.1057
 5179TIP3    H136952   5.799   2.007   0.857 -0.2859 -0.2151 -0.1262
 5179TIP3    H236953   5.932   2.078   0.869  0.0435 -0.8203 -0.1566
 5180TIP3   OH236954   6.008   2.766  15.917 -0.4798  0.0358  0.3041
 5180TIP3    H136955   6.079   2.741  15.976 -1.4640  1.3271  2.0659
 5180TIP3    H236956   5.933   2.716  15.946 -0.7647  0.0724 -0.3643
 5181TIP3   OH236957   6.672   4.039  16.198 -0.2606 -0.7445  0.5460
 5181TIP3    H136958   6.594   3.986  16.183  0.2956 -1.3578 -0.2769
 5181TIP3    H236959   6.731   4.015  16.126 -0.0931  1.1771  0.0144
 5182TIP3   OH236960   6.383   4.595   2.313  0.0742  0.0349  0.4233
 5182TIP3    H136961   6.347   4.527   2.255 -0.9289 -0.7138  1.9025
 5182TIP3    H236962   6.374   4.559   2.401 -1.4437  2.4746  1.3307
 5183TIP3   OH236963   2.239   1.392  13.646 -0.4642 -0.1117  0.0363
 5183TIP3    H136964   2.315   1.445  13.669 -1.0231  0.2966  0.9485
 5183TIP3    H236965   2.228   1.406  13.551 -0.1901  0.8582  0.1409
 5184TIP3   OH236966   6.185   1.581   4.092 -0.0861  0.1321  0.2806
 5184TIP3    H136967   6.214   1.490   4.099  1.1831  0.4044 -1.1799
 5184TIP3    H236968   6.145   1.600   4.177  2.5967 -0.7587  1.7871
 5185TIP3   OH236969   2.830   4.165  16.017  0.1746 -0.2327 -0.0747
 5185TIP3    H136970   2.924   4.170  16.036 -0.6157  1.1174  4.0868
 5185TIP3    H236971   2.808   4.250  15.980  0.5153 -0.4418 -0.7651
 5186TIP3   OH236972   0.865   3.045  11.149 -0.2209 -0.5330  0.2415
 5186TIP3    H136973   0.795   3.061  11.086  0.1584  0.8776  0.1756
 5186TIP3    H236974   0.823   3.051  11.235 -0.2839 -0.2313  0.1882
 5187TIP3   OH236975   3.054   4.109  11.638 -0.2096  0.4393  0.1644
 5187TIP3    H136976   2.994   4.089  11.710 -0.9535  1.7181 -0.0679
 5187TIP3    H236977   3.046   4.035  11.578 -1.1811  0.3555  0.3880
 5188TIP3   OH236978   5.049   5.153  14.943  0.2125  0.5799 -0.3981
 5188TIP3    H136979   4.993   5.181  15.015 -1.2602 -1.2098 -0.8214
 5188TIP3    H236980   5.116   5.099  14.984 -1.2534 -1.3305 -0.4755
 5189TIP3   OH236981   2.829   6.095   2.230 -0.1464  0.4180 -0.3177
 5189TIP3    H136982   2.734   6.089   2.242 -0.0672  1.2118  0.6903
 5189TIP3    H236983   2.864   6.027   2.287 -0.0677  0.5615 -0.1969
 5190TIP3   OH236984   3.449   5.951   0.331  0.1917 -0.5447 -0.4586
 5190TIP3    H136985   3.434   6.042   0.307  0.2307 -0.2286  0.6998
 5190TIP3    H236986   3.523   5.953   0.392  1.2639 -1.5157 -1.6855
 5191TIP3   OH236987   3.596   5.876  16.563  0.2131 -0.8839  0.5123
 5191TIP3    H136988   3.565   5.862  16.473  0.7706  0.8630  0.0245
 5191TIP3    H236989   3.689   5.853  16.560  1.1744  2.8195 -0.3347
 5192TIP3   OH236990   1.186   2.379   1.607  0.0047  0.1046  0.0004
 5192TIP3    H136991   1.234   2.317   1.661  0.1948 -0.2075 -0.5249
 5192TIP3    H236992   1.095   2.351   1.613 -0.0228  0.2955  0.4597
 5193TIP3   OH236993   2.477   2.828  13.340  0.1530  0.4413 -0.3783
 5193TIP3    H136994   2.382   2.824  13.335  0.1650 -0.0959 -0.2493
 5193TIP3    H236995   2.496   2.828  13.434  0.3097 -0.3605 -0.4063
 5194TIP3   OH236996   2.577   0.519   5.518 -0.7203  0.0829  0.4036
 5194TIP3    H136997   2.517   0.465   5.571 -0.5663 -0.3965  0.0905
 5194TIP3    H236998   2.661   0.513   5.564 -0.5189 -0.5549 -0.0377
 5195TIP3   OH236999   3.738   4.777  13.898 -0.3091 -0.0922 -0.4709
 5195TIP3    H137000   3.829   4.804  13.911 -0.1140 -0.1546 -1.6319
 5195TIP3    H237001   3.741   4.681  13.903 -0.2653 -0.1073 -0.7779
 5196TIP3   OH237002   6.145   4.204   5.922  0.6265 -0.1118 -0.0849
 5196TIP3    H137003   6.152   4.146   5.997 -2.3762  1.3336  1.4138
 5196TIP3    H237004   6.173   4.290   5.954  0.4112  0.2781 -0.9112
 5197TIP3   OH237005   1.590   1.465  15.299 -0.5060 -0.3250  0.0092
 5197TIP3    H137006   1.592   1.555  15.331  0.5171  1.1807 -3.9899
 5197TIP3    H237007   1.518   1.463  15.236  0.0730 -2.0358 -0.6317
 5198TIP3   OH237008   1.619   0.583  15.026  0.4420  0.3158 -0.2347
 5198TIP3    H137009   1.668   0.584  15.108 -1.4269 -1.0816  0.9608
 5198TIP3    H237010   1.537   0.627  15.047 -0.4773 -0.9512 -1.0602
 5199TIP3   OH237011   1.281   5.449   5.282  0.0357 -0.1506 -0.2408
 5199TIP3    H137012   1.319   5.434   5.196 -0.7187 -2.5141 -0.1969
 5199TIP3    H237013   1.350   5.424   5.344  0.0915  0.2084 -0.1571
 5200TIP3   OH237014   1.530   1.143   1.701 -0.4466 -0.4954 -0.2374
 5200TIP3    H137015   1.554   1.216   1.644  3.5387  0.6328  2.7085
 5200TIP3    H237016   1.533   1.066   1.644  0.0490  1.0161 -2.3127
 5201TIP3   OH237017   1.221   5.691   4.729 -0.1521  0.3647 -0.7033
 5201TIP3    H137018   1.269   5.622   4.774 -1.3207 -0.3243 -0.4794
 5201TIP3    H237019   1.259   5.694   4.641 -0.4696 -0.9691 -0.9049
 5202TIP3   OH237020   4.841   2.519  16.064  0.3459 -0.0806  0.0125
 5202TIP3    H137021   4.801   2.568  15.992  1.4200 -0.5750 -0.9354
 5202TIP3    H237022   4.906   2.463  16.022 -0.0647 -1.4940  1.2179
 5203TIP3   OH237023   6.054   1.220   5.934 -0.3284  0.3874 -0.7234
 5203TIP3    H137024   5.976   1.274   5.939  0.5041  1.4739  1.1987
 5203TIP3    H237025   6.118   1.265   5.990  0.6866 -2.0711  0.1737
 5204TIP3   OH237026   5.559   2.864  14.740 -0.2957  0.1457 -0.2336
 5204TIP3    H137027   5.622   2.915  14.689 -0.6485  1.2011  0.3893
 5204TIP3    H237028   5.614   2.807  14.794  0.0963  0.0755 -0.6925
 5205TIP3   OH237029   1.119   3.158  15.680 -1.1296 -0.4294 -0.3817
 5205TIP3    H137030   1.056   3.146  15.609 -0.8113  0.6028 -0.8544
 5205TIP3    H237031   1.069   3.206  15.747 -1.4189 -1.3694  0.0721
 5206TIP3   OH237032   6.716   3.602   4.424  0.3569 -0.1370 -0.8830
 5206TIP3    H137033   6.763   3.604   4.507 -1.3924  0.2613  0.1298
 5206TIP3    H237034   6.740   3.518   4.384  2.5422  0.4149 -0.8034
 5207TIP3   OH237035   6.575   6.690  13.944  0.0097  0.5914 -0.5733
 5207TIP3    H137036   6.560   6.622  14.010  1.7440  0.0817 -0.6909
 5207TIP3    H237037   6.670   6.704  13.945 -0.0241  1.0686 -2.4860
 5208TIP3   OH237038   0.236   5.396  13.371  0.2277  0.3466  0.1703
 5208TIP3    H137039   0.249   5.473  13.427 -0.9960  0.2076  0.6495
 5208TIP3    H237040   0.213   5.432  13.286 -1.1273  0.5187  0.5941
 5209TIP3   OH237041   6.226   3.723  15.236 -0.1738  0.0584 -0.1028
 5209TIP3    H137042   6.310   3.748  15.274 -0.6209  0.8291  0.3920
 5209TIP3    H237043   6.161   3.770  15.287 -0.9272 -0.6485 -0.3832
 5210TIP3   OH237044   1.676   2.084  12.901 -0.4111  0.5242  0.0592
 5210TIP3    H137045   1.668   2.169  12.858  0.8682  1.6461  1.9465
 5210TIP3    H237046   1.769   2.076  12.922 -0.4995 -1.4028 -0.1912
 5211TIP3   OH237047   3.373   3.974   1.149 -0.4627  0.2240  0.0094
 5211TIP3    H137048   3.386   3.970   1.054 -0.2975 -0.0111  0.0407
 5211TIP3    H237049   3.411   4.057   1.176  2.8092 -1.3370  0.3959
 5212TIP3   OH237050   0.740   0.755   3.091 -0.1738 -0.0535  0.4699
 5212TIP3    H137051   0.826   0.715   3.099  0.1710  0.6340  0.2142
 5212TIP3    H237052   0.719   0.750   2.998  0.5793  1.7916  0.1692
 5213TIP3   OH237053   5.477   2.540  11.395 -0.1536  0.1002  0.5079
 5213TIP3    H137054   5.386   2.541  11.425  0.0307  0.8719  1.0424
 5213TIP3    H237055   5.480   2.608  11.328 -0.0911 -0.2765  0.1264
 5214TIP3   OH237056   6.695   3.541   2.989  0.6419  0.0315 -0.0538
 5214TIP3    H137057   6.628   3.488   2.947 -0.5073  0.0171  1.7809
 5214TIP3    H237058   6.650   3.621   3.015  1.3769  0.0993  1.0341
 5215TIP3   OH237059   6.248   0.716  11.705  0.2639  0.3767  0.7479
 5215TIP3    H137060   6.204   0.744  11.785  1.5202 -0.3653  1.7186
 5215TIP3    H237061   6.265   0.797  11.657 -0.5578  0.8154  1.1894
 5216TIP3   OH237062   6.366   6.613  12.695 -0.5643 -0.4465 -0.6956
 5216TIP3    H137063   6.432   6.547  12.673  1.5560  0.9509  1.2000
 5216TIP3    H237064   6.338   6.590  12.784 -1.6642 -0.2430 -0.9804
 5217TIP3   OH237065   6.227   5.760   5.305  0.1342 -0.5345  0.3006
 5217TIP3    H137066   6.201   5.812   5.229 -0.2466 -1.7259 -0.3981
 5217TIP3    H237067   6.269   5.823   5.364 -1.3699  0.7803 -0.0065
 5218TIP3   OH237068   2.381   4.904  16.022  0.7876 -0.0136  0.2393
 5218TIP3    H137069   2.364   4.835  15.958 -0.5155  0.1930  0.3478
 5218TIP3    H237070   2.414   4.857  16.099 -0.3700 -0.5498  0.4167
 5219TIP3   OH237071   4.124   6.606  15.674  0.1608  0.0236 -0.3371
 5219TIP3    H137072   4.159   6.533  15.623 -0.8068  0.5333 -1.7702
 5219TIP3    H237073   4.125   6.680  15.613 -0.6952  0.7307  0.4975
 5220TIP3   OH237074   5.605   5.783   4.169 -0.3185  0.3467 -0.2280
 5220TIP3    H137075   5.585   5.709   4.226  0.3813 -0.1513 -0.6354
 5220TIP3    H237076   5.519   5.813   4.138 -0.5032 -1.2498 -1.2863
 5221TIP3   OH237077   2.351   2.446  12.360 -0.4971  0.4239  0.0110
 5221TIP3    H137078   2.326   2.381  12.294 -0.0835 -0.2156  0.4760
 5221TIP3    H237079   2.398   2.395  12.427  1.0915  1.4294 -0.3198
 5222TIP3   OH237080   4.224   1.473  15.922  0.4417  0.2439 -0.3530
 5222TIP3    H137081   4.147   1.524  15.897  1.7883  1.6648 -1.7690
 5222TIP3    H237082   4.271   1.459  15.839  2.0033 -0.0684  0.5697
 5223TIP3   OH237083   3.735   6.746   5.823  0.0401  0.1605  0.0112
 5223TIP3    H137084   3.692   6.806   5.762  0.8957 -0.0483 -0.8049
 5223TIP3    H237085   3.750   6.798   5.902 -0.3931  0.6439 -0.2241
 5224TIP3   OH237086   1.324   0.202  14.957  0.0326 -0.2471 -0.0578
 5224TIP3    H137087   1.333   0.156  14.874  0.5901 -0.5226  0.1502
 5224TIP3    H237088   1.408   0.248  14.969  0.0761 -0.4594  0.4933
 5225TIP3   OH237089   6.053   0.954  15.306  0.0862 -0.1675 -0.2775
 5225TIP3    H137090   6.078   0.888  15.242  0.3655 -2.4014  2.0497
 5225TIP3    H237091   5.966   0.926  15.337 -0.7736  1.7812 -0.8272
 5226TIP3   OH237092   0.579   4.384  12.338 -0.2558 -0.1138 -0.7715
 5226TIP3    H137093   0.656   4.355  12.387  0.6052  0.5576 -1.7074
 5226TIP3    H237094   0.607   4.463  12.293 -1.5983  0.3240 -0.8683
 5227TIP3   OH237095   2.130   5.653   4.665 -0.6094 -0.3782 -0.0278
 5227TIP3    H137096   2.062   5.611   4.612 -2.6548  1.4321  1.0858
 5227TIP3    H237097   2.131   5.603   4.747  1.0770 -1.8453 -0.8891
 5228TIP3   OH237098   0.169   5.712   1.283 -0.0383 -0.8349  0.2817
 5228TIP3    H137099   0.144   5.802   1.304  0.6299 -0.1930 -1.5982
 5228TIP3    H237100   0.251   5.698   1.329 -0.0071 -0.3912  0.3591
 5229TIP3   OH237101   0.466   4.614   5.546 -0.9875  0.1981 -0.4289
 5229TIP3    H137102   0.497   4.558   5.475  0.7635 -1.2450  1.4100
 5229TIP3    H237103   0.545   4.640   5.592 -1.9906  2.2187  0.2318
 5230TIP3   OH237104   4.640   3.622  12.252 -0.4240  0.1571  0.3803
 5230TIP3    H137105   4.679   3.666  12.328  0.6488 -0.8475  0.4336
 5230TIP3    H237106   4.580   3.558  12.290  0.7029 -0.8928  0.4224
 5231TIP3   OH237107   2.111   4.098  14.350  0.2481 -0.1077 -0.5206
 5231TIP3    H137108   2.049   4.030  14.378  1.4043 -0.3704  1.4626
 5231TIP3    H237109   2.095   4.171  14.410  0.3873  0.6462 -1.3849
 5232TIP3   OH237110   1.094   6.735   0.502  0.0242  0.1781  0.5004
 5232TIP3    H137111   1.066   6.791   0.429 -0.2556  0.4880  0.8463
 5232TIP3    H237112   1.039   6.656   0.494 -0.1022  0.2698  0.4564
 5233TIP3   OH237113   3.542   6.058   2.449  0.2691 -0.3015 -0.5934
 5233TIP3    H137114   3.558   6.008   2.368 -0.0742  0.5003 -1.1537
 5233TIP3    H237115   3.622   6.109   2.461 -0.5017  1.1729 -1.5798
 5234TIP3   OH237116   4.509   1.992  10.798 -0.3345 -0.1169 -0.0607
 5234TIP3    H137117   4.569   2.064  10.777  0.3997 -1.0378 -1.1850
 5234TIP3    H237118   4.541   1.918  10.747 -0.0601 -1.7462  2.3776
 5235TIP3   OH237119   6.344   1.988   1.487  0.4582  0.1222  0.0845
 5235TIP3    H137120   6.380   1.903   1.513  1.2424  0.0776 -1.1286
 5235TIP3    H237121   6.299   2.020   1.565 -0.4465 -1.7352  0.3390
 5236TIP3   OH237122   6.215   1.919   4.940  0.4500  0.0052 -0.0145
 5236TIP3    H137123   6.201   1.825   4.928 -0.0507 -0.1303  1.6071
 5236TIP3    H237124   6.192   1.957   4.855 -1.5560 -1.0875  0.0107
 5237TIP3   OH237125   4.901   4.426   3.827 -0.6075 -0.3578 -0.6435
 5237TIP3    H137126   4.959   4.462   3.760  0.3813  1.6645  1.2093
 5237TIP3    H237127   4.814   4.427   3.787 -0.1972  1.7811 -1.5607
 5238TIP3   OH237128   3.059   3.261  11.755  0.0120 -0.5182  0.0074
 5238TIP3    H137129   3.117   3.323  11.799  0.5669 -0.4098 -0.8668
 5238TIP3    H237130   3.093   3.255  11.666 -0.5911 -1.3828 -0.1725
 5239TIP3   OH237131   1.651   5.853   2.514 -0.0069  0.0457 -0.3095
 5239TIP3    H137132   1.664   5.784   2.449 -0.0235  0.6621 -0.9647
 5239TIP3    H237133   1.679   5.813   2.597  0.8456 -0.4412 -0.8320
 5240TIP3   OH237134   6.622   0.678   1.470 -0.1864  0.2530  0.6868
 5240TIP3    H137135   6.676   0.652   1.395 -0.5268  0.4279  0.3791
 5240TIP3    H237136   6.659   0.761   1.499 -1.1234  1.0688 -0.3774
 5241TIP3   OH237137   5.134   0.432  10.349 -0.3136  0.1302 -0.0610
 5241TIP3    H137138   5.039   0.418  10.350 -0.6007  1.9139 -1.2961
 5241TIP3    H237139   5.144   0.527  10.343  1.5684  0.0104  0.8540
 5242TIP3   OH237140   3.416   4.063   3.013  0.5716  0.2662 -0.2338
 5242TIP3    H137141   3.394   3.982   2.966  1.6268  0.5959 -1.2936
 5242TIP3    H237142   3.346   4.071   3.078 -0.3868 -0.6971 -1.1073
 5243TIP3   OH237143   2.826   3.056   4.420  0.3305 -0.1700 -0.0272
 5243TIP3    H137144   2.744   3.101   4.400  0.7454 -0.0098 -1.3901
 5243TIP3    H237145   2.891   3.096   4.363  1.2253 -0.7667  0.5502
 5244TIP3   OH237146   2.459   4.645   4.651  0.6449  0.1867  0.1318
 5244TIP3    H137147   2.403   4.569   4.669 -0.4644  0.9103 -0.2042
 5244TIP3    H237148   2.446   4.663   4.558  0.8417  0.8381  0.2278
 5245TIP3   OH237149   1.484   6.312  15.930 -0.1114 -0.1489  0.5341
 5245TIP3    H137150   1.538   6.282  15.857  0.3272  1.3937  0.2280
 5245TIP3    H237151   1.426   6.378  15.892  0.9516  1.5639  1.8051
 5246TIP3   OH237152   0.420   6.393  16.422 -0.1442  0.5488 -0.4847
 5246TIP3    H137153   0.412   6.366  16.513 -0.6479 -3.2279 -1.5495
 5246TIP3    H237154   0.511   6.375  16.398 -0.0656  1.3273 -0.8087
 5247TIP3   OH237155   3.848   4.569   2.027 -0.5352 -0.0348 -0.3816
 5247TIP3    H137156   3.934   4.552   1.989 -0.2587 -1.0112  0.6582
 5247TIP3    H237157   3.841   4.507   2.100 -1.8697  0.4475 -0.0829
 5248TIP3   OH237158   2.707   3.035   4.857 -0.8270  0.3063 -0.4613
 5248TIP3    H137159   2.711   3.099   4.786 -0.6036  1.8797  0.9427
 5248TIP3    H237160   2.795   3.036   4.896 -1.7077  1.5183  1.5817
 5249TIP3   OH237161   2.219   2.980   0.080  0.1128  0.0782  0.1459
 5249TIP3    H137162   2.238   3.047   0.146  1.3982  0.5894 -0.7413
 5249TIP3    H237163   2.160   3.023   0.018  0.5478  0.2345 -0.1586
 5250TIP3   OH237164   4.617   2.724   2.412 -0.4654 -0.0180 -0.2202
 5250TIP3    H137165   4.678   2.718   2.486  0.1159  1.1385 -0.5907
 5250TIP3    H237166   4.626   2.813   2.380 -0.0868 -0.7348 -2.2288
 5251TIP3   OH237167   4.575   1.913  16.387  0.4158  0.1536  0.5424
 5251TIP3    H137168   4.572   1.937  16.480 -0.6549 -0.5430  0.7060
 5251TIP3    H237169   4.662   1.939  16.358  0.0301  2.2923  1.2134
 5252TIP3   OH237170   1.485   4.067  14.180 -0.1412  0.5835  0.1058
 5252TIP3    H137171   1.419   3.999  14.166  0.3774  0.0819  0.0799
 5252TIP3    H237172   1.513   4.092  14.093  1.4590 -0.9416  0.1484
 5253TIP3   OH237173   2.806   4.827  14.699  0.6642  0.1770  0.2460
 5253TIP3    H137174   2.778   4.890  14.765 -1.3849  0.0210 -0.4151
 5253TIP3    H237175   2.765   4.744  14.727  0.5839 -0.0992 -0.6725
 5254TIP3   OH237176   5.599   2.274   2.993  0.0576  0.0579  0.4518
 5254TIP3    H137177   5.570   2.355   2.951  1.1459 -0.4185 -1.2421
 5254TIP3    H237178   5.517   2.231   3.020 -0.6314  0.5916 -0.7565
 5255TIP3   OH237179   0.715   3.141  13.290 -0.3095 -0.4057 -0.0931
 5255TIP3    H137180   0.622   3.132  13.311 -0.2117  2.0147  1.5877
 5255TIP3    H237181   0.716   3.174  13.200 -1.0846  0.3656  0.1782
 5256TIP3   OH237182   0.211   6.495   3.672 -0.1097 -0.5923 -0.3130
 5256TIP3    H137183   0.234   6.586   3.688 -1.3004 -0.5643  1.4513
 5256TIP3    H237184   0.158   6.496   3.592  0.4463  0.1589 -0.6713
 5257TIP3   OH237185   6.271   5.685  12.691  0.3990  0.3587 -0.2113
 5257TIP3    H137186   6.257   5.591  12.681  0.9865  0.2238  0.2095
 5257TIP3    H237187   6.242   5.722  12.608  1.4188 -0.3412 -0.9019
 5258TIP3   OH237188   0.178   2.520   1.229 -0.7044  0.2299  0.7323
 5258TIP3    H137189   0.116   2.539   1.299  1.3231  0.6689  2.4514
 5258TIP3    H237190   0.201   2.607   1.195  1.1924  0.2851  2.0938
 5259TIP3   OH237191   2.132   1.662   2.843  0.0801  0.2873  0.0344
 5259TIP3    H137192   2.040   1.639   2.840 -0.3064  1.3105  2.9451
 5259TIP3    H237193   2.132   1.758   2.849  1.3132  0.2703  0.4393
 5260TIP3   OH237194   3.030   2.004  16.325  0.3283  0.3103 -0.4632
 5260TIP3    H137195   3.002   1.949  16.252  0.8018  1.6628 -1.6852
 5260TIP3    H237196   2.962   1.991  16.391  0.7596 -2.2195 -0.4631
 5261TIP3   OH237197   1.056   0.129   1.208  0.4673 -0.3429 -0.1757
 5261TIP3    H137198   1.141   0.128   1.252 -0.1868 -0.0699  1.1354
 5261TIP3    H237199   1.001   0.071   1.261 -0.3005 -0.1003 -0.7014
 5262TIP3   OH237200   4.782   3.790   6.499 -0.9672 -0.2997 -0.6384
 5262TIP3    H137201   4.812   3.862   6.443 -0.9977 -1.5960 -2.3470
 5262TIP3    H237202   4.817   3.812   6.585  0.6648  0.7927 -1.5344
 5263TIP3   OH237203   3.176   1.619  12.894  0.5832  0.2529  0.4522
 5263TIP3    H137204   3.249   1.651  12.840 -1.1679 -0.5458 -2.5204
 5263TIP3    H237205   3.123   1.697  12.912 -0.4366  0.0771 -1.6223
 5264TIP3   OH237206   0.827   5.641   2.182  0.0862 -0.6103  0.1595
 5264TIP3    H137207   0.768   5.652   2.257  0.8726 -0.7302  0.8003
 5264TIP3    H237208   0.843   5.547   2.177 -0.9897 -0.7603 -0.9725
 5265TIP3   OH237209   3.900   3.560   4.672 -0.2668 -0.2998 -0.0053
 5265TIP3    H137210   3.862   3.643   4.644 -1.1352 -0.4421  0.7173
 5265TIP3    H237211   3.870   3.550   4.763 -0.7082 -1.7172 -0.2958
 5266TIP3   OH237212   1.984   1.500  16.917 -0.4457  0.8466  0.2204
 5266TIP3    H137213   2.029   1.417  16.904 -2.7945 -0.4184  0.0533
 5266TIP3    H237214   1.955   1.526  16.830 -0.6717  1.3023  0.4327
 5267TIP3   OH237215   0.981   1.786   6.225  0.1755 -0.4541  0.3469
 5267TIP3    H137216   0.940   1.829   6.150  0.3374 -0.4891  0.2397
 5267TIP3    H237217   1.013   1.858   6.279  0.1128 -0.4305  0.3520
 5268TIP3   OH237218   0.762   1.905   4.196 -0.6243  0.2500 -0.1014
 5268TIP3    H137219   0.767   1.905   4.291 -0.5005  2.5669 -0.0710
 5268TIP3    H237220   0.842   1.861   4.168  1.3198  2.9805  0.8799
 5269TIP3   OH237221   1.147   5.471   3.533  0.2403  0.7072 -0.0601
 5269TIP3    H137222   1.060   5.510   3.535 -0.0002  0.2085 -0.5596
 5269TIP3    H237223   1.174   5.477   3.441 -0.2798 -1.2948 -0.3872
 5270TIP3   OH237224   2.236   5.058   1.051 -0.0569  0.6682  0.3208
 5270TIP3    H137225   2.169   5.015   1.105  0.3958  0.4343  0.6989
 5270TIP3    H237226   2.276   4.986   1.002  0.2031  0.7523  0.4086
 5271TIP3   OH237227   3.368   5.934  14.389  0.0208  0.2930  0.0165
 5271TIP3    H137228   3.315   6.004  14.351 -0.1704  0.2626  0.2233
 5271TIP3    H237229   3.379   5.871  14.318 -3.1775 -1.3993  0.9295
 5272TIP3   OH237230   0.942   4.547   1.998  0.3396  0.3303 -0.7480
 5272TIP3    H137231   0.866   4.531   1.942 -0.1820 -1.2171  0.3726
 5272TIP3    H237232   1.003   4.596   1.942 -1.1905  1.0034 -1.8658
 5273TIP3   OH237233   2.040   2.197   1.213 -0.0143  0.5093 -0.2023
 5273TIP3    H137234   2.031   2.156   1.127  0.0814 -0.4292  0.2298
 5273TIP3    H237235   1.960   2.248   1.224 -0.4195 -0.0584 -0.4811
 5274TIP3   OH237236   0.052   6.673  16.809  0.4244  0.2463 -0.3487
 5274TIP3    H137237   0.028   6.726  16.885  0.8370  1.6790 -1.2002
 5274TIP3    H237238   0.140   6.642  16.828  0.1324 -0.2589  0.2068
 5275TIP3   OH237239   1.487   2.776   4.429 -0.3063 -0.0273 -0.1407
 5275TIP3    H137240   1.450   2.864   4.439  1.2093  0.4122  1.7126
 5275TIP3    H237241   1.431   2.721   4.484 -0.8368 -0.1021 -0.7560
 5276TIP3   OH237242   4.957   3.410  13.715  0.5277 -0.2501  0.2317
 5276TIP3    H137243   4.979   3.317  13.712  0.5655 -0.2520  0.5316
 5276TIP3    H237244   4.861   3.411  13.722  0.7478 -0.4181  5.4581
 5277TIP3   OH237245   2.558   5.355   0.004 -0.0795  0.4110  0.4244
 5277TIP3    H137246   2.652   5.375   0.011  0.6904 -3.3779  2.5614
 5277TIP3    H237247   2.541   5.352  -0.090  2.3193 -0.1811 -0.0285
 5278TIP3   OH237248   2.580   0.493  13.095 -0.1003  0.7498 -0.2506
 5278TIP3    H137249   2.555   0.407  13.127 -1.5188  1.4002  0.4683
 5278TIP3    H237250   2.572   0.487  13.000 -1.8343  0.5717 -0.1058
 5279TIP3   OH237251   6.173   3.540   4.965 -0.0787 -0.0588  0.2594
 5279TIP3    H137252   6.267   3.524   4.968  0.3139  2.2992  2.8289
 5279TIP3    H237253   6.164   3.624   4.920 -0.7093  1.0367  2.3731
 5280TIP3   OH237254   4.294   1.153  10.999  0.5712 -0.3291  0.1890
 5280TIP3    H137255   4.254   1.081  11.046  0.3453 -0.6347 -0.4638
 5280TIP3    H237256   4.337   1.112  10.924  0.1588  0.2459 -0.3676
 5281TIP3   OH237257   5.515   4.157   2.192  0.7591 -0.2039  0.0470
 5281TIP3    H137258   5.464   4.082   2.163  2.3660 -1.4189  0.2530
 5281TIP3    H237259   5.587   4.164   2.129  1.1284  0.5985  0.5363
 5282TIP3   OH237260   6.633   5.851   6.051  0.6283 -0.1149  0.4936
 5282TIP3    H137261   6.556   5.821   6.099 -0.0672  0.9038  0.0273
 5282TIP3    H237262   6.664   5.928   6.099 -0.0999  0.9382 -0.6866
 5283TIP3   OH237263   4.258   5.081  16.602  0.3757  0.3407 -0.6370
 5283TIP3    H137264   4.237   5.018  16.533  0.4414 -0.2510 -0.1199
 5283TIP3    H237265   4.339   5.122  16.573  0.1537  0.4278 -1.1429
 5284TIP3   OH237266   6.026   6.539  14.502  0.0545  0.1832  0.1795
 5284TIP3    H137267   6.059   6.518  14.415 -1.1460 -0.2346 -0.1888
 5284TIP3    H237268   6.022   6.454  14.547 -1.1193  0.1320 -0.0041
 5285TIP3   OH237269   6.753   0.575  16.363 -0.0090 -0.2282  0.4854
 5285TIP3    H137270   6.696   0.651  16.361  1.7659  1.2368  2.8764
 5285TIP3    H237271   6.701   0.507  16.406 -0.8190  0.3076  0.3588
 5286TIP3   OH237272   2.295   4.157  14.683 -0.8193 -0.1633 -0.4467
 5286TIP3    H137273   2.389   4.173  14.681 -1.0201  1.0614 -0.2610
 5286TIP3    H237274   2.280   4.093  14.614  0.1315 -0.2579 -0.5644
 5287TIP3   OH237275   3.996   2.171   0.849  0.7574  0.6410 -0.2416
 5287TIP3    H137276   4.027   2.081   0.853  0.4231  0.4207 -2.2058
 5287TIP3    H237277   4.075   2.223   0.831  1.0472  0.8204  1.4865
 5288TIP3   OH237278   1.215   6.319  10.606 -0.4630  0.0843 -0.1577
 5288TIP3    H137279   1.219   6.410  10.580  1.0535  0.1648  0.2941
 5288TIP3    H237280   1.290   6.307  10.665  0.7585 -1.9907 -1.9998
 5289TIP3   OH237281   5.192   6.373  14.055  0.2701  0.3788  0.2721
 5289TIP3    H137282   5.230   6.454  14.022  0.2105  0.4371  0.3475
 5289TIP3    H237283   5.236   6.357  14.138 -0.1809  0.6716  0.5625
 5290TIP3   OH237284   2.837   6.762   2.926 -0.1372 -0.2902 -0.5270
 5290TIP3    H137285   2.922   6.729   2.956  0.9644  0.9156 -2.2650
 5290TIP3    H237286   2.791   6.785   3.007  1.4542 -0.3089  0.4153
 5291TIP3   OH237287   3.893   5.609   0.107 -0.1028 -0.0966 -0.0552
 5291TIP3    H137288   3.985   5.632   0.096 -0.4316  1.4475  0.2074
 5291TIP3    H237289   3.845   5.680   0.064 -1.1822 -0.2142  0.9246
 5292TIP3   OH237290   0.378   0.759  15.667  0.1427 -0.3274 -0.0010
 5292TIP3    H137291   0.468   0.732  15.684 -0.1568 -0.2946  1.7070
 5292TIP3    H237292   0.325   0.688  15.703 -0.5192 -0.1874 -0.6942
 5293TIP3   OH237293   6.466   2.114  13.015  0.4017 -0.0549 -0.6802
 5293TIP3    H137294   6.373   2.110  13.036  0.3069 -2.0164 -1.3045
 5293TIP3    H237295   6.497   2.024  13.026  1.8003  0.1859 -2.3363
 5294TIP3   OH237296   5.528   6.046  14.130 -0.0821  0.1765  0.2858
 5294TIP3    H137297   5.560   6.108  14.197 -1.0498 -0.2567  1.1537
 5294TIP3    H237298   5.539   5.960  14.170  2.0667 -0.3091 -1.2521
 5295TIP3   OH237299   4.772   6.676   3.428 -0.0345  0.2062 -0.2020
 5295TIP3    H137300   4.781   6.602   3.368  0.8931  1.4978 -1.6859
 5295TIP3    H237301   4.707   6.647   3.492  1.1450 -2.3228 -0.0842
 5296TIP3   OH237302   2.003   5.904  12.702 -0.1424 -0.2613 -0.0223
 5296TIP3    H137303   2.089   5.929  12.735 -0.5662  1.5314 -0.2185
 5296TIP3    H237304   1.955   5.876  12.780 -0.1780  1.1516  0.4871
 5297TIP3   OH237305   4.892   3.091  13.847 -0.0769 -0.5604 -0.3863
 5297TIP3    H137306   4.872   3.085  13.940  0.8791 -2.2625 -0.2514
 5297TIP3    H237307   4.818   3.137  13.809 -0.7085 -0.2729  1.1517
 5298TIP3   OH237308   5.723   4.389  10.828 -0.3018  1.0256  0.2888
 5298TIP3    H137309   5.701   4.296  10.831  0.6342  0.8239  1.1891
 5298TIP3    H237310   5.819   4.391  10.831 -0.3048  1.9996 -0.1971
 5299TIP3   OH237311   2.045   5.110  10.911 -0.3429 -0.1795  0.6665
 5299TIP3    H137312   2.021   5.151  10.828 -1.3852 -0.4423  0.8328
 5299TIP3    H237313   2.136   5.136  10.925 -0.7241  1.3486  0.3523
 5300TIP3   OH237314   4.738   1.615  14.607  0.4689 -0.0462 -0.1202
 5300TIP3    H137315   4.722   1.533  14.654  0.7105  0.5121  0.9546
 5300TIP3    H237316   4.757   1.679  14.676 -1.6990  1.3879 -0.7863
 5301TIP3   OH237317   3.458   4.477  12.949  0.6526  0.0525  0.2352
 5301TIP3    H137318   3.406   4.479  12.869 -0.7191  0.0257  1.1173
 5301TIP3    H237319   3.487   4.567  12.962 -0.1019  0.2861  0.3305
 5302TIP3   OH237320   4.566   6.248  13.721 -0.0303 -0.4424  0.0098
 5302TIP3    H137321   4.486   6.250  13.668  0.7705  0.4915 -1.1913
 5302TIP3    H237322   4.637   6.251  13.657  0.9613  0.2803  1.1212
 5303TIP3   OH237323   5.350   1.869   4.125 -0.6488  0.0881 -0.1369
 5303TIP3    H137324   5.351   1.960   4.095 -3.1944  0.5697  1.1468
 5303TIP3    H237325   5.351   1.874   4.220 -2.0498 -1.1834 -0.0289
 5304TIP3   OH237326   2.398   4.213   5.326  0.1321 -0.2096 -0.1325
 5304TIP3    H137327   2.441   4.270   5.390 -0.9019  0.2997  0.1111
 5304TIP3    H237328   2.454   4.136   5.321  1.0937  0.4540  0.1680
 5305TIP3   OH237329   1.162   2.388   5.245  0.3274 -0.1024  0.1682
 5305TIP3    H137330   1.183   2.433   5.327 -0.5296  0.2894  0.1789
 5305TIP3    H237331   1.114   2.453   5.193  0.0203 -0.6517 -0.2491
 5306TIP3   OH237332   5.201   3.647  15.417  0.4037 -0.2078 -0.0504
 5306TIP3    H137333   5.258   3.589  15.368  1.0225 -0.6032  1.1181
 5306TIP3    H237334   5.260   3.700  15.472 -0.3396 -0.8433  1.3967
 5307TIP3   OH237335   2.402   6.673   6.355  0.1854  0.7246 -0.7160
 5307TIP3    H137336   2.384   6.688   6.448  2.7029  2.8159 -0.5043
 5307TIP3    H237337   2.471   6.607   6.354 -0.3576  0.1635 -1.1168
 5308TIP3   OH237338   3.630   3.743   3.052 -0.5323 -0.1596  0.4142
 5308TIP3    H137339   3.564   3.809   3.030  0.6946  1.0810  0.3794
 5308TIP3    H237340   3.614   3.671   2.991 -0.0633  1.3346 -1.5103
 5309TIP3   OH237341   1.053   4.405  15.322  0.3435  0.0111 -0.5625
 5309TIP3    H137342   1.034   4.486  15.275 -1.8518  0.8836  1.7321
 5309TIP3    H237343   0.968   4.374  15.353  1.3778 -2.2114  0.1537
 5310TIP3   OH237344   4.700   6.105  17.188 -0.1975  0.2873 -0.4407
 5310TIP3    H137345   4.645   6.134  17.115  1.5704  2.7533 -0.8725
 5310TIP3    H237346   4.673   6.160  17.261  0.0752 -0.1296 -0.0231
 5311TIP3   OH237347   0.688   5.658  14.527  0.0329  0.0156  0.5849
 5311TIP3    H137348   0.630   5.597  14.482 -1.8338  1.2248  1.3127
 5311TIP3    H237349   0.688   5.628  14.618 -0.4026  0.7308  0.8216
 5312TIP3   OH237350   2.321   3.780  14.848  0.3803 -0.2288  0.1029
 5312TIP3    H137351   2.261   3.817  14.783  1.5337  0.0535 -0.8272
 5312TIP3    H237352   2.327   3.687  14.826  0.3183 -0.2467  0.1628
 5313TIP3   OH237353   2.315   3.161   1.136  0.0239  0.4403 -0.9284
 5313TIP3    H137354   2.270   3.096   1.082 -0.8323  1.1567 -1.0910
 5313TIP3    H237355   2.329   3.117   1.219  1.4103 -0.6968 -1.7455
 5314TIP3   OH237356   2.918   1.878  15.681  0.5229 -0.0305  0.1399
 5314TIP3    H137357   2.852   1.936  15.717  1.7191  0.9659  0.7567
 5314TIP3    H237358   3.002   1.913  15.712  1.2068 -3.0938  2.0490
 5315TIP3   OH237359   4.367   0.711  12.845  0.5183  0.2606  0.0304
 5315TIP3    H137360   4.373   0.803  12.871 -1.4535  0.9372 -1.7836
 5315TIP3    H237361   4.302   0.710  12.774  1.4025 -2.3546 -0.7995
 5316TIP3   OH237362   5.036   1.286  11.146  0.5935 -0.1917  0.6984
 5316TIP3    H137363   4.976   1.317  11.078  2.0631  1.9202  0.2935
 5316TIP3    H237364   5.006   1.197  11.167 -0.4789 -0.5002 -1.9950
 5317TIP3   OH237365   1.596   5.604  12.012  0.7642 -0.5019  0.1214
 5317TIP3    H137366   1.560   5.676  12.063 -1.2295 -1.2348 -0.2327
 5317TIP3    H237367   1.645   5.647  11.942  0.5178  0.5090  0.5609
 5318TIP3   OH237368   0.901   5.132  13.213 -0.0617 -0.4229  0.1906
 5318TIP3    H137369   0.893   5.143  13.118 -1.1085 -4.2884 -0.2505
 5318TIP3    H237370   0.818   5.163  13.248  0.9273  2.5129  0.0512
 5319TIP3   OH237371   0.319   0.642  16.294 -0.7365  0.3970  0.0802
 5319TIP3    H137372   0.275   0.567  16.254  0.4366  0.0206 -0.5343
 5319TIP3    H237373   0.384   0.669  16.229 -0.1327  1.0034  0.9265
 5320TIP3   OH237374   1.192   5.803  11.772  0.8342  0.4432 -1.0028
 5320TIP3    H137375   1.121   5.821  11.710  0.1648 -0.1549 -0.4172
 5320TIP3    H237376   1.255   5.751  11.722 -0.1173 -0.8001 -0.9335
 5321TIP3   OH237377   4.955   2.141   3.576  0.0659 -0.0312  0.4575
 5321TIP3    H137378   4.946   2.197   3.499  0.4947  0.6519  0.9024
 5321TIP3    H237379   4.886   2.172   3.636  1.3316  1.1271  1.3674
 5322TIP3   OH237380   0.690   2.509   1.248  0.1964  0.1621 -0.6690
 5322TIP3    H137381   0.721   2.422   1.273  2.6419  1.6533  1.6015
 5322TIP3    H237382   0.595   2.497   1.238  0.0369 -2.0965  2.6045
 5323TIP3   OH237383   3.330   4.615  12.587 -0.2416  0.3857 -0.1483
 5323TIP3    H137384   3.261   4.551  12.606 -0.9003  1.6799  1.9296
 5323TIP3    H237385   3.285   4.685  12.540  0.0071  0.4708 -0.2603
 5324TIP3   OH237386   3.816   0.677  13.719  0.0454  0.2896 -0.1570
 5324TIP3    H137387   3.883   0.663  13.653  0.1665 -0.6801  0.1642
 5324TIP3    H237388   3.764   0.750  13.686  0.8104  0.5633 -0.7578
 5325TIP3   OH237389   5.839   1.551   0.512 -0.6250 -0.1600 -0.6984
 5325TIP3    H137390   5.836   1.596   0.427 -1.3206 -1.2215 -1.2448
 5325TIP3    H237391   5.886   1.470   0.495 -0.1858 -0.0647  0.0787
 5326TIP3   OH237392   1.186   2.000  16.225  0.1013 -0.2645  0.6424
 5326TIP3    H137393   1.215   1.954  16.304 -0.9603  0.5118  1.4995
 5326TIP3    H237394   1.167   2.089  16.254 -3.2856 -0.7477  0.1995
 5327TIP3   OH237395   2.064   5.209  14.598  0.1764 -0.7259 -0.3708
 5327TIP3    H137396   2.101   5.289  14.560  2.7313 -0.7425  1.9684
 5327TIP3    H237397   2.140   5.157  14.623 -1.4580 -2.5823  0.8515
 5328TIP3   OH237398   2.250   2.414  16.675  0.0767  0.0326  0.1410
 5328TIP3    H137399   2.242   2.318  16.669  0.0591  0.0807 -0.6921
 5328TIP3    H237400   2.277   2.430  16.765 -0.3639 -0.7301  0.4155
 5329TIP3   OH237401   1.913   3.485  11.566  0.2053 -0.1413 -0.2632
 5329TIP3    H137402   1.900   3.541  11.490 -0.3647  0.1710  0.0531
 5329TIP3    H237403   1.835   3.500  11.620  1.6148  1.3308  1.4362
 5330TIP3   OH237404   2.283   0.555   0.424  0.4769 -0.1599  0.0720
 5330TIP3    H137405   2.361   0.585   0.471  0.8754  1.2007 -1.4100
 5330TIP3    H237406   2.210   0.583   0.479  0.9504  1.2553  0.0005
 5331TIP3   OH237407   1.996   3.108   2.732 -0.3315  0.6102  0.2208
 5331TIP3    H137408   1.933   3.157   2.784 -0.7517 -0.6541  0.9191
 5331TIP3    H237409   1.974   3.016   2.747  0.5584  0.1935 -0.9241
 5332TIP3   OH237410   6.330   1.694  13.152 -0.4018  0.1388  0.4381
 5332TIP3    H137411   6.417   1.666  13.181 -0.7282  0.3983  1.6991
 5332TIP3    H237412   6.347   1.741  13.070  0.2783 -2.6089 -1.0464
 5333TIP3   OH237413   1.060   3.947  16.704  0.0197 -0.5982  0.3605
 5333TIP3    H137414   1.144   3.922  16.665 -0.5217 -0.9622 -0.6010
 5333TIP3    H237415   1.084   3.998  16.782  1.1336 -2.6264  1.3886
 5334TIP3   OH237416   4.721   3.745   3.732  0.1055  0.2197 -0.0064
 5334TIP3    H137417   4.807   3.744   3.773 -0.1455  0.0710  0.5239
 5334TIP3    H237418   4.703   3.653   3.712  0.5300  0.3737 -1.0897
 5335TIP3   OH237419   0.764   2.007  14.012  0.1471 -0.3145 -0.2583
 5335TIP3    H137420   0.751   1.913  14.027  2.7822 -0.8082 -0.7469
 5335TIP3    H237421   0.731   2.022  13.924  0.1104 -0.8719 -0.3427
 5336TIP3   OH237422   6.406   2.988   1.130  0.1970  0.0132  0.5917
 5336TIP3    H137423   6.392   2.977   1.224  2.8658  0.3413  1.0816
 5336TIP3    H237424   6.408   2.899   1.095  0.2687 -0.1538  1.0220
 5337TIP3   OH237425   3.110   3.899   0.841  0.0910  0.0627  0.2293
 5337TIP3    H137426   3.202   3.890   0.863 -0.1794  0.4791  1.5462
 5337TIP3    H237427   3.085   3.985   0.875 -0.0238  1.3062 -2.8063
 5338TIP3   OH237428   5.340   0.657   5.860  0.1879 -0.1040  0.4191
 5338TIP3    H137429   5.276   0.727   5.850  1.8241  1.3508 -0.0642
 5338TIP3    H237430   5.370   0.665   5.951 -0.0599 -0.5528  0.5400
 5339TIP3   OH237431   2.718   6.677   0.601  0.3352  0.3200 -0.4564
 5339TIP3    H137432   2.692   6.594   0.562 -1.1962  0.8500 -0.5915
 5339TIP3    H237433   2.683   6.674   0.690 -0.7534  1.3111 -0.8461
 5340TIP3   OH237434   4.611   3.197   5.601  0.1802  0.5153  0.6187
 5340TIP3    H137435   4.659   3.253   5.662  1.8861 -0.9292  0.6323
 5340TIP3    H237436   4.620   3.240   5.516  2.1072 -0.0819  0.4966
 5341TIP3   OH237437   1.789   2.781   6.049  0.0533  0.1610  0.5420
 5341TIP3    H137438   1.699   2.757   6.073 -0.3898  2.1642  0.9871
 5341TIP3    H237439   1.815   2.844   6.116  1.1589  0.9181 -0.5919
 5342TIP3   OH237440   6.575   0.535   4.953  0.4893  0.2008  0.0689
 5342TIP3    H137441   6.526   0.511   4.875 -0.5038 -0.0907  0.7739
 5342TIP3    H237442   6.570   0.458   5.010  0.0311  0.9013  0.9909
 5343TIP3   OH237443   1.784   0.498   5.502  0.3956 -0.1712  0.0015
 5343TIP3    H137444   1.814   0.441   5.573 -0.2298  0.7497  1.0319
 5343TIP3    H237445   1.710   0.545   5.540 -0.5673 -0.3630 -1.5789
 5344TIP3   OH237446   6.355   4.680  16.431 -0.4342  0.1711  0.1984
 5344TIP3    H137447   6.384   4.633  16.353 -0.4967  0.2919  0.1012
 5344TIP3    H237448   6.394   4.767  16.422 -0.2893  0.1265  0.3956
 5345TIP3   OH237449   1.825   0.845   4.913 -0.0852 -0.3067  0.5124
 5345TIP3    H137450   1.875   0.875   4.837  2.3182  1.5399  2.7416
 5345TIP3    H237451   1.876   0.874   4.989 -1.8614 -3.0295  2.8616
 5346TIP3   OH237452   1.044   3.817   4.103 -0.4095  0.1934  0.2471
 5346TIP3    H137453   1.042   3.795   4.196  1.9255  0.2965  0.3615
 5346TIP3    H237454   1.042   3.913   4.101  1.8503  0.2789  0.3394
 5347TIP3   OH237455   4.875   0.735   2.723  0.3454 -0.2000  0.5239
 5347TIP3    H137456   4.848   0.654   2.681 -1.1937  0.1055  0.8788
 5347TIP3    H237457   4.795   0.769   2.763  1.2118  0.9036  1.3580
 5348TIP3   OH237458   2.935   0.281   6.859 -0.3166 -0.4190 -0.1027
 5348TIP3    H137459   3.008   0.344   6.861 -1.7325  1.3255 -1.1443
 5348TIP3    H237460   2.958   0.221   6.788  0.6704 -0.5930  0.3577
 5349TIP3   OH237461   1.547   6.138   6.073  0.0097 -0.0871 -0.0395
 5349TIP3    H137462   1.619   6.116   6.014  0.6213 -0.0049  0.6673
 5349TIP3    H237463   1.507   6.216   6.034 -1.0891 -1.4095 -1.6251
 5350TIP3   OH237464   6.408   6.754  13.294  0.7286 -0.5770 -0.1325
 5350TIP3    H137465   6.466   6.802  13.353 -0.3812  2.4115 -1.3843
 5350TIP3    H237466   6.465   6.694  13.247  1.7967 -2.2292  3.1301
 5351TIP3   OH237467   6.173   4.949   2.714 -0.0921  0.3505 -0.0016
 5351TIP3    H137468   6.098   5.008   2.712 -1.0080 -0.8035 -1.9714
 5351TIP3    H237469   6.245   5.001   2.751 -1.6737  1.6824  1.2543
 5352TIP3   OH237470   4.940   5.366  15.237  0.2746  0.1043  0.0127
 5352TIP3    H137471   4.989   5.376  15.318 -0.5415  1.3925  0.3595
 5352TIP3    H237472   4.912   5.274  15.237  3.5578 -0.9334 -0.7184
 5353TIP3   OH237473   3.534   4.848   6.134 -0.4688 -0.2481  0.3407
 5353TIP3    H137474   3.474   4.918   6.162 -2.5073 -1.1095 -1.7061
 5353TIP3    H237475   3.491   4.767   6.162  2.1800 -0.7814  3.2731
 5354TIP3   OH237476   6.654   2.502   3.181  0.1304 -0.6175 -0.0641
 5354TIP3    H137477   6.616   2.424   3.142 -0.1617 -0.2929 -0.4295
 5354TIP3    H237478   6.722   2.469   3.240 -2.5386 -1.3479  2.7073
 5355TIP3   OH237479   4.432   0.886   5.210 -0.1655 -0.0082  0.0802
 5355TIP3    H137480   4.387   0.940   5.275 -1.0912 -0.4028 -0.2264
 5355TIP3    H237481   4.512   0.934   5.190  1.1720 -0.8758  3.0642
 5356TIP3   OH237482   4.618   2.493  12.598  0.3136 -0.0388  0.1755
 5356TIP3    H137483   4.547   2.430  12.594 -0.6913  1.0284  0.7308
 5356TIP3    H237484   4.586   2.570  12.550  1.5919 -0.0062 -0.6755
 5357TIP3   OH237485   5.542   2.534   2.881  0.5048  0.1229 -0.4141
 5357TIP3    H137486   5.594   2.610   2.856 -0.0856  1.2121  1.5858
 5357TIP3    H237487   5.472   2.569   2.936  0.0662 -1.8188  0.3307
 5358TIP3   OH237488   2.835   6.101  15.150 -0.2407 -0.4772 -0.3103
 5358TIP3    H137489   2.762   6.040  15.142 -0.8024  0.3251 -1.2696
 5358TIP3    H237490   2.801   6.185  15.122  0.5759  0.2733  0.8961
 5359TIP3   OH237491   1.602   0.343  14.506 -0.0877 -0.0719  0.1992
 5359TIP3    H137492   1.605   0.260  14.555 -0.4710 -0.6681 -0.7659
 5359TIP3    H237493   1.677   0.338  14.447 -0.4081  0.0452 -0.2162
 5360TIP3   OH237494   4.536   0.584  12.626 -0.2575  0.4863  0.0737
 5360TIP3    H137495   4.464   0.637  12.659 -1.0306 -0.9575  0.7201
 5360TIP3    H237496   4.583   0.555  12.704 -0.0678 -0.1042 -0.2581
 5361TIP3   OH237497   1.887   5.894  16.013  0.3604 -0.0757  0.1908
 5361TIP3    H137498   1.964   5.895  15.956  0.9155 -2.5959  0.8383
 5361TIP3    H237499   1.899   5.968  16.072  2.0659 -0.2123  0.0190
 5362TIP3   OH237500   0.343   6.319  10.573 -0.0699 -0.5320  0.1987
 5362TIP3    H137501   0.285   6.389  10.603  0.6385 -0.4171  1.3318
 5362TIP3    H237502   0.430   6.359  10.572 -0.1868 -0.2832 -2.8807
 5363TIP3   OH237503   1.928   3.275   4.946  0.0415  0.0334 -0.2161
 5363TIP3    H137504   2.018   3.251   4.969 -1.1577 -1.5987  3.0999
 5363TIP3    H237505   1.914   3.360   4.987 -0.2662 -0.2625  0.3118
 5364TIP3   OH237506   4.254   4.764   4.571  0.0312  0.1043 -0.0366
 5364TIP3    H137507   4.195   4.730   4.639  0.0071 -1.6452 -0.9125
 5364TIP3    H237508   4.314   4.692   4.554  1.6039  1.4052 -0.1206
 5365TIP3   OH237509   0.626   3.141  11.289  0.5372  0.1997  0.5730
 5365TIP3    H137510   0.622   3.237  11.296  0.5007  0.2933 -0.6055
 5365TIP3    H237511   0.552   3.119  11.232  1.4170 -0.4002 -0.3412
 5366TIP3   OH237512   0.368   3.435   2.190  0.8183 -0.1222 -0.0358
 5366TIP3    H137513   0.359   3.528   2.207  0.3713 -0.5248  2.0847
 5366TIP3    H237514   0.294   3.413   2.133 -0.5165  0.3402  1.4949
 5367TIP3   OH237515   4.118   0.483  13.147 -0.1475  0.5344  0.3113
 5367TIP3    H137516   4.114   0.530  13.064 -1.6407  1.5626  0.9404
 5367TIP3    H237517   4.033   0.500  13.188 -0.8447 -2.9574  0.4380
 5368TIP3   OH237518   2.248   6.234   5.317 -0.0215 -0.1291 -0.4852
 5368TIP3    H137519   2.160   6.204   5.299 -0.2232  0.5585 -0.6464
 5368TIP3    H237520   2.245   6.329   5.305  0.1296  0.2215  1.8610
 5369TIP3   OH237521   5.860   4.989   6.670  0.5439  0.3491 -0.3324
 5369TIP3    H137522   5.771   4.958   6.656  1.0444 -0.9538 -0.6400
 5369TIP3    H237523   5.883   4.959   6.758  0.9215  0.0853 -0.5184
 5370TIP3   OH237524   3.663   2.033   3.988  0.1927  0.4845 -0.2742
 5370TIP3    H137525   3.677   2.117   4.031  2.1746  0.7425 -1.3526
 5370TIP3    H237526   3.609   1.983   4.049 -1.1264  2.5817  0.3097
 5371TIP3   OH237527   1.810   1.144   6.642  0.9144 -0.0529  0.2443
 5371TIP3    H137528   1.822   1.222   6.696  0.5665 -0.5147  0.9906
 5371TIP3    H237529   1.809   1.071   6.704 -5.3423 -0.1404  0.3868
 5372TIP3   OH237530   0.804   2.788  11.418 -0.5785  0.0684 -0.6243
 5372TIP3    H137531   0.766   2.743  11.342  0.4632  0.2423 -1.2638
 5372TIP3    H237532   0.747   2.764  11.491  0.1016 -2.5257 -0.8837
 5373TIP3   OH237533   0.305   1.843   0.531 -0.0667  0.2053  0.2596
 5373TIP3    H137534   0.249   1.788   0.475 -0.5480  1.4131 -0.4621
 5373TIP3    H237535   0.321   1.921   0.478 -0.9103  1.5818  1.9973
 5374TIP3   OH237536   2.895   3.622   0.656  0.1338 -0.0987  0.5523
 5374TIP3    H137537   2.882   3.683   0.729 -0.6455 -3.1054  3.0550
 5374TIP3    H237538   2.985   3.591   0.668 -0.3265 -1.3344  0.8442
 5375TIP3   OH237539   3.676   2.743   5.193 -0.2054  0.0973  0.0376
 5375TIP3    H137540   3.597   2.796   5.207  0.5921  1.4249 -0.3922
 5375TIP3    H237541   3.741   2.805   5.163  0.8957 -1.0724 -0.0311
 5376TIP3   OH237542   4.922   4.584  17.096 -0.1645  0.4162  0.1242
 5376TIP3    H137543   4.978   4.656  17.127 -0.7261  1.3078 -0.9180
 5376TIP3    H237544   4.833   4.619  17.101 -0.7106 -1.1797  2.2881
 5377TIP3   OH237545   4.361   3.327   1.715  0.2273 -0.2251 -0.4091
 5377TIP3    H137546   4.418   3.356   1.645  0.4186 -1.2390 -0.6839
 5377TIP3    H237547   4.273   3.324   1.676 -0.0263  1.2579 -0.0077
 5378TIP3   OH237548   6.377   3.896  14.012  0.3657 -0.4461 -0.1697
 5378TIP3    H137549   6.410   3.842  13.941  3.4819 -1.5899  2.0175
 5378TIP3    H237550   6.343   3.833  14.076  0.1371  0.4082  0.5575
 5379TIP3   OH237551   0.891   1.981   0.946 -0.4382 -0.2073 -0.2253
 5379TIP3    H137552   0.831   1.949   0.879 -0.6607  0.9802 -0.5877
 5379TIP3    H237553   0.859   2.068   0.969 -0.5734 -0.7243  1.6848
 5380TIP3   OH237554   1.810   2.108  15.300 -0.0732  0.3663 -0.5443
 5380TIP3    H137555   1.728   2.070  15.268 -0.0961 -0.8668  0.9389
 5380TIP3    H237556   1.783   2.189  15.343 -0.5493 -0.1488  0.1363
 5381TIP3   OH237557   4.769   2.891   4.954 -0.3868 -0.4418  0.2043
 5381TIP3    H137558   4.771   2.798   4.977 -0.2368 -0.1284  1.4703
 5381TIP3    H237559   4.843   2.903   4.895 -0.6308 -1.1975 -0.2694
 5382TIP3   OH237560   2.789   5.295   4.389  0.0466 -0.3837 -0.1367
 5382TIP3    H137561   2.873   5.268   4.353 -0.0889 -0.9499 -0.0203
 5382TIP3    H237562   2.760   5.222   4.443 -1.3835 -0.9490 -1.6201
 5383TIP3   OH237563   6.227   2.473   0.313  0.2699  0.3804 -0.9554
 5383TIP3    H137564   6.162   2.453   0.245 -0.6598 -0.7776  0.2409
 5383TIP3    H237565   6.244   2.567   0.303 -1.0819  0.5571 -1.7393
 5384TIP3   OH237566   5.990   0.473  12.289 -0.0255 -0.1176  0.5997
 5384TIP3    H137567   5.990   0.377  12.287  0.1837 -0.1340  1.2481
 5384TIP3    H237568   6.080   0.497  12.268  0.8850 -0.1674  4.2023
 5385TIP3   OH237569   2.683   5.736  10.569 -0.0532  0.0578 -0.1833
 5385TIP3    H137570   2.590   5.711  10.574 -0.2796  1.2523  2.4620
 5385TIP3    H237571   2.724   5.664  10.521 -2.4075 -0.2855 -1.7893
 5386TIP3   OH237572   5.385   0.701  14.698 -0.2945 -0.2980  0.3562
 5386TIP3    H137573   5.358   0.776  14.644  1.2865 -1.0853 -1.5910
 5386TIP3    H237574   5.313   0.638  14.689  0.2517 -0.7060 -1.4430
 5387TIP3   OH237575   6.415   0.249   1.223  0.6525 -0.1796  0.1293
 5387TIP3    H137576   6.384   0.165   1.191  0.9637  0.0055 -0.6880
 5387TIP3    H237577   6.495   0.266   1.172  1.0382  0.2229  0.8628
 5388TIP3   OH237578   0.106   1.831  12.897  0.0820 -0.4177 -0.2265
 5388TIP3    H137579   0.179   1.877  12.855  0.5868 -1.2780 -0.2964
 5388TIP3    H237580   0.116   1.850  12.991  0.4857 -0.6578 -0.2210
 5389TIP3   OH237581   1.156   5.982  14.572 -0.5000 -0.1523  0.4883
 5389TIP3    H137582   1.177   5.958  14.482 -0.3192  0.4693  0.3620
 5389TIP3    H237583   1.061   5.984  14.575 -0.5184 -0.7304  0.4652
 5390TIP3   OH237584   4.150   4.199   2.715  0.0476  0.1253 -0.2257
 5390TIP3    H137585   4.162   4.287   2.679 -1.4253  0.7842  0.8169
 5390TIP3    H237586   4.149   4.142   2.638  0.0570  1.1360 -0.9987
 5391TIP3   OH237587   4.590   0.861  14.137 -0.1200  0.3804  0.1474
 5391TIP3    H137588   4.657   0.930  14.133  0.1201  0.0944 -0.9399
 5391TIP3    H237589   4.638   0.780  14.121 -0.7692  0.2017 -0.9275
 5392TIP3   OH237590   0.587   2.009   2.666  0.3402  0.4481  0.0677
 5392TIP3    H137591   0.602   2.087   2.612 -1.2485 -0.5701 -1.9084
 5392TIP3    H237592   0.555   2.043   2.749  1.9693  2.0041  0.1069
 5393TIP3   OH237593   3.004   0.576  15.307  0.4982  0.4123  0.6788
 5393TIP3    H137594   2.926   0.614  15.348  0.6804  0.5559  0.8987
 5393TIP3    H237595   2.996   0.482  15.322  0.0626  0.3663  0.1640
 5394TIP3   OH237596   5.571   3.867  14.186  0.5081 -0.0501  0.7889
 5394TIP3    H137597   5.545   3.898  14.273 -1.1556 -1.4829  0.8242
 5394TIP3    H237598   5.534   3.931  14.125  0.3199  0.0895  1.0488
 5395TIP3   OH237599   3.503   2.745   4.535  0.0542 -0.2831 -0.7800
 5395TIP3    H137600   3.483   2.796   4.457  0.2895  0.8072 -0.1405
 5395TIP3    H237601   3.474   2.656   4.514  0.7860 -0.1694 -2.3800
 5396TIP3   OH237602   3.696   6.467   1.607 -0.5113  0.0215  0.6259
 5396TIP3    H137603   3.769   6.471   1.545 -0.0133  0.7362  1.2543
 5396TIP3    H237604   3.632   6.529   1.572 -0.8203 -0.6019  0.0781
 5397TIP3   OH237605   5.842   2.767  12.972  0.4025 -0.1241  0.1002
 5397TIP3    H137606   5.912   2.810  13.021  0.7150 -0.6900  0.1602
 5397TIP3    H237607   5.761   2.792  13.017  0.4344  1.5998 -0.7417
 5398TIP3   OH237608   1.570   4.162   2.051 -0.1664  0.2325  0.2504
 5398TIP3    H137609   1.617   4.087   2.014 -1.4390  0.8180 -2.7257
 5398TIP3    H237610   1.596   4.164   2.143  2.0025 -2.2082 -0.2521
 5399TIP3   OH237611   3.651   2.524  15.243  0.1820 -0.0770  0.0723
 5399TIP3    H137612   3.603   2.561  15.317  1.8355  0.1934  1.0465
 5399TIP3    H237613   3.738   2.505  15.278  0.8818 -0.2757 -1.7064
 5400TIP3   OH237614   0.365   5.106   1.395  0.9185 -0.1213  0.8353
 5400TIP3    H137615   0.432   5.117   1.463 -0.4501 -0.9455  2.3309
 5400TIP3    H237616   0.347   5.012   1.393  0.5931 -0.0420 -0.3340
 5401TIP3   OH237617   3.523   2.982  11.608 -0.2278 -0.5241 -0.2004
 5401TIP3    H137618   3.452   2.932  11.568 -0.1906 -0.8277  0.1081
 5401TIP3    H237619   3.529   3.062  11.556 -1.9880  0.3223  0.8489
 5402TIP3   OH237620   3.669   1.380  14.888 -0.4761 -0.0656  0.2308
 5402TIP3    H137621   3.746   1.338  14.928 -0.3330 -0.6827 -0.6806
 5402TIP3    H237622   3.651   1.455  14.945  0.1607 -0.5197  1.0490
 5403TIP3   OH237623   4.219   3.791   3.593  0.2903 -0.3958 -0.0688
 5403TIP3    H137624   4.160   3.787   3.518  0.5784  0.6833 -0.3563
 5403TIP3    H237625   4.165   3.763   3.667 -0.9308  1.6422 -0.1340
 5404TIP3   OH237626   3.806   6.322  14.919  0.6645 -0.0244 -0.1236
 5404TIP3    H137627   3.780   6.243  14.968 -0.5189 -0.3208 -1.2325
 5404TIP3    H237628   3.834   6.383  14.987 -0.9756 -0.4288  0.9543
 5405TIP3   OH237629   4.496   2.596   2.855  0.4357  0.2696 -0.2057
 5405TIP3    H137630   4.428   2.555   2.801  1.0796 -1.9781  0.6341
 5405TIP3    H237631   4.567   2.616   2.794 -0.3304  1.2018 -0.8137
 5406TIP3   OH237632   5.331   4.243   5.245  0.0053 -0.0892  0.2559
 5406TIP3    H137633   5.390   4.248   5.170 -1.1830  0.0675 -0.6767
 5406TIP3    H237634   5.369   4.175   5.301  2.6570  1.9372  1.0797
 5407TIP3   OH237635   5.634   0.120   4.303 -0.2915  0.3465 -0.8098
 5407TIP3    H137636   5.716   0.170   4.302 -0.6509  0.9028 -2.6164
 5407TIP3    H237637   5.568   0.179   4.267 -1.7272  0.2462  1.5618
 5408TIP3   OH237638   1.819   5.596   0.785 -0.0397 -0.4244  0.2814
 5408TIP3    H137639   1.743   5.585   0.729  0.7092 -0.0644 -0.8333
 5408TIP3    H237640   1.888   5.627   0.725  0.7271  0.1096  1.4262
 5409TIP3   OH237641   3.297   4.722  13.554  0.0870  0.4071 -0.0918
 5409TIP3    H137642   3.312   4.744  13.462  0.1936  1.4354  0.1629
 5409TIP3    H237643   3.288   4.807  13.597  0.3564 -0.0652  0.9027
 5410TIP3   OH237644   1.153   3.350  11.136  0.1882 -0.1691 -0.4315
 5410TIP3    H137645   1.081   3.363  11.074  0.7138 -0.4807 -1.1106
 5410TIP3    H237646   1.181   3.439  11.158 -2.3694  0.0924  2.1869
 5411TIP3   OH237647   3.845   3.479   3.092  0.4627 -0.6298 -0.4564
 5411TIP3    H137648   3.916   3.542   3.105 -0.6555  0.8079 -1.1365
 5411TIP3    H237649   3.794   3.484   3.173  0.9120 -1.3855 -0.1202
 5412TIP3   OH237650   3.609   6.074   2.037  0.6818 -0.3435  0.0676
 5412TIP3    H137651   3.688   6.031   2.005  1.6273  0.2145  1.6565
 5412TIP3    H237652   3.635   6.164   2.054 -0.0720 -0.3587  1.4003
 5413TIP3   OH237653   3.518   3.368  12.805  1.0796 -0.1345 -0.0216
 5413TIP3    H137654   3.458   3.405  12.869  1.3306  0.4739 -0.1284
 5413TIP3    H237655   3.464   3.314  12.748  0.5505  0.8025 -0.4177
 5414TIP3   OH237656   6.721   3.048   3.595 -0.9767 -0.6381  0.4313
 5414TIP3    H137657   6.693   3.085   3.679 -0.7812 -0.7394  0.5427
 5414TIP3    H237658   6.792   2.988   3.618 -0.1437  0.2063  0.0721
 5415TIP3   OH237659   2.216   3.002   3.009  0.2564  0.5238  0.3293
 5415TIP3    H137660   2.142   3.038   3.059  0.3919  1.0814  0.1272
 5415TIP3    H237661   2.177   2.930   2.959 -0.3952  1.5460 -0.6626
 5416TIP3   OH237662   1.905   0.224   5.917 -0.1435  0.0936  0.3721
 5416TIP3    H137663   1.822   0.264   5.942  0.6990  1.4911  1.0189
 5416TIP3    H237664   1.890   0.130   5.922 -1.8499  0.3394 -0.1004
 5417TIP3   OH237665   2.246   5.333  14.992  0.2559  0.7500 -0.3502
 5417TIP3    H137666   2.330   5.298  14.963  1.0431  1.9242  0.5058
 5417TIP3    H237667   2.239   5.418  14.950 -1.6218 -0.3125 -2.3364
 5418TIP3   OH237668   2.019   0.601   4.559  0.5082 -0.0426 -1.3586
 5418TIP3    H137669   1.949   0.562   4.507  2.6349 -0.6896 -3.8288
 5418TIP3    H237670   2.050   0.530   4.615  1.0422 -0.5376 -2.2730
 5419TIP3   OH237671   1.644   1.908  16.788 -0.3358 -0.4211  0.0306
 5419TIP3    H137672   1.668   1.934  16.877 -0.2337  0.3767 -0.2208
 5419TIP3    H237673   1.710   1.843  16.763 -1.0941 -1.5843  0.9895
 5420TIP3   OH237674   0.679   4.871  13.751 -0.8142 -0.1868  0.2986
 5420TIP3    H137675   0.672   4.902  13.660 -0.7612 -1.0259  0.0098
 5420TIP3    H237676   0.743   4.930  13.791 -1.2195  0.5130 -0.0696
 5421TIP3   OH237677   0.539   3.077   2.972 -0.4121 -0.0865  0.5799
 5421TIP3    H137678   0.558   3.024   3.050 -0.2491 -1.5809 -0.4522
 5421TIP3    H237679   0.626   3.102   2.939 -0.3747 -1.9280 -0.7726
 5422TIP3   OH237680   1.030   1.122   5.085  0.2670  0.2325  0.4363
 5422TIP3    H137681   1.079   1.092   5.161 -1.4674  0.5238  1.7059
 5422TIP3    H237682   1.036   1.218   5.089 -0.8126  0.2872  0.8901
 5423TIP3   OH237683   5.421   5.797  12.393 -0.0672  0.1550  0.7554
 5423TIP3    H137684   5.391   5.852  12.466  1.1408 -1.5697  2.5841
 5423TIP3    H237685   5.356   5.727  12.388 -1.1077  1.1947 -0.9996
 5424TIP3   OH237686   1.519   2.974  13.902  0.6055  0.0729 -0.2295
 5424TIP3    H137687   1.486   3.045  13.957  1.2057  1.0895 -1.1633
 5424TIP3    H237688   1.612   2.993  13.892  0.8391 -1.0374 -0.2023
 5425TIP3   OH237689   0.276   1.827   0.123 -0.2196 -0.4625  0.3895
 5425TIP3    H137690   0.358   1.785   0.099  1.0740  1.4117  1.3686
 5425TIP3    H237691   0.244   1.865   0.040  1.8955  2.0713  0.6538
 5426TIP3   OH237692   1.273   1.915   4.557  0.0657  0.1795  0.3240
 5426TIP3    H137693   1.188   1.951   4.581 -0.7069 -1.6474  0.4159
 5426TIP3    H237694   1.297   1.960   4.477 -0.6601  1.2218  0.6912
 5427TIP3   OH237695   5.348   5.572   2.198 -0.3175 -0.1356  0.0416
 5427TIP3    H137696   5.396   5.523   2.132  0.5681  0.4233  0.2534
 5427TIP3    H237697   5.407   5.644   2.222 -1.8272  1.3993 -0.7052
 5428TIP3   OH237698   5.042   0.240  11.228 -0.2552  0.3350 -0.3960
 5428TIP3    H137699   5.022   0.284  11.146 -1.4728  0.7714  0.1214
 5428TIP3    H237700   4.978   0.170  11.235 -2.0851  2.1105  1.5611
 5429TIP3   OH237701   6.294   6.756  15.053  0.2081  0.3738  0.1372
 5429TIP3    H137702   6.312   6.773  14.961 -2.4096 -0.6318 -0.6040
 5429TIP3    H237703   6.330   6.669  15.069  1.8277  1.0805  0.4424
 5430TIP3   OH237704   1.071   1.456   5.815  0.4324  0.4028 -0.3411
 5430TIP3    H137705   1.081   1.370   5.856 -1.3479 -0.6139 -1.9476
 5430TIP3    H237706   0.984   1.485   5.843 -0.2260  0.3142 -2.1969
 5431TIP3   OH237707   5.187   2.022   0.639  0.2869 -0.3264  0.5159
 5431TIP3    H137708   5.106   2.059   0.675  0.6039  0.4479  0.4502
 5431TIP3    H237709   5.168   1.929   0.629 -0.6518 -0.1301  0.3555
 5432TIP3   OH237710   3.076   1.407  13.041  0.4052 -0.4185 -0.1909
 5432TIP3    H137711   3.054   1.328  12.993  0.4651 -0.2579 -0.4808
 5432TIP3    H237712   3.080   1.476  12.974 -1.9954  0.2948  0.3268
 5433TIP3   OH237713   6.539   3.025   5.491 -0.3324 -0.1560  0.0609
 5433TIP3    H137714   6.578   2.986   5.569 -1.2828  0.0058  0.6326
 5433TIP3    H237715   6.554   3.119   5.500 -1.2559 -0.0388  0.5386
 5434TIP3   OH237716   2.132   3.821   0.639  0.1134  0.4788 -0.2731
 5434TIP3    H137717   2.213   3.801   0.592 -0.1404  1.1296 -1.0043
 5434TIP3    H237718   2.160   3.867   0.718  0.4517  0.8590 -0.6111
 5435TIP3   OH237719   4.367   5.233  17.099  0.0197  0.4963  0.1617
 5435TIP3    H137720   4.298   5.291  17.128 -1.1074 -0.9017  0.3413
 5435TIP3    H237721   4.322   5.162  17.054  1.4216  0.1996 -0.8198
 5436TIP3   OH237722   1.815   3.559   4.891 -0.1338  0.3037  0.5494
 5436TIP3    H137723   1.819   3.639   4.943 -1.4006  1.3809 -0.9701
 5436TIP3    H237724   1.877   3.574   4.819 -0.5704  0.0451  0.1160
 5437TIP3   OH237725   2.355   6.251   3.440 -0.1298 -0.4109  0.0999
 5437TIP3    H137726   2.343   6.156   3.442 -0.0194 -0.4449 -0.6746
 5437TIP3    H237727   2.319   6.278   3.356 -1.4029  0.4104  0.8957
 5438TIP3   OH237728   3.153   5.504   5.219 -0.0735 -0.1346 -0.1259
 5438TIP3    H137729   3.213   5.578   5.226 -1.1997  0.9193 -1.1109
 5438TIP3    H237730   3.069   5.539   5.247  0.0106 -1.9448  2.5047
 5439TIP3   OH237731   1.002   0.732   4.083 -0.6048  0.2124 -0.1081
 5439TIP3    H137732   1.062   0.688   4.145 -1.0926 -0.4528 -0.1039
 5439TIP3    H237733   0.953   0.660   4.043 -1.6024  0.7843  0.0935
 5440TIP3   OH237734   0.222   0.204   0.044 -0.1148  0.2801 -0.2047
 5440TIP3    H137735   0.300   0.239   0.001  0.9314 -1.8834 -0.1243
 5440TIP3    H237736   0.248   0.192   0.135 -0.1934 -1.3522 -0.3737
 5441TIP3   OH237737   4.757   0.803  13.329  0.7762  0.4041  0.1248
 5441TIP3    H137738   4.713   0.844  13.403 -2.2884 -0.1718 -1.2851
 5441TIP3    H237739   4.744   0.709  13.342  1.3928  0.2316 -0.4491
 5442TIP3   OH237740   4.724   5.584  11.707  0.1286  0.2041  0.5535
 5442TIP3    H137741   4.709   5.493  11.682 -1.1082  0.1024  1.5953
 5442TIP3    H237742   4.790   5.616  11.646 -0.3328 -1.0369 -0.6066
 5443TIP3   OH237743   0.103   5.387   2.114 -0.5596  0.0632 -0.8515
 5443TIP3    H137744   0.141   5.299   2.126  1.8563  0.6502 -3.5995
 5443TIP3    H237745   0.028   5.372   2.057 -1.5420 -0.4765  0.5510
 5444TIP3   OH237746   0.210   3.118  15.958  0.0060 -0.2869 -0.1364
 5444TIP3    H137747   0.132   3.086  15.914  0.1373 -0.0176 -0.5732
 5444TIP3    H237748   0.178   3.152  16.042  0.0014 -2.3458  0.7051
 5445TIP3   OH237749   3.621   0.339  15.331 -0.2703  0.0887  0.1595
 5445TIP3    H137750   3.529   0.363  15.322  0.4359  2.6046 -0.7457
 5445TIP3    H237751   3.664   0.418  15.365  1.8244 -0.4994 -1.0072
 5446TIP3   OH237752   0.719   5.843  14.033  0.6792  0.2820  0.0525
 5446TIP3    H137753   0.663   5.833  13.956  1.9082  0.7512 -0.9321
 5446TIP3    H237754   0.795   5.788  14.014 -0.2289 -1.7637  2.1652
 5447TIP3   OH237755   6.146   3.684  10.527  0.0343  0.6859  0.1843
 5447TIP3    H137756   6.149   3.605  10.581 -0.1111  1.0038  0.6526
 5447TIP3    H237757   6.057   3.686  10.492  0.4486 -0.1243 -0.9739
 5448TIP3   OH237758   5.789   2.404  11.154 -0.3757  0.6951 -0.1594
 5448TIP3    H137759   5.697   2.381  11.162  0.4602 -2.6603  0.7221
 5448TIP3    H237760   5.832   2.322  11.129  2.4624  2.0156  0.1718
 5449TIP3   OH237761   1.196   1.044  16.725 -0.1637  0.0908 -0.2405
 5449TIP3    H137762   1.233   0.984  16.789 -0.0302  0.0717 -0.3363
 5449TIP3    H237763   1.117   1.079  16.767  1.0770  1.6875  0.7887
 5450TIP3   OH237764   0.474   0.015   1.975  0.9255 -0.1292  0.2916
 5450TIP3    H137765   0.403  -0.032   2.020  0.8748  0.9559  1.3851
 5450TIP3    H237766   0.480  -0.026   1.889 -3.1713  1.7818 -1.0356
 5451TIP3   OH237767   6.087   5.326  11.686 -0.1768 -0.1296 -0.0189
 5451TIP3    H137768   6.153   5.369  11.631 -0.0707  0.2821  0.4249
 5451TIP3    H237769   6.049   5.259  11.630  1.1032 -0.8251 -0.0569
 5452TIP3   OH237770   6.664   6.758  11.272 -0.0417  0.3298 -0.2340
 5452TIP3    H137771   6.628   6.675  11.303  2.4990 -0.6191  0.3004
 5452TIP3    H237772   6.591   6.820  11.279 -1.6586 -1.6021  0.4005
 5453TIP3   OH237773   2.521   2.908  14.758  0.3039  0.0069 -0.1564
 5453TIP3    H137774   2.582   2.849  14.801 -0.8392 -0.4192  0.9052
 5453TIP3    H237775   2.435   2.870  14.774 -0.4984  2.1445  0.9217
 5454TIP3   OH237776   3.889   1.891  15.585 -0.3630  0.1049 -0.0765
 5454TIP3    H137777   3.835   1.914  15.661  1.0598  0.4650  0.8469
 5454TIP3    H237778   3.842   1.818  15.544 -1.4700  0.3136  0.7807
 5455TIP3   OH237779   5.740   3.376   3.770  0.2601 -0.0271  0.1101
 5455TIP3    H137780   5.742   3.456   3.719 -1.9090 -0.1532 -0.2119
 5455TIP3    H237781   5.655   3.337   3.750  1.8816 -3.2131 -0.9838
 5456TIP3   OH237782   4.071   3.111  14.568  0.2234 -0.0915 -0.0659
 5456TIP3    H137783   4.021   3.169  14.624 -2.3771 -2.2018 -0.1051
 5456TIP3    H237784   4.103   3.042  14.626 -0.9269 -1.2867 -0.8160
 5457TIP3   OH237785   0.776   4.095   4.368 -0.4193 -0.1144 -0.0257
 5457TIP3    H137786   0.723   4.073   4.292  1.8324 -0.9918 -1.3786
 5457TIP3    H237787   0.834   4.020   4.379  1.6467  1.5161  0.4244
 5458TIP3   OH237788   4.048   0.386  13.814  0.6713  0.5858  0.2708
 5458TIP3    H137789   4.063   0.467  13.862 -0.7437  1.2671 -0.3831
 5458TIP3    H237790   4.062   0.317  13.879  1.6067  1.3626  0.9101
 5459TIP3   OH237791   0.184   4.789  12.844 -0.0791  0.5024 -0.3359
 5459TIP3    H137792   0.195   4.764  12.752 -2.5565  0.9339 -0.7653
 5459TIP3    H237793   0.137   4.715  12.884 -1.4824  1.5287 -0.0673
 5460TIP3   OH237794   3.133   5.523  14.075 -0.4924 -0.0228 -0.5760
 5460TIP3    H137795   3.222   5.498  14.101 -1.0838 -1.4904  0.0617
 5460TIP3    H237796   3.141   5.546  13.982  0.8661  1.4594 -0.1140
 5461TIP3   OH237797   1.369   4.967  13.489 -0.4592 -0.2411 -0.9402
 5461TIP3    H137798   1.332   4.879  13.496 -0.9764  0.0633  0.3613
 5461TIP3    H237799   1.294   5.025  13.502  0.0316  0.3927 -0.9206
 5462TIP3   OH237800   0.848   1.364  12.481 -0.2539  0.3271 -0.5802
 5462TIP3    H137801   0.760   1.394  12.503 -0.4581 -0.0799 -0.8322
 5462TIP3    H237802   0.836   1.307  12.404  0.1163 -0.4149 -0.1007
 5463TIP3   OH237803   0.394   3.044  15.610 -0.3800 -0.9233  0.1163
 5463TIP3    H137804   0.316   3.089  15.579  0.0231  0.9974  1.7803
 5463TIP3    H237805   0.438   3.016  15.530 -0.3955  2.1226 -1.0526
 5464TIP3   OH237806   0.168   0.790  10.597  0.1928  0.1067 -0.8413
 5464TIP3    H137807   0.101   0.790  10.665  2.0289 -2.4734  1.0717
 5464TIP3    H237808   0.236   0.848  10.630  0.6540 -0.3910 -0.9054
 5465TIP3   OH237809   3.677   5.680  15.635  0.0043 -0.0879 -0.3742
 5465TIP3    H137810   3.662   5.712  15.724  0.7142  0.9180 -0.6127
 5465TIP3    H237811   3.629   5.597  15.632 -0.8086  0.3182  0.6472
 5466TIP3   OH237812   0.846   5.373  16.401  0.3530 -0.3430 -0.2362
 5466TIP3    H137813   0.884   5.310  16.463  0.5226 -0.1088 -0.0996
 5466TIP3    H237814   0.852   5.457  16.446  2.9332  0.2768 -1.6106
 5467TIP3   OH237815   1.712   5.970  12.000  0.3083  0.4912 -0.1326
 5467TIP3    H137816   1.802   5.944  12.018  0.3240  0.6458  0.0136
 5467TIP3    H237817   1.716   6.066  11.993  0.2571  0.4475 -0.6989
 5468TIP3   OH237818   0.241   0.296  14.093  0.5052 -0.3391  0.1496
 5468TIP3    H137819   0.185   0.223  14.121  0.0574  0.3911  1.1831
 5468TIP3    H237820   0.329   0.271  14.121  0.6289 -1.2615 -1.0289
 5469TIP3   OH237821   4.302   6.343   2.533  0.0095  0.1609  0.9553
 5469TIP3    H137822   4.309   6.417   2.593 -0.7348 -0.8325  2.2948
 5469TIP3    H237823   4.393   6.322   2.510  0.2622  0.9562  1.2151
 5470TIP3   OH237824   6.222   5.738  10.913  0.4242 -0.2155 -0.1279
 5470TIP3    H137825   6.227   5.723  10.818 -0.6097 -1.9114  0.0863
 5470TIP3    H237826   6.269   5.821  10.926  0.7509 -0.0731 -2.0935
 5471TIP3   OH237827   6.377   1.916  14.260  0.3083 -0.5347  0.5367
 5471TIP3    H137828   6.303   1.917  14.321  0.1561 -2.9503  0.4543
 5471TIP3    H237829   6.454   1.933  14.315 -0.1610  0.5516  0.8562
 5472TIP3   OH237830   5.382   0.619   2.727  0.5157  0.3068 -0.3424
 5472TIP3    H137831   5.306   0.671   2.698  1.7609  0.3527 -3.7715
 5472TIP3    H237832   5.395   0.645   2.818 -3.4097  0.5075  0.2531
 5473TIP3   OH237833   0.863   5.087  11.696  0.3124  0.1271  0.7724
 5473TIP3    H137834   0.903   5.099  11.782 -0.5419  1.0549  1.0604
 5473TIP3    H237835   0.773   5.119  11.708 -0.0585 -0.5401 -0.2378
 5474TIP3   OH237836   0.150   3.215  14.222  0.5500  0.0990 -0.4213
 5474TIP3    H137837   0.200   3.245  14.298  0.2757  1.3479 -0.7285
 5474TIP3    H237838   0.192   3.132  14.197 -0.0770 -0.9383  1.7922
 5475TIP3   OH237839   2.434   3.602  16.864 -0.7252 -0.3532 -0.3612
 5475TIP3    H137840   2.402   3.690  16.880 -1.3678 -0.7599  0.6978
 5475TIP3    H237841   2.529   3.610  16.865 -0.7808  0.2581  0.1565
 5476TIP3   OH237842   0.065   0.594   5.372  0.4511  0.0874 -0.9799
 5476TIP3    H137843   0.102   0.573   5.458 -1.3669 -0.2227 -0.2607
 5476TIP3    H237844   0.115   0.540   5.311 -0.1593 -1.8217  0.1955
 5477TIP3   OH237845   6.354   4.226   5.727  0.0490  0.5056 -0.2060
 5477TIP3    H137846   6.401   4.143   5.732  0.6212  0.8289 -0.1607
 5477TIP3    H237847   6.304   4.230   5.808  0.4088  0.4284  0.0235
 5478TIP3   OH237848   4.656   2.536  13.579  0.2354 -0.0806  0.3773
 5478TIP3    H137849   4.744   2.564  13.604  0.1176  0.3175  0.3516
 5478TIP3    H237850   4.669   2.486  13.498  0.3773  0.4662  0.0572
 5479TIP3   OH237851   3.093   2.960  13.558 -0.2998 -0.2048 -0.5707
 5479TIP3    H137852   3.078   3.040  13.609  3.3609  0.3840 -0.3167
 5479TIP3    H237853   3.067   2.889  13.616  1.5625  0.5762  1.2475
 5480TIP3   OH237854   2.338   4.173  14.234  0.5450  0.6254  0.1069
 5480TIP3    H137855   2.261   4.137  14.279  0.5138  2.0798  1.2806
 5480TIP3    H237856   2.312   4.263  14.211  1.9695  1.2135  0.7445
 5481TIP3   OH237857   1.528   4.434  16.451  0.2203 -0.0209 -0.0137
 5481TIP3    H137858   1.476   4.424  16.531 -0.2598 -1.3007 -0.4789
 5481TIP3    H237859   1.495   4.514  16.411  0.1727  0.3975  0.8597
 5482TIP3   OH237860   4.149   5.069   2.600 -0.5055 -0.2671 -0.1895
 5482TIP3    H137861   4.231   5.079   2.648 -0.5705 -1.0956  0.1105
 5482TIP3    H237862   4.106   4.994   2.642 -2.8509  2.0371  1.6793
 5483TIP3   OH237863   6.009   5.187  14.856  0.0603  0.0675  0.5174
 5483TIP3    H137864   6.021   5.265  14.801 -0.7165 -0.4759 -0.4386
 5483TIP3    H237865   5.951   5.217  14.927  0.2645  0.5122  0.5015
 5484TIP3   OH237866   1.847   4.232  16.872  0.4435  0.1499  0.0818
 5484TIP3    H137867   1.907   4.224  16.946  2.7522  0.2697 -1.7331
 5484TIP3    H237868   1.782   4.296  16.901  0.5223 -0.7846  2.4751
 5485TIP3   OH237869   2.270   1.717   1.580  0.2512  0.0328  0.0285
 5485TIP3    H137870   2.199   1.728   1.643  0.0743 -0.4309 -0.0849
 5485TIP3    H237871   2.343   1.766   1.617  0.5197 -1.2222  1.1990
 5486TIP3   OH237872   1.421   6.742  15.437 -0.1069  0.1485 -0.0159
 5486TIP3    H137873   1.487   6.679  15.465  0.6645  0.5054 -0.9753
 5486TIP3    H237874   1.389   6.708  15.353 -1.3417 -0.1640  0.5826
 5487TIP3   OH237875   4.171   5.667  10.857 -0.0236  0.2323  0.2095
 5487TIP3    H137876   4.102   5.615  10.817  0.0058 -1.1514  1.9010
 5487TIP3    H237877   4.249   5.613  10.850  1.2928  2.4108 -3.0480
 5488TIP3   OH237878   0.703   2.066  13.354 -0.1490 -0.0217  0.4214
 5488TIP3    H137879   0.628   2.125  13.359 -0.2822 -0.1286 -0.2887
 5488TIP3    H237880   0.669   1.980  13.377 -1.0224 -0.7427 -3.2767
 5489TIP3   OH237881   1.101   6.761  16.584 -0.2611  0.5871  0.0577
 5489TIP3    H137882   1.134   6.755  16.674  0.8127  1.2019 -0.2834
 5489TIP3    H237883   1.063   6.848  16.578 -1.8869 -0.0772  0.4123
 5490TIP3   OH237884   4.272   1.959  14.879 -0.0896 -0.3208  0.4477
 5490TIP3    H137885   4.336   2.015  14.836 -0.1882 -0.1829  0.4794
 5490TIP3    H237886   4.325   1.894  14.926  0.0091 -1.1236 -0.7365
 5491TIP3   OH237887   1.756   0.335  15.792  0.3844 -0.2971 -0.1641
 5491TIP3    H137888   1.775   0.418  15.749  1.5776  0.3964  1.6621
 5491TIP3    H237889   1.675   0.304  15.750 -0.1822  1.8699 -0.7120
 5492TIP3   OH237890   3.619   1.139  16.498 -0.6224 -0.4117  0.0616
 5492TIP3    H137891   3.568   1.200  16.444 -0.2329 -1.3949 -1.4260
 5492TIP3    H237892   3.605   1.170  16.588 -3.0715 -0.0718 -0.3813
 5493TIP3   OH237893   3.421   1.390   2.353 -0.4392  0.4073 -0.2598
 5493TIP3    H137894   3.371   1.471   2.361 -1.2279 -0.1276  0.2787
 5493TIP3    H237895   3.402   1.358   2.265 -1.3164  0.0263  0.0674
 5494TIP3   OH237896   2.087   2.071  16.203 -0.2030 -0.4799  0.0062
 5494TIP3    H137897   2.099   2.068  16.298  0.8332 -2.0929 -0.1598
 5494TIP3    H237898   2.004   2.026  16.188 -1.0217  0.9360  0.2510
 5495TIP3   OH237899   4.706   2.332  13.415 -0.2629 -0.4587  0.2368
 5495TIP3    H137900   4.789   2.285  13.412 -0.6645 -1.0744 -1.7004
 5495TIP3    H237901   4.649   2.285  13.354 -0.5964  2.6908 -2.0226
 5496TIP3   OH237902   2.175   4.269  16.728 -0.2284 -0.0579 -0.3447
 5496TIP3    H137903   2.102   4.278  16.667 -1.0572 -2.0513  0.3336
 5496TIP3    H237904   2.225   4.350  16.717 -1.8980  0.8256 -1.6408
 5497TIP3   OH237905   6.547   4.889   3.500  0.1834  0.3007  0.2393
 5497TIP3    H137906   6.623   4.849   3.543 -1.0987 -0.8483  1.5042
 5497TIP3    H237907   6.472   4.841   3.535 -1.1661  1.7196 -0.6440
 5498TIP3   OH237908   4.265   2.711  16.766  0.5271 -0.2879  0.3519
 5498TIP3    H137909   4.344   2.765  16.760 -0.4913  1.1586 -0.1140
 5498TIP3    H237910   4.275   2.647  16.696  0.8901  0.4146 -0.2449
 5499TIP3   OH237911   6.267   0.175  14.365 -0.1199 -0.0757  0.0014
 5499TIP3    H137912   6.276   0.252  14.423  0.0085 -0.4411  0.4707
 5499TIP3    H237913   6.216   0.113  14.416  1.4945 -1.0902  0.4169
 5500TIP3   OH237914   1.745   2.982   2.614 -0.4702  0.5405  0.1407
 5500TIP3    H137915   1.691   3.041   2.667 -1.0509  0.4390 -0.3356
 5500TIP3    H237916   1.744   3.021   2.527 -0.4405  0.0916 -0.0607
 5501TIP3   OH237917   1.214   1.527   1.832  0.2085  0.0867  0.0805
 5501TIP3    H137918   1.307   1.537   1.853 -0.0021  0.7926  0.7203
 5501TIP3    H237919   1.169   1.563   1.908 -0.5862  1.7667 -1.1673
 5502TIP3   OH237920   4.042   1.634   6.571 -0.2772 -0.0049 -0.1581
 5502TIP3    H137921   3.951   1.659   6.553 -0.2093 -0.5782 -1.3617
 5502TIP3    H237922   4.038   1.539   6.585  0.3413 -0.2515 -1.6242
 5503TIP3   OH237923   0.714   1.073  12.099  0.8610 -1.0887  0.3098
 5503TIP3    H137924   0.688   1.098  12.011 -0.4610 -0.2047  0.9342
 5503TIP3    H237925   0.724   0.977  12.095  0.8737 -1.0465 -0.7953
 5504TIP3   OH237926   2.912   2.838   6.083 -0.1665 -0.1077 -0.1586
 5504TIP3    H137927   2.968   2.900   6.036 -1.9222  0.9113 -0.9931
 5504TIP3    H237928   2.867   2.790   6.013 -1.9018  0.5832  0.4654
 5505TIP3   OH237929   1.664   2.947   5.854  0.5318 -0.4654  0.1313
 5505TIP3    H137930   1.733   2.884   5.875 -0.8285 -0.9721  3.4088
 5505TIP3    H237931   1.678   3.019   5.916  0.5211  1.3378 -1.8804
 5506TIP3   OH237932   0.302   1.407  15.637 -0.0261 -0.6235  0.3885
 5506TIP3    H137933   0.363   1.407  15.711  1.9196 -2.4029 -1.1545
 5506TIP3    H237934   0.335   1.476  15.579 -1.2774  0.4505  0.9118
 5507TIP3   OH237935   2.840   6.128   2.812 -0.9928  0.1250  0.7914
 5507TIP3    H137936   2.791   6.048   2.793 -0.9028  0.3251 -0.2811
 5507TIP3    H237937   2.779   6.199   2.793  0.1419  0.4351 -2.0215
 5508TIP3   OH237938   0.641   3.450   4.850 -0.1767 -0.2409  0.1728
 5508TIP3    H137939   0.713   3.409   4.803 -0.7423  0.2606 -1.1609
 5508TIP3    H237940   0.609   3.383   4.910 -0.1389 -1.2511 -0.9344
 5509TIP3   OH237941   3.480   0.901  14.192  0.2405 -0.2878  0.6903
 5509TIP3    H137942   3.518   0.896  14.279 -0.5253 -0.8545  1.0024
 5509TIP3    H237943   3.532   0.841  14.139  2.3701  2.0350  0.1100
 5510TIP3   OH237944   3.284   6.596  13.109  1.0957  0.0087  0.0923
 5510TIP3    H137945   3.251   6.534  13.045  0.3149  2.6599 -2.1756
 5510TIP3    H237946   3.234   6.578  13.188  0.0082 -1.3895 -0.8994
 5511TIP3   OH237947   3.801   1.464  14.392  0.2882 -0.0268  0.2606
 5511TIP3    H137948   3.842   1.530  14.336  1.8385 -0.6276  0.6552
 5511TIP3    H237949   3.738   1.420  14.334 -0.8152  1.8155  0.0146
 5512TIP3   OH237950   0.865   3.340   1.629  0.0297  0.6184  0.1715
 5512TIP3    H137951   0.854   3.433   1.613 -2.9060  0.2300 -0.4435
 5512TIP3    H237952   0.840   3.298   1.547 -2.3632 -0.8353  1.5864
 5513TIP3   OH237953   1.182   2.354  16.561 -0.0449  0.4909  0.2896
 5513TIP3    H137954   1.259   2.361  16.617 -0.0076 -0.3296  0.3437
 5513TIP3    H237955   1.153   2.444  16.549  0.6191  0.7613  0.6934
 5514TIP3   OH237956   3.354   4.242   1.340  0.1913  0.4383  0.2072
 5514TIP3    H137957   3.425   4.295   1.376  0.5342 -0.6642  1.1497
 5514TIP3    H237958   3.311   4.301   1.277  0.4884  1.8818  1.3136
 5515TIP3   OH237959   1.389   5.760   5.710 -0.2568 -0.4042 -0.1198
 5515TIP3    H137960   1.452   5.717   5.768 -0.4157 -0.8170 -0.2559
 5515TIP3    H237961   1.429   5.845   5.691  0.2582 -0.6582 -0.1970
 5516TIP3   OH237962   4.277   4.033  12.956  0.8439  0.5297 -0.8615
 5516TIP3    H137963   4.281   4.116  12.909 -0.3208  0.7011 -0.6754
 5516TIP3    H237964   4.193   3.996  12.932  1.4265 -0.6759 -1.0558
 5517TIP3   OH237965   0.552   2.952   0.290 -0.5001  0.3913 -0.6440
 5517TIP3    H137966   0.562   3.046   0.307 -3.3266  0.9442 -1.7820
 5517TIP3    H237967   0.502   2.919   0.365  0.0301 -0.1149 -0.5069
 5518TIP3   OH237968   1.920   4.296  17.137 -0.7709 -0.4795 -0.0109
 5518TIP3    H137969   1.853   4.234  17.167  1.5759 -1.9652  2.2974
 5518TIP3    H237970   1.887   4.382  17.163 -2.0086 -1.1394  0.6279
 5519TIP3   OH237971   3.642   0.500   4.054 -0.1472  0.3500 -0.2810
 5519TIP3    H137972   3.737   0.508   4.062 -0.2856  3.3451 -1.0461
 5519TIP3    H237973   3.627   0.483   3.961 -0.3144 -1.5489  0.0738
 5520TIP3   OH237974   4.905   0.939  11.521  0.3764 -0.4022  0.6489
 5520TIP3    H137975   4.913   1.016  11.577 -0.4449  0.2216 -0.0863
 5520TIP3    H237976   4.995   0.908  11.510  0.9569  1.7158 -0.8367
 5521TIP3   OH237977   5.435   6.190  11.221 -0.1919  0.1114 -0.2490
 5521TIP3    H137978   5.396   6.277  11.218  0.2201  0.2695 -1.0211
 5521TIP3    H237979   5.480   6.180  11.137  1.0846 -0.2344  0.4574
 5522TIP3   OH237980   1.502   6.672  16.895 -0.0908 -0.3959 -0.0405
 5522TIP3    H137981   1.591   6.637  16.894 -0.8238 -2.3303 -0.6574
 5522TIP3    H237982   1.503   6.738  16.965  2.2049  0.6995 -1.0631
 5523TIP3   OH237983   3.811   6.095  12.632 -0.6737 -0.7183  0.2539
 5523TIP3    H137984   3.813   6.077  12.538 -1.5527 -0.5191  0.1870
 5523TIP3    H237985   3.898   6.073  12.663 -0.5859 -1.4332 -0.4919
 5524TIP3   OH237986   2.005   0.810  10.685  0.9855 -0.5315  0.3501
 5524TIP3    H137987   2.089   0.854  10.691  0.8294 -0.3721  1.5123
 5524TIP3    H237988   1.940   0.881  10.686  0.8303 -0.6674 -0.2068
 5525TIP3   OH237989   2.731   2.810  14.165  0.1859 -0.3453  0.1749
 5525TIP3    H137990   2.790   2.737  14.149 -0.6197 -0.8005 -0.7668
 5525TIP3    H237991   2.659   2.796  14.103 -0.0509  1.1534  0.1128
 5526TIP3   OH237992   1.636   3.120  12.126  0.2374  0.1133 -0.0985
 5526TIP3    H137993   1.581   3.162  12.193  0.2172  1.5493 -1.0175
 5526TIP3    H237994   1.624   3.026  12.142 -2.0025  0.4016  0.1292
 5527TIP3   OH237995   1.231   1.768   4.856 -0.0436 -0.3066 -0.0162
 5527TIP3    H137996   1.315   1.764   4.809  0.0237  1.7777 -0.0930
 5527TIP3    H237997   1.170   1.805   4.793 -0.5725  0.0042  0.6813
 5528TIP3   OH237998   4.797   5.516   4.719  0.2128  0.1218 -0.2890
 5528TIP3    H137999   4.778   5.449   4.785  0.7342  1.0520  0.8199
 5528TIP3    H238000   4.746   5.489   4.643 -1.7586 -0.0428  1.0418
 5529TIP3   OH238001   5.251   2.166  11.913  0.4833  0.2435 -0.0507
 5529TIP3    H138002   5.272   2.259  11.919  2.0178 -0.1774  1.8438
 5529TIP3    H238003   5.337   2.123  11.904  0.1287 -1.2120  2.8624
 5530TIP3   OH238004   3.496   0.341  15.614  0.3083 -0.3037  0.1521
 5530TIP3    H138005   3.585   0.376  15.626 -0.5019  1.8129  0.3261
 5530TIP3    H238006   3.460   0.338  15.702 -0.0172 -0.5353  0.0113
 5531TIP3   OH238007   2.021   1.986   0.169 -0.4806  0.0220  0.5646
 5531TIP3    H138008   1.944   1.951   0.124 -1.6969  0.3676  2.3329
 5531TIP3    H238009   1.986   2.025   0.249  1.5940 -0.2118  1.6049
 5532TIP3   OH238010   1.689   4.885  10.384  0.3823 -0.1107  0.3794
 5532TIP3    H138011   1.611   4.923  10.343  0.7610  1.0883  0.7306
 5532TIP3    H238012   1.663   4.797  10.409  0.5709 -1.4626 -3.7810
 5533TIP3   OH238013   6.304   3.268  12.479  0.8226 -0.2249  0.5561
 5533TIP3    H138014   6.399   3.279  12.470  0.6405 -1.0250 -3.5302
 5533TIP3    H238015   6.267   3.333  12.418 -1.2931  0.5270  2.5767
 5534TIP3   OH238016   6.004   2.364   3.612 -0.4743  0.2773  0.5017
 5534TIP3    H138017   6.003   2.363   3.516  0.2173  1.0161  0.4854
 5534TIP3    H238018   5.966   2.280   3.637  0.3840 -0.3884 -0.4231
 5535TIP3   OH238019   0.659   1.399  11.332  1.0195  0.5644  0.2180
 5535TIP3    H138020   0.582   1.411  11.276  1.0048 -0.3185  0.0557
 5535TIP3    H238021   0.693   1.313  11.309  0.6986 -0.0519  1.9219
 5536TIP3   OH238022   0.440   5.159   1.147  0.0181 -0.1989 -0.1261
 5536TIP3    H138023   0.520   5.198   1.181  0.5177 -0.0505 -1.4456
 5536TIP3    H238024   0.387   5.141   1.225  1.2260 -0.0798  0.7327
 5537TIP3   OH238025   1.901   2.284   1.651  0.1350  0.1464 -0.1231
 5537TIP3    H138026   1.979   2.249   1.609  0.1316  0.6979 -0.5952
 5537TIP3    H238027   1.836   2.290   1.581  0.2552  1.4563 -0.1411
 5538TIP3   OH238028   3.947   6.505  13.988 -0.0363  0.1430 -0.0013
 5538TIP3    H138029   3.925   6.413  13.976 -0.8964  0.1525  1.3135
 5538TIP3    H238030   4.038   6.504  14.017 -1.1377 -0.6464  3.8610
 5539TIP3   OH238031   0.504   3.003  14.944 -0.2428  0.5367 -0.2094
 5539TIP3    H138032   0.597   3.025  14.958 -0.1259 -0.3635  0.4674
 5539TIP3    H238033   0.506   2.926  14.887 -0.5424 -0.0547  0.5662
 5540TIP3   OH238034   3.344   3.224  14.988 -0.4160 -0.5669  0.9252
 5540TIP3    H138035   3.438   3.203  14.986  0.2321  2.2074  0.2183
 5540TIP3    H238036   3.329   3.257  15.076 -0.7918 -1.2161  1.1065
 5541TIP3   OH238037   6.496   5.061   2.102 -0.9532 -0.2197 -0.1317
 5541TIP3    H138038   6.421   5.066   2.162  0.3225  2.9008  1.3459
 5541TIP3    H238039   6.551   4.991   2.138 -0.7627  0.8466  1.7314
 5542TIP3   OH238040   2.444   5.262  12.535  0.3767  0.0006 -0.2032
 5542TIP3    H138041   2.492   5.262  12.618  1.0650 -0.7805 -0.6046
 5542TIP3    H238042   2.506   5.229  12.470 -0.1204  0.7015 -1.0606
 5543TIP3   OH238043   1.340   0.978  16.224  0.3937 -0.3005 -0.0374
 5543TIP3    H138044   1.401   0.990  16.297 -0.1432 -0.2483  0.4069
 5543TIP3    H238045   1.267   1.037  16.243  0.4294 -0.0040 -0.8145
 5544TIP3   OH238046   2.482   0.100  17.164 -0.1174  0.0540  0.2284
 5544TIP3    H138047   2.511   0.165  17.228  1.1992  0.0468 -0.3430
 5544TIP3    H238048   2.512   0.016  17.198  0.2653  0.0088 -0.2149
 5545TIP3   OH238049   0.058   2.165  13.285 -0.2698 -0.2950 -0.1622
 5545TIP3    H138050   0.071   2.101  13.354 -1.4547 -1.5216 -1.0359
 5545TIP3    H238051   0.145   2.181  13.249  0.0029 -1.6371 -0.1160
 5546TIP3   OH238052   4.078   6.045  14.475  0.2940  0.3492 -0.3489
 5546TIP3    H138053   4.145   6.089  14.527  1.3661 -1.7962  0.1000
 5546TIP3    H238054   3.999   6.049  14.529  1.2142 -1.1951  1.1383
 5547TIP3   OH238055   2.487   1.156  14.885 -0.4000  0.5593 -0.3659
 5547TIP3    H138056   2.546   1.188  14.954 -0.2343  0.5975 -0.5247
 5547TIP3    H238057   2.406   1.133  14.931 -0.0406 -0.0931 -0.0612
 5548TIP3   OH238058   3.841   0.998   5.518 -0.0512  0.6174 -0.2824
 5548TIP3    H138059   3.834   0.904   5.498 -1.7387  0.8877 -1.0195
 5548TIP3    H238060   3.876   1.037   5.438  1.5224  0.5063  0.3369
 5549TIP3   OH238061   1.157   1.484  12.690  0.4164  0.1080 -0.2952
 5549TIP3    H138062   1.176   1.420  12.621 -1.1583 -1.0800  0.3568
 5549TIP3    H238063   1.062   1.489  12.693  0.4613  0.2230  1.7157
 5550TIP3   OH238064   1.186   1.360   1.622  0.4747 -0.0054  0.1901
 5550TIP3    H138065   1.240   1.394   1.551  0.1749  1.7806  0.7707
 5550TIP3    H238066   1.212   1.412   1.699 -1.5824  0.4497  0.6128
 5551TIP3   OH238067   1.931   6.735  16.751 -0.1970  0.6179 -0.2315
 5551TIP3    H138068   1.932   6.640  16.762  0.2993  0.8966  2.4735
 5551TIP3    H238069   2.021   6.761  16.766 -0.0374  1.3843 -2.4662
 5552TIP3   OH238070   6.330   6.390  16.022 -0.0385  0.0207  0.2971
 5552TIP3    H138071   6.330   6.320  15.957  2.5949 -0.3926  0.6695
 5552TIP3    H238072   6.313   6.345  16.105 -0.8573  0.1814  0.2127
 5553TIP3   OH238073   1.971   2.147  16.764  0.1299  0.4530 -0.3601
 5553TIP3    H138074   1.895   2.174  16.816  0.7259  1.3338  0.0686
 5553TIP3    H238075   2.036   2.121  16.829  0.1764 -0.3456 -0.7278
 5554TIP3   OH238076   5.893   6.608   1.843 -1.1510 -0.1794  0.1927
 5554TIP3    H138077   5.938   6.692   1.852 -1.9561  0.1474  1.2387
 5554TIP3    H238078   5.801   6.632   1.832 -1.3213 -0.9181  0.0237
 5555TIP3   OH238079   1.216   5.204   3.011 -0.4817 -0.0731  0.1646
 5555TIP3    H138080   1.222   5.144   3.086 -1.5278 -0.2703  0.0961
 5555TIP3    H238081   1.251   5.155   2.937  1.2388  0.3768  0.6651
 5556TIP3   OH238082   1.444   3.365  16.227 -0.3703 -0.0165 -0.1252
 5556TIP3    H138083   1.501   3.430  16.268  0.7469  0.1941 -1.9380
 5556TIP3    H238084   1.357   3.384  16.261  0.3949  0.6226  1.5248
 5557TIP3   OH238085   0.131   2.345   3.254  0.1777 -0.4449  0.2560
 5557TIP3    H138086   0.091   2.295   3.325 -0.7746  0.8792  0.6741
 5557TIP3    H238087   0.152   2.280   3.187 -1.8853 -1.2591  0.3867
 5558TIP3   OH238088   4.270   3.925   5.536  0.0668 -0.5942  0.2924
 5558TIP3    H138089   4.267   3.900   5.444 -2.2071 -1.7080  0.6169
 5558TIP3    H238090   4.296   4.017   5.536 -3.3492  0.4671 -1.7389
 5559TIP3   OH238091   3.496   3.041  12.317 -0.3864 -0.0919 -0.1351
 5559TIP3    H138092   3.537   2.955  12.305  0.3302  0.1108  0.8751
 5559TIP3    H238093   3.402   3.025  12.304 -0.3516 -1.2026  0.9392
 5560TIP3   OH238094   6.420   3.641   5.219  0.0893 -0.2474  0.2556
 5560TIP3    H138095   6.435   3.728   5.182 -0.6825 -0.5328 -0.7622
 5560TIP3    H238096   6.324   3.634   5.223  0.1585 -0.3570  1.9997
 5561TIP3   OH238097   4.750   5.477   1.449 -0.2617 -0.4262 -0.3969
 5561TIP3    H138098   4.662   5.513   1.461 -0.5033 -1.0452 -0.2870
 5561TIP3    H238099   4.798   5.547   1.405 -1.5518 -1.0790 -2.9230
 5562TIP3   OH238100   4.865   0.233   4.757  0.0487 -0.0763 -0.0493
 5562TIP3    H138101   4.953   0.199   4.771  0.5756  0.9258 -0.8612
 5562TIP3    H238102   4.877   0.328   4.748 -1.2389  0.2092  0.9312
 5563TIP3   OH238103   6.487   6.669   4.008 -0.2548 -0.2555  0.1148
 5563TIP3    H138104   6.497   6.724   4.086 -0.8907  0.4835 -0.3190
 5563TIP3    H238105   6.570   6.678   3.962 -0.0650 -0.2881  0.4486
 5564TIP3   OH238106   4.188   1.434  12.782  0.4591 -1.1487 -0.5260
 5564TIP3    H138107   4.199   1.429  12.877  1.0922  1.0610 -0.4764
 5564TIP3    H238108   4.111   1.379  12.765 -0.4785 -0.4840  1.4122
 5565TIP3   OH238109   6.543   1.563  15.953 -0.0517  0.1089 -0.1467
 5565TIP3    H138110   6.479   1.609  16.007 -0.1682  0.4588 -0.5804
 5565TIP3    H238111   6.491   1.518  15.887  0.1889  0.8664 -0.8497
 5566TIP3   OH238112   4.508   3.976  13.667 -0.1892 -0.6946  0.1924
 5566TIP3    H138113   4.431   4.027  13.641 -0.0450 -0.4218  0.2963
 5566TIP3    H238114   4.563   4.039  13.714  0.6920 -0.5661 -0.9838
 5567TIP3   OH238115   0.347   4.151  11.619 -0.1099  0.0472 -0.4903
 5567TIP3    H138116   0.350   4.212  11.545  0.8954  1.0368  0.3694
 5567TIP3    H238117   0.422   4.093  11.605  1.1769  1.3964  0.7509
 5568TIP3   OH238118   2.018   1.016   1.869  0.1358  0.1171 -0.5372
 5568TIP3    H138119   1.957   1.057   1.807  0.7514  0.8894 -0.6244
 5568TIP3    H238120   1.985   1.041   1.955  1.5490  2.3282 -0.6010
 5569TIP3   OH238121   4.670   3.068   5.952 -0.1047  0.5704 -1.0934
 5569TIP3    H138122   4.749   3.025   5.918 -0.2614  0.4453 -1.2982
 5569TIP3    H238123   4.651   3.021   6.034  0.5272  1.1595 -0.5945
 5570TIP3   OH238124   4.286   3.850   1.363  0.6960  0.3360  0.1776
 5570TIP3    H138125   4.279   3.914   1.292 -0.7359  2.5266  2.1759
 5570TIP3    H238126   4.327   3.899   1.435 -1.7348 -0.4892  2.2321
 5571TIP3   OH238127   5.559   0.006  13.599 -1.0525 -0.4319  0.4460
 5571TIP3    H138128   5.488   0.011  13.536 -0.7125 -1.6819 -0.0593
 5571TIP3    H238129   5.530  -0.059  13.664 -1.6780  1.3226  1.9423
 5572TIP3   OH238130   3.651   4.441   3.055 -0.0113 -0.0097  0.1194
 5572TIP3    H138131   3.648   4.353   3.093 -0.6339  0.5723  1.4398
 5572TIP3    H238132   3.584   4.440   2.987 -0.5879 -0.3213  0.6825
 5573TIP3   OH238133   0.576   5.588   4.703 -0.3513 -0.1338  0.0649
 5573TIP3    H138134   0.649   5.549   4.751 -0.8552  0.5917  1.4464
 5573TIP3    H238135   0.500   5.535   4.727 -0.6399  0.3379  0.1868
 5574TIP3   OH238136   6.040   4.848   6.358 -0.4269 -0.5380  0.0041
 5574TIP3    H138137   6.009   4.887   6.440  0.9951 -1.0055  0.7884
 5574TIP3    H238138   5.987   4.768   6.349 -0.1229 -0.8514  0.8513
 5575TIP3   OH238139   1.660   4.700   4.688  0.2081  0.6368  0.2907
 5575TIP3    H138140   1.623   4.765   4.629  0.0781 -0.3514 -0.7367
 5575TIP3    H238141   1.620   4.617   4.661  0.3527  0.1205  1.5863
 5576TIP3   OH238142   4.915   4.937   2.667  0.0125 -0.3474 -0.1788
 5576TIP3    H138143   4.879   4.976   2.587 -1.4270 -0.0965  0.5708
 5576TIP3    H238144   4.861   4.973   2.737 -0.4209 -2.5787  0.6760
 5577TIP3   OH238145   0.610   6.254  13.528  0.3086 -0.2405  0.3584
 5577TIP3    H138146   0.517   6.279  13.524  0.4206 -0.2581 -3.1983
 5577TIP3    H238147   0.650   6.322  13.583 -1.3236  1.3878 -0.3982
 5578TIP3   OH238148   0.843   4.641  16.920 -0.2871 -0.3053  0.4319
 5578TIP3    H138149   0.909   4.587  16.877 -0.3474  0.3215 -0.4784
 5578TIP3    H238150   0.887   4.725  16.935 -0.5883 -0.1879  0.6683
 5579TIP3   OH238151   5.410   6.176   3.453  0.0722 -0.3697 -0.1498
 5579TIP3    H138152   5.329   6.138   3.486 -2.7215  3.8154 -1.6956
 5579TIP3    H238153   5.407   6.163   3.358 -1.1609  3.7656 -0.7723
 5580TIP3   OH238154   6.231   4.113  14.295  0.1360 -0.2353  0.5295
 5580TIP3    H138155   6.154   4.068  14.329  0.6784  0.1839  2.3933
 5580TIP3    H238156   6.220   4.112  14.200 -1.8066 -0.8019  0.7422
 5581TIP3   OH238157   5.089   0.185   2.373  0.2697  0.8614 -0.3997
 5581TIP3    H138158   5.178   0.165   2.344 -0.1790 -1.1127 -0.5272
 5581TIP3    H238159   5.100   0.229   2.457  1.3895  1.3278 -0.7858
 5582TIP3   OH238160   5.630   5.902   5.231  0.0775 -0.2967 -0.0286
 5582TIP3    H138161   5.703   5.841   5.219  1.9651  1.5466  1.6481
 5582TIP3    H238162   5.633   5.958   5.153 -0.4250 -1.0808 -0.6183
 5583TIP3   OH238163   3.767   2.931  10.655 -0.0518 -0.6212 -0.6720
 5583TIP3    H138164   3.706   2.995  10.619 -2.2927 -2.3308 -0.0136
 5583TIP3    H238165   3.772   2.862  10.590  2.4126  0.1706 -1.4065
 5584TIP3   OH238166   5.153   2.444  16.902  0.5193  0.3452 -0.1168
 5584TIP3    H138167   5.186   2.367  16.948 -0.9876  0.4063  1.1366
 5584TIP3    H238168   5.096   2.408  16.834 -0.1492  0.3162  0.4400
 5585TIP3   OH238169   0.535   1.984   0.925  0.2621  0.9487  0.6702
 5585TIP3    H138170   0.442   1.963   0.924  0.2878  0.8312  0.7086
 5585TIP3    H238171   0.577   1.906   0.962  0.6295  0.0004 -1.6588
 5586TIP3   OH238172   1.853   0.825  12.236  0.1420  0.6374 -0.2409
 5586TIP3    H138173   1.872   0.770  12.160  3.7641  0.8351  0.4577
 5586TIP3    H238174   1.840   0.763  12.308  4.2633  0.5658  0.5554
 5587TIP3   OH238175   5.280   5.353   3.408 -0.0805 -0.0633  0.0875
 5587TIP3    H138176   5.316   5.434   3.444 -1.0390  1.0224 -1.3295
 5587TIP3    H238177   5.354   5.309   3.367  0.9594 -1.1493  3.0357
 5588TIP3   OH238178   3.583   5.205  15.252  0.1648  0.0764  0.7034
 5588TIP3    H138179   3.544   5.210  15.339  0.9229  0.1844  1.0396
 5588TIP3    H238180   3.591   5.112  15.234 -0.6156  0.0508  0.4636
 5589TIP3   OH238181   2.724   0.349   4.862  0.6919  0.4408  0.1074
 5589TIP3    H138182   2.752   0.383   4.947  1.2335  0.3495 -0.0303
 5589TIP3    H238183   2.806   0.337   4.813  0.5120 -1.0895  0.1699
 5590TIP3   OH238184   3.571   1.398   5.868 -0.2818  0.1052 -0.6065
 5590TIP3    H138185   3.555   1.350   5.949  1.8461  1.3838  0.6125
 5590TIP3    H238186   3.532   1.485   5.883 -2.8204 -0.6772 -2.2519
 5591TIP3   OH238187   6.660   4.222  10.805  0.3604 -0.6604 -0.4650
 5591TIP3    H138188   6.717   4.298  10.799  0.2826 -0.5311  0.3175
 5591TIP3    H238189   6.715   4.147  10.781  0.2699 -0.2911 -1.8579
 5592TIP3   OH238190   6.752   1.038   2.020 -0.3410 -0.4702 -0.0049
 5592TIP3    H138191   6.675   0.990   1.990  0.1600  0.7259 -3.4511
 5592TIP3    H238192   6.817   0.971   2.037 -0.8628 -1.2592 -1.0757
 5593TIP3   OH238193   5.189   3.517  14.827 -0.2798  0.4645  0.3510
 5593TIP3    H138194   5.186   3.450  14.759 -4.2710  1.0584 -0.1821
 5593TIP3    H238195   5.158   3.473  14.906 -1.7691  1.3351  0.2768
 5594TIP3   OH238196   0.246   5.373  16.878  0.4085  0.2565 -0.0629
 5594TIP3    H138197   0.165   5.366  16.828  1.4786  0.3400 -1.8589
 5594TIP3    H238198   0.282   5.284  16.877  1.3689  0.6415 -1.0856
 5595TIP3   OH238199   2.622   3.805   0.897  0.3993  0.1534  0.4040
 5595TIP3    H138200   2.698   3.748   0.909  2.1334  1.9193 -1.7216
 5595TIP3    H238201   2.624   3.828   0.804 -1.5137  1.9082  0.7613
 5596TIP3   OH238202   1.927   2.364   3.585 -1.1646 -0.1778  1.2658
 5596TIP3    H138203   1.971   2.334   3.506 -0.7251  0.7504  1.1449
 5596TIP3    H238204   1.997   2.404   3.638 -1.6957  0.4744  1.4862
 5597TIP3   OH238205   5.932   3.109   0.928  0.2445  0.3440 -0.1165
 5597TIP3    H138206   5.936   3.015   0.943 -2.9551 -0.5427 -4.0295
 5597TIP3    H238207   5.871   3.142   0.994 -0.9459 -0.8082 -0.6353
 5598TIP3   OH238208   3.492   0.352   6.041 -0.2184  0.3617 -0.2098
 5598TIP3    H138209   3.532   0.271   6.071  0.3877 -0.3042 -2.6969
 5598TIP3    H238210   3.460   0.332   5.953 -0.4543  2.6915 -0.6901
 5599TIP3   OH238211   3.799   5.338   3.756 -0.7313  0.3211  0.0789
 5599TIP3    H138212   3.873   5.397   3.762 -0.2328 -0.3206  0.2645
 5599TIP3    H238213   3.722   5.395   3.758 -0.2704  0.9083  0.9104
 5600TIP3   OH238214   6.055   4.086   1.745 -0.5959 -0.5610  0.2069
 5600TIP3    H138215   6.149   4.072   1.755 -0.3051  0.3336 -1.1875
 5600TIP3    H238216   6.031   4.140   1.821  0.6571  2.0479 -1.1905
 5601TIP3   OH238217   0.899   0.151  16.656 -0.0930  0.2601 -0.2779
 5601TIP3    H138218   0.932   0.066  16.684  2.7544  1.1670 -0.6840
 5601TIP3    H238219   0.804   0.142  16.657  0.1398 -3.4774 -2.0341
 5602TIP3   OH238220   6.484   6.450  14.387 -0.3922  0.5007  0.1658
 5602TIP3    H138221   6.552   6.515  14.403  0.5390 -0.3397 -0.3310
 5602TIP3    H238222   6.458   6.420  14.474  1.1730 -0.4942  0.3071
 5603TIP3   OH238223   4.327   5.482  11.590 -0.1658 -0.0752  0.2230
 5603TIP3    H138224   4.364   5.404  11.630  0.5589 -0.1886 -0.6489
 5603TIP3    H238225   4.263   5.448  11.527 -0.5979  0.0732  0.5757
 5604TIP3   OH238226   3.469   4.727   4.775 -0.1624 -0.0395  0.0189
 5604TIP3    H138227   3.497   4.656   4.716 -0.3177 -0.5525  0.5625
 5604TIP3    H238228   3.397   4.770   4.727 -1.9469 -1.9797  0.8548
 5605TIP3   OH238229   0.460   4.483  15.843 -0.0234 -0.2031 -0.5702
 5605TIP3    H138230   0.383   4.527  15.806 -0.8349 -0.7415  0.4341
 5605TIP3    H238231   0.502   4.549  15.897  0.8208  0.4057 -1.9566
 5606TIP3   OH238232   6.181   5.804  17.066  0.1181  0.3649  0.2073
 5606TIP3    H138233   6.251   5.799  17.130 -0.1142  1.5744  0.5616
 5606TIP3    H238234   6.137   5.719  17.071 -0.2937  0.6779  2.1045
 5607TIP3   OH238235   3.945   1.953  11.832  0.5172  0.0428  0.4288
 5607TIP3    H138236   3.961   2.023  11.896  2.4182  0.1007 -0.0939
 5607TIP3    H238237   3.974   1.990  11.749 -1.7269 -0.1154 -0.4528
 5608TIP3   OH238238   1.968   4.771  11.024  0.3436  0.1668 -0.0024
 5608TIP3    H138239   1.909   4.845  11.017 -0.5557 -0.6725 -1.4405
 5608TIP3    H238240   2.042   4.804  11.076 -0.8721  1.5206  0.8978
 5609TIP3   OH238241   6.088   4.023  12.841  0.5017  0.4082 -0.3525
 5609TIP3    H138242   6.010   4.064  12.879  0.8182  0.2106  0.5222
 5609TIP3    H238243   6.082   3.931  12.869  0.4779  0.1467 -1.2091
 5610TIP3   OH238244   2.310   1.741  14.443 -0.3346 -0.2049 -0.2308
 5610TIP3    H138245   2.219   1.744  14.413 -0.3707 -0.6384 -0.1776
 5610TIP3    H238246   2.320   1.818  14.498 -1.3546 -1.3692  1.6616
 5611TIP3   OH238247   5.107   4.123  14.667 -0.0452  0.1506  0.4589
 5611TIP3    H138248   5.201   4.127  14.686  0.3455 -1.9822 -0.7520
 5611TIP3    H238249   5.065   4.144  14.750  1.5057  0.8284  1.0983
 5612TIP3   OH238250   3.433   3.924   1.628 -0.3216  0.0910 -0.6697
 5612TIP3    H138251   3.415   4.006   1.673  0.1093 -1.2952  2.1371
 5612TIP3    H238252   3.347   3.882   1.620 -0.2238 -0.2785  0.1477
 5613TIP3   OH238253   4.988   0.386  14.959 -0.1744 -0.0827  0.3863
 5613TIP3    H138254   5.065   0.339  14.928 -1.1786 -2.4271  1.3298
 5613TIP3    H238255   5.019   0.437  15.034  1.0782  1.3891 -1.0897
 5614TIP3   OH238256   5.259   2.308  12.266  0.2649 -0.3664  0.2481
 5614TIP3    H138257   5.347   2.339  12.243 -0.3472  0.6519 -0.7920
 5614TIP3    H238258   5.235   2.360  12.343 -0.2997  0.9785 -0.8066
 5615TIP3   OH238259   4.851   0.289   3.120  0.3321 -0.4651  0.1436
 5615TIP3    H138260   4.903   0.246   3.188  0.7106  1.0523  0.8411
 5615TIP3    H238261   4.789   0.343   3.168 -0.5170 -0.6766 -0.7107
 5616TIP3   OH238262   1.753   1.075  13.546  0.0762  0.4040  0.6881
 5616TIP3    H138263   1.663   1.107  13.551  0.0528  0.4739 -0.0203
 5616TIP3    H238264   1.793   1.101  13.629 -0.4574  0.6830  0.8583
 5617TIP3   OH238265   5.529   6.542  15.949  0.3917 -0.1183 -0.1885
 5617TIP3    H138266   5.518   6.450  15.927  2.0452 -0.0505 -1.3444
 5617TIP3    H238267   5.503   6.589  15.869  0.6922  0.3668 -0.0048
 5618TIP3   OH238268   2.663   5.917  12.933 -0.0946 -0.5170 -0.0394
 5618TIP3    H138269   2.588   5.925  12.992  1.1254  0.8875  1.3817
 5618TIP3    H238270   2.675   5.823  12.920 -2.2409 -0.7437 -0.4979
 5619TIP3   OH238271   0.675   4.550  11.503 -0.5164 -0.0534  0.8882
 5619TIP3    H138272   0.700   4.642  11.513 -2.1398  0.5471 -0.4278
 5619TIP3    H238273   0.586   4.552  11.470  0.3053 -2.0884 -1.6721
 5620TIP3   OH238274   5.369   3.475  15.955 -0.8891 -0.1038 -0.4218
 5620TIP3    H138275   5.302   3.418  15.991 -0.2042 -2.1909 -2.3218
 5620TIP3    H238276   5.323   3.530  15.891 -1.2305  0.2970  0.1614
 5621TIP3   OH238277   5.334   2.218  14.772  0.0819  0.1539 -0.2776
 5621TIP3    H138278   5.302   2.128  14.758  1.1633  0.0711 -2.3219
 5621TIP3    H238279   5.301   2.267  14.697  0.4441  1.2272  0.2618
 5622TIP3   OH238280   4.814   5.728   5.058 -0.1951 -0.4002  0.2826
 5622TIP3    H138281   4.852   5.683   4.982 -1.9454 -2.7354  0.7624
 5622TIP3    H238282   4.736   5.770   5.023  1.7543  2.9447 -0.3086
 5623TIP3   OH238283   5.061   5.856   4.627  0.0834 -0.4657 -0.3138
 5623TIP3    H138284   4.998   5.915   4.586 -0.0063  1.8402  2.8787
 5623TIP3    H238285   5.143   5.905   4.629  0.0635 -0.4508  2.2109
 5624TIP3   OH238286   0.429   5.704  11.625  0.0151 -0.2912 -0.1052
 5624TIP3    H138287   0.394   5.789  11.649  1.3541  0.3094 -0.2078
 5624TIP3    H238288   0.496   5.723  11.559 -0.1062 -1.4741 -0.5883
 5625TIP3   OH238289   3.641   2.726   0.866  0.5474  0.4273  0.4205
 5625TIP3    H138290   3.727   2.764   0.849  0.2484  0.1392 -1.8858
 5625TIP3    H238291   3.589   2.798   0.901  0.2136  1.9955 -3.1706
 5626TIP3   OH238292   2.208   1.053   3.420  0.2789  0.0675  0.2684
 5626TIP3    H138293   2.162   1.126   3.377  1.5698  0.3104 -0.7476
 5626TIP3    H238294   2.284   1.036   3.363  0.3019 -1.6973  0.7972
 5627TIP3   OH238295   2.775   1.822  14.368 -0.0807 -0.0085 -0.2602
 5627TIP3    H138296   2.740   1.759  14.305  2.2056 -1.7730  0.1559
 5627TIP3    H238297   2.740   1.795  14.452 -0.7023  0.5064 -0.3498
 5628TIP3   OH238298   0.250   1.003  15.585  0.3918 -0.2496  0.0716
 5628TIP3    H138299   0.309   0.928  15.597 -0.3224 -0.8593 -0.2363
 5628TIP3    H238300   0.250   1.019  15.491  0.3105 -0.0478  0.1071
 5629TIP3   OH238301   3.818   3.131   0.352  0.1690 -0.1624  0.7386
 5629TIP3    H138302   3.828   3.048   0.399 -0.7509 -1.4890 -1.3635
 5629TIP3    H238303   3.741   3.118   0.296  0.8275  1.6228 -0.6258
 5630TIP3   OH238304   1.549   3.268   1.157  0.2383 -0.1061 -0.3031
 5630TIP3    H138305   1.598   3.292   1.078 -0.3237 -1.5671 -1.0992
 5630TIP3    H238306   1.605   3.204   1.202  1.1791  1.6947  1.2112
 5631TIP3   OH238307   5.152   3.030  14.415  0.7192 -0.3333 -0.3745
 5631TIP3    H138308   5.061   3.057  14.433  0.6885 -0.6457 -0.0508
 5631TIP3    H238309   5.153   2.936  14.434  1.7925  0.1869  2.3715
 5632TIP3   OH238310   4.696   5.967  14.435 -0.1390 -0.2854 -0.7722
 5632TIP3    H138311   4.649   6.049  14.447  0.7646  0.1844 -0.4432
 5632TIP3    H238312   4.710   5.933  14.523  1.3406  0.2570 -0.7902
 5633TIP3   OH238313   4.939   6.016   3.694  0.2094 -0.5646 -0.3965
 5633TIP3    H138314   4.863   6.019   3.753  0.0192  0.6474 -0.6836
 5633TIP3    H238315   4.917   5.948   3.631  0.0973 -1.3753  0.5020
 5634TIP3   OH238316   4.665   1.484  13.952 -0.0154 -0.6074 -0.0987
 5634TIP3    H138317   4.589   1.442  13.912 -1.8922  0.5827  2.0296
 5634TIP3    H238318   4.684   1.559  13.895 -1.2520 -0.1982  0.0135
 5635TIP3   OH238319   4.602   6.385   1.436  0.2552 -0.1421 -0.1885
 5635TIP3    H138320   4.639   6.347   1.515  1.4321 -0.4980 -0.9034
 5635TIP3    H238321   4.512   6.350   1.432  0.8144 -1.6420 -0.0176
 5636TIP3   OH238322   3.274   5.357   0.939 -0.0436 -0.4528 -0.0308
 5636TIP3    H138323   3.369   5.359   0.954 -0.3584  0.9844  1.9359
 5636TIP3    H238324   3.265   5.373   0.845  1.6264  1.1526  0.0313
 5637TIP3   OH238325   4.842   2.143  15.979 -0.4158  0.7511 -0.4126
 5637TIP3    H138326   4.905   2.215  15.987 -1.0064  1.3238 -0.8613
 5637TIP3    H238327   4.835   2.128  15.885 -1.2451  0.9557 -0.3855
 5638TIP3   OH238328   4.361   0.155  14.852 -0.0211  0.6868  0.3239
 5638TIP3    H138329   4.398   0.067  14.846 -0.4112  0.5699 -0.3696
 5638TIP3    H238330   4.369   0.178  14.945  2.6918  1.0522  0.0231
 5639TIP3   OH238331   5.669   4.330  13.550 -0.5815  0.0981 -0.0832
 5639TIP3    H138332   5.636   4.266  13.613  0.1092 -1.6826 -1.4614
 5639TIP3    H238333   5.762   4.308  13.541 -0.8780 -0.3653 -2.4520
 5640TIP3   OH238334   5.059   4.901   1.572 -0.2554 -0.2414 -0.1127
 5640TIP3    H138335   5.118   4.930   1.501  1.3247 -0.1793  1.1858
 5640TIP3    H238336   5.094   4.816   1.599 -1.2615 -0.5771  0.1407
 5641TIP3   OH238337   3.036   5.427   4.034 -0.0267 -0.4232  0.8816
 5641TIP3    H138338   3.041   5.509   4.084  0.4142 -0.0082  0.1810
 5641TIP3    H238339   2.952   5.432   3.987  0.8309  0.4989 -0.6030
 5642TIP3   OH238340   0.281   5.104   3.534 -0.2988 -0.0893  0.0429
 5642TIP3    H138341   0.234   5.059   3.463  0.5605 -1.8804  0.5874
 5642TIP3    H238342   0.244   5.069   3.614 -0.9577  1.6129  0.4990
 5643TIP3   OH238343   2.770   1.638   1.811 -0.0901  0.0541  0.4540
 5643TIP3    H138344   2.796   1.660   1.722 -0.1382 -0.2763  0.3581
 5643TIP3    H238345   2.780   1.720   1.860  0.8182  0.0067  0.3504
 5644TIP3   OH238346   5.061   2.384   2.640 -0.0508  0.1924 -0.2873
 5644TIP3    H138347   5.049   2.436   2.561  0.0018 -1.7626 -1.6092
 5644TIP3    H238348   5.151   2.401   2.667  0.3858 -0.2315 -1.4579
 5645TIP3   OH238349   4.515   5.532   3.515  0.0761 -0.0421 -0.3310
 5645TIP3    H138350   4.501   5.594   3.444 -0.8917 -1.1363 -1.1231
 5645TIP3    H238351   4.599   5.491   3.495  1.7104  2.3699  1.2642
 5646TIP3   OH238352   6.244   1.864  10.858 -0.2401  0.4120  0.7858
 5646TIP3    H138353   6.305   1.863  10.784 -1.5477  0.0878 -0.3004
 5646TIP3    H238354   6.252   1.776  10.896 -1.4804 -0.3042 -0.5705
 5647TIP3   OH238355   1.393   0.307  15.997  0.1101 -0.4281  0.4426
 5647TIP3    H138356   1.422   0.326  15.908  0.5878 -0.6906  0.5409
 5647TIP3    H238357   1.300   0.332  15.998  0.6871  1.8140  0.5352
 5648TIP3   OH238358   2.267   6.481   6.199  0.2479  0.3277 -0.1580
 5648TIP3    H138359   2.327   6.540   6.244  1.1088 -0.9276  0.3614
 5648TIP3    H238360   2.321   6.406   6.174 -0.6196  0.1597 -1.6383
 5649TIP3   OH238361   1.042   2.439  15.274  0.4038 -0.4731  0.2883
 5649TIP3    H138362   1.109   2.507  15.274  0.1207 -0.1888  1.1009
 5649TIP3    H238363   0.973   2.473  15.330 -0.1562 -1.0301 -0.0553
 5650TIP3   OH238364   0.834   2.535  14.398 -0.6544  0.7687 -0.3234
 5650TIP3    H138365   0.783   2.505  14.473  0.4800 -0.0687  0.1295
 5650TIP3    H238366   0.803   2.481  14.325 -0.2186  0.0455  0.0173
 5651TIP3   OH238367   0.869   3.899   5.132 -0.0760  0.2082  0.3585
 5651TIP3    H138368   0.961   3.883   5.153 -0.5283 -1.6616  1.0337
 5651TIP3    H238369   0.820   3.848   5.197 -1.6048  1.5589  0.3161
 5652TIP3   OH238370   1.383   5.712   4.481  0.9038 -0.8612 -0.8813
 5652TIP3    H138371   1.377   5.774   4.408 -5.0788  1.8441  1.5404
 5652TIP3    H238372   1.438   5.756   4.546  0.7573 -0.2777 -1.1480
 5653TIP3   OH238373   1.407   6.221  12.941 -0.2096  0.7638  0.0799
 5653TIP3    H138374   1.390   6.142  12.992  0.5570  1.0939  0.8695
 5653TIP3    H238375   1.420   6.289  13.006  1.8728  0.9757 -0.4962
 5654TIP3   OH238376   2.380   1.594   5.960 -0.5971  0.4543 -0.4126
 5654TIP3    H138377   2.393   1.500   5.973 -1.5770 -0.1143 -3.1601
 5654TIP3    H238378   2.304   1.615   6.014  1.1126  0.2203  2.1696
 5655TIP3   OH238379   6.561   3.544   5.723 -0.3925  0.5670  0.0735
 5655TIP3    H138380   6.513   3.566   5.644 -1.1196  1.1089  0.6572
 5655TIP3    H238381   6.549   3.620   5.781  0.1493  0.1923  0.6872
 5656TIP3   OH238382   6.165   3.002   2.298  0.1133  0.0120 -0.7404
 5656TIP3    H138383   6.138   2.920   2.339  1.7125  0.6405  1.7341
 5656TIP3    H238384   6.209   3.050   2.369  1.8635  1.7042 -2.8982
 5657TIP3   OH238385   4.033   1.972  14.018 -0.3981 -0.0595  0.0617
 5657TIP3    H138386   4.108   1.914  14.005 -0.4892 -0.3409  0.7749
 5657TIP3    H238387   4.069   2.048  14.064 -0.2346  0.5583 -1.0745
 5658TIP3   OH238388   3.944   4.119  13.933  0.0234 -0.2597  0.1366
 5658TIP3    H138389   3.870   4.178  13.925 -0.6989 -1.3504 -1.6239
 5658TIP3    H238390   3.994   4.152  14.008 -0.5957  2.2810 -0.5211
 5659TIP3   OH238391   1.270   4.438   0.115  0.8809  0.4898  0.0562
 5659TIP3    H138392   1.274   4.342   0.115  3.7757  0.5512 -0.3979
 5659TIP3    H238393   1.228   4.461   0.032 -1.8176 -0.3879  1.1299
 5660TIP3   OH238394   6.204   3.464  10.677 -0.0710  0.0215 -0.8148
 5660TIP3    H138395   6.257   3.384  10.674 -0.1211 -0.0702  0.3976
 5660TIP3    H238396   6.124   3.437  10.722  0.9473  1.3195  1.8499
 5661TIP3   OH238397   0.822   3.160  12.084 -0.1843 -0.0642 -0.2424
 5661TIP3    H138398   0.866   3.169  12.000  0.0565  0.9569 -0.0066
 5661TIP3    H238399   0.892   3.165  12.149 -0.3469 -1.0298  0.0225
 5662TIP3   OH238400   1.164   4.120   0.073  0.2984  0.4266 -0.0390
 5662TIP3    H138401   1.166   4.076   0.158 -1.9808  1.0001  0.3373
 5662TIP3    H238402   1.073   4.112   0.044  1.4055 -1.3063 -3.2462
 5663TIP3   OH238403   0.459   5.108   5.609  0.4215 -0.0852  0.3805
 5663TIP3    H138404   0.368   5.092   5.581  0.2982  0.4742  0.4490
 5663TIP3    H238405   0.481   5.032   5.662  0.1068 -0.3912  0.0762
 5664TIP3   OH238406   3.914   4.606   5.395  0.5289  0.2378 -0.2611
 5664TIP3    H138407   3.914   4.596   5.300  2.6211  0.0482 -0.2498
 5664TIP3    H238408   3.883   4.522   5.428  0.8703 -0.0678 -0.7241
 5665TIP3   OH238409   0.052   6.336   0.600  0.0677 -0.6998 -0.6185
 5665TIP3    H138410   0.042   6.398   0.529 -1.2459  0.4918  0.5762
 5665TIP3    H238411   0.112   6.379   0.661 -4.6208  1.7308  2.6145
 5666TIP3   OH238412   2.461   4.771   5.556 -0.1238 -0.0513 -0.7086
 5666TIP3    H138413   2.458   4.739   5.646 -0.0171  1.9239  0.0124
 5666TIP3    H238414   2.370   4.769   5.526 -0.2270 -0.2037 -0.3837
 5667TIP3   OH238415   2.010   0.055  14.554  0.0364 -0.3039  0.4529
 5667TIP3    H138416   2.055   0.136  14.577 -1.2156  0.4344  0.3233
 5667TIP3    H238417   2.007   0.056  14.458  0.6491 -0.8579  0.4215
 5668TIP3   OH238418   0.313   3.414   1.864 -0.7252 -0.4734  0.1042
 5668TIP3    H138419   0.265   3.347   1.912 -1.7061 -1.0595 -1.6464
 5668TIP3    H238420   0.386   3.368   1.823 -0.0184 -0.0190  0.8403
 5669TIP3   OH238421   2.243   3.285   4.725 -0.4123  0.0119  0.0542
 5669TIP3    H138422   2.247   3.363   4.780 -1.8819  0.1198  0.0344
 5669TIP3    H238423   2.306   3.302   4.655 -0.0255  0.7610  0.5739
 5670TIP3   OH238424   6.267   0.503  12.246  0.2392 -0.1287 -0.3977
 5670TIP3    H138425   6.361   0.491  12.234  0.2653 -0.1653 -0.1654
 5670TIP3    H238426   6.257   0.594  12.274  0.0458  0.3724 -2.0798
 5671TIP3   OH238427   6.309   0.557  15.380  0.4962  0.0493  0.2149
 5671TIP3    H138428   6.400   0.542  15.405 -0.1852  1.8169  3.9402
 5671TIP3    H238429   6.309   0.643  15.338  0.5807 -0.1473 -0.1979
 5672TIP3   OH238430   1.909   2.974  12.985 -0.2466 -0.3872 -0.6638
 5672TIP3    H138431   1.924   2.930  12.901  0.1959  1.6405 -1.6784
 5672TIP3    H238432   1.869   3.057  12.961  1.2577  0.8497  1.0496
 5673TIP3   OH238433   6.033   5.912  11.938  0.2996 -0.0348  0.1789
 5673TIP3    H138434   5.944   5.910  11.973  0.6963 -0.7636  1.1267
 5673TIP3    H238435   6.086   5.950  12.008  0.3357  2.8022 -1.2879
 5674TIP3   OH238436   4.513   0.978  11.259 -0.1026 -0.2628 -0.7914
 5674TIP3    H138437   4.549   0.906  11.208  0.4711 -1.9510  1.8680
 5674TIP3    H238438   4.554   1.056  11.224  1.5862 -1.5543 -1.7578
 5675TIP3   OH238439   5.864   5.851   4.067 -0.6953  0.4259 -0.4024
 5675TIP3    H138440   5.846   5.945   4.078 -2.4226 -0.1541  2.2493
 5675TIP3    H238441   5.780   5.809   4.086  1.0077 -1.8606  2.3706
 5676TIP3   OH238442   6.513   0.906   2.868  0.4421 -0.2787 -0.4895
 5676TIP3    H138443   6.451   0.863   2.927  0.4919 -1.5332 -1.3241
 5676TIP3    H238444   6.482   0.997   2.864 -0.0778 -0.3809  0.7590
 5677TIP3   OH238445   6.041   1.160   3.734  0.3323 -0.0191 -0.4270
 5677TIP3    H138446   6.022   1.238   3.681  4.5633 -0.1881 -2.4005
 5677TIP3    H238447   6.057   1.194   3.822  0.0993  1.0703 -0.7918
 5678TIP3   OH238448   6.327   4.912  11.287  0.1907 -0.8349 -0.4185
 5678TIP3    H138449   6.257   4.926  11.223  0.2454 -0.2617 -0.3577
 5678TIP3    H238450   6.365   4.828  11.263  0.6129 -0.3403 -1.5208
 5679TIP3   OH238451   3.211   0.935  14.996 -0.5581 -0.1123  0.0078
 5679TIP3    H138452   3.223   0.891  14.912 -0.2135 -0.1029  0.0544
 5679TIP3    H238453   3.298   0.936  15.036 -0.7990 -0.4992  0.5529
 5680TIP3   OH238454   6.541   0.374  12.800 -0.0531  0.0731 -0.3876
 5680TIP3    H138455   6.588   0.400  12.720 -1.3450  1.8355 -0.5859
 5680TIP3    H238456   6.603   0.317  12.846  2.7433  3.1358 -0.1320
 5681TIP3   OH238457   2.581   4.718   3.984 -0.3732  0.5394 -0.4951
 5681TIP3    H138458   2.630   4.722   3.901 -2.0698  0.7646 -1.5182
 5681TIP3    H238459   2.578   4.809   4.014  0.9439  0.3509  0.2626
 5682TIP3   OH238460   5.371   4.832  11.690 -0.0411  0.7296  0.3700
 5682TIP3    H138461   5.286   4.824  11.733 -1.2393  0.7741 -1.9095
 5682TIP3    H238462   5.364   4.775  11.613  1.8830  0.9976 -0.0226
 5683TIP3   OH238463   2.021   4.749  12.369  0.5109  0.4186 -0.1937
 5683TIP3    H138464   1.986   4.747  12.459  0.2651 -0.6907 -0.3104
 5683TIP3    H238465   2.116   4.754  12.381  0.5471 -0.9183  0.1348
 5684TIP3   OH238466   1.252   4.819   1.603 -0.1336 -0.0441  0.3918
 5684TIP3    H138467   1.220   4.837   1.514  1.1639  0.1201 -0.0578
 5684TIP3    H238468   1.267   4.906   1.641  2.2288 -0.0982 -0.3287
 5685TIP3   OH238469   4.460   0.299  12.831  0.5400  0.1834  0.0807
 5685TIP3    H138470   4.499   0.385  12.848  0.9895  0.0065 -0.0471
 5685TIP3    H238471   4.398   0.286  12.903 -1.6013  1.8485 -1.3819
 5686TIP3   OH238472   5.391   3.751   2.745 -0.1251 -0.2923 -0.1625
 5686TIP3    H138473   5.399   3.839   2.783  1.3193 -1.6643  2.9016
 5686TIP3    H238474   5.480   3.716   2.746 -0.3180 -1.0171 -3.4317
 5687TIP3   OH238475   2.613   1.803   1.063  0.4063  0.4907  0.3467
 5687TIP3    H138476   2.589   1.870   1.128 -0.9731  0.6223 -0.2775
 5687TIP3    H238477   2.640   1.853   0.986 -0.0573  0.3379  0.0815
 5688TIP3   OH238478   6.604   4.833   1.677  0.7476 -0.1185 -0.3795
 5688TIP3    H138479   6.574   4.887   1.603 -0.9878 -1.6049 -0.7944
 5688TIP3    H238480   6.686   4.794   1.646  2.5531  2.9480  0.2750
 5689TIP3   OH238481   6.679   4.623  14.639  0.8954  0.2365 -0.1734
 5689TIP3    H138482   6.587   4.601  14.628  0.6714  0.9472  0.2406
 5689TIP3    H238483   6.726   4.546  14.609  0.1799  0.0947 -0.9560
 5690TIP3   OH238484   0.660   1.748  13.442  0.3183 -0.0808 -0.8079
 5690TIP3    H138485   0.597   1.685  13.407 -0.1836 -0.0042 -0.0524
 5690TIP3    H238486   0.746   1.709  13.423  0.0065 -1.4528  0.4884
 5691TIP3   OH238487   6.251   0.746  12.353  0.1027  0.1001  0.3289
 5691TIP3    H138488   6.177   0.806  12.360 -0.5367 -0.7333  0.7366
 5691TIP3    H238489   6.286   0.741  12.442 -0.4523 -0.9042  0.4865
 5692TIP3   OH238490   3.417   5.223   4.905 -0.6010 -0.2737  0.5370
 5692TIP3    H138491   3.336   5.216   4.854 -1.3435  0.5497  1.5931
 5692TIP3    H238492   3.487   5.207   4.841 -1.4298  2.3549 -1.1102
 5693TIP3   OH238493   0.557   4.259  13.431 -0.2623 -0.0747  0.3436
 5693TIP3    H138494   0.650   4.258  13.407 -0.5179 -0.3420 -0.6490
 5693TIP3    H238495   0.557   4.270  13.526  0.8251 -1.8648  0.5679
 5694TIP3   OH238496   3.529   4.711   5.223  0.1642  0.6822  0.1006
 5694TIP3    H138497   3.604   4.745   5.273 -0.1506  0.8789  0.4355
 5694TIP3    H238498   3.460   4.776   5.235 -0.0558  0.5143 -0.2348
 5695TIP3   OH238499   0.118   2.511  13.691  0.0682 -0.7649  0.2484
 5695TIP3    H138500   0.096   2.422  13.718  0.8580 -0.9433  0.3009
 5695TIP3    H238501   0.213   2.512  13.685  0.0301 -0.0807 -0.3018
 5696TIP3   OH238502   5.552   2.428   1.250 -0.0354 -0.2670  0.0132
 5696TIP3    H138503   5.532   2.376   1.328 -1.9964  1.0287  0.4032
 5696TIP3    H238504   5.646   2.446   1.257 -0.2534  0.1199  2.2448
 5697TIP3   OH238505   3.429   5.904  13.874  0.8310  0.1500 -0.0625
 5697TIP3    H138506   3.365   5.873  13.810 -0.8095  1.0740  1.0933
 5697TIP3    H238507   3.513   5.874  13.840  0.0285  0.8129 -2.7949
 5698TIP3   OH238508   3.271   1.344  11.691 -0.0014 -0.1471  0.0816
 5698TIP3    H138509   3.315   1.353  11.775 -0.8830  2.4252  0.3053
 5698TIP3    H238510   3.343   1.341  11.627  0.6085  0.3117  0.7382
 5699TIP3   OH238511   2.833   4.531  13.876  0.2013 -0.2911 -0.1262
 5699TIP3    H138512   2.782   4.494  13.804 -1.9875 -0.0006  1.2412
 5699TIP3    H238513   2.798   4.489  13.954  0.0880  2.0588  1.1182
 5700TIP3   OH238514   3.726   4.136  13.551 -0.6745  0.0212 -0.0536
 5700TIP3    H138515   3.686   4.201  13.611 -2.0095 -0.3318 -0.5353
 5700TIP3    H238516   3.795   4.184  13.506  0.5980  0.2081  2.0191
 5701TIP3   OH238517   3.219   2.967  10.570 -0.4101  0.2706  0.3515
 5701TIP3    H138518   3.281   2.998  10.636 -0.2109  1.3779 -0.3318
 5701TIP3    H238519   3.206   3.043  10.513  1.0387 -1.2778 -2.1051
 5702TIP3   OH238520   5.560   0.339   2.350 -0.3762  0.6395  0.1480
 5702TIP3    H138521   5.518   0.352   2.435  0.2472  0.8688  0.4265
 5702TIP3    H238522   5.648   0.375   2.361  0.1543 -0.5272 -0.1872
 5703TIP3   OH238523   6.714   1.543  11.150 -0.2955 -0.0103 -0.0218
 5703TIP3    H138524   6.795   1.496  11.127 -1.7436 -0.9693 -3.5137
 5703TIP3    H238525   6.724   1.629  11.109  0.1618  0.9079  1.9969
 5704TIP3   OH238526   0.162   4.420   2.014  0.2654 -0.5273  0.0420
 5704TIP3    H138527   0.085   4.474   2.028  0.8126  0.1045  0.6860
 5704TIP3    H238528   0.197   4.450   1.930 -0.5397 -1.2544 -0.5599
 5705TIP3   OH238529   3.511   5.880   5.779 -0.0713  0.2651  0.0734
 5705TIP3    H138530   3.516   5.789   5.750 -3.6904  0.1634 -0.5310
 5705TIP3    H238531   3.543   5.879   5.869 -1.0478 -1.8141  0.4291
 5706TIP3   OH238532   0.895   0.631   3.351 -0.7172 -0.3957  0.4802
 5706TIP3    H138533   0.950   0.673   3.417  0.6304 -2.7801  0.9338
 5706TIP3    H238534   0.935   0.654   3.268  0.6554 -1.6416  0.7811
 5707TIP3   OH238535   6.620   2.662  12.094  0.1904  0.3185 -0.1712
 5707TIP3    H138536   6.609   2.694  12.184  0.3224 -0.0444 -0.0257
 5707TIP3    H238537   6.711   2.632  12.090 -0.4823 -1.8894  0.2870
 5708TIP3   OH238538   5.780   5.638  16.044 -0.1563 -0.1882 -0.6177
 5708TIP3    H138539   5.832   5.623  15.965 -0.2720 -1.6683 -0.4294
 5708TIP3    H238540   5.779   5.554  16.088  0.4159  0.7830  1.2933
 5709TIP3   OH238541   1.673   6.010   5.112  0.4711  0.4949  0.1499
 5709TIP3    H138542   1.714   6.082   5.159 -0.4107  0.7679  0.5159
 5709TIP3    H238543   1.652   6.045   5.026 -2.4574  1.5769  1.2158
 5710TIP3   OH238544   6.507   1.818  12.650 -0.1122 -0.0345  0.8882
 5710TIP3    H138545   6.467   1.815  12.563  0.6581 -1.6028  0.5804
 5710TIP3    H238546   6.577   1.753  12.647  1.7803  1.9117  1.7650
 5711TIP3   OH238547   0.261   1.599  13.138  0.7164  0.3684  0.0008
 5711TIP3    H138548   0.217   1.515  13.123  0.1868  1.0968 -2.7921
 5711TIP3    H238549   0.320   1.582  13.212 -0.3742 -2.0766  0.3643
 5712TIP3   OH238550   4.314   3.247  13.612 -0.6327  0.0790  0.5285
 5712TIP3    H138551   4.303   3.341  13.625 -0.0835  0.3275 -0.6941
 5712TIP3    H238552   4.331   3.212  13.699  0.2304  1.2651  0.8451
 5713TIP3   OH238553   3.700   5.931  13.410 -0.1471 -0.3937 -0.2692
 5713TIP3    H138554   3.727   6.017  13.378 -0.0569 -0.5453 -0.6057
 5713TIP3    H238555   3.673   5.884  13.331 -0.9259 -0.4114  0.0047
 5714TIP3   OH238556   6.012   2.809  14.715 -0.2316 -0.1786 -0.0595
 5714TIP3    H138557   6.044   2.886  14.668 -0.1414 -0.7513 -0.9482
 5714TIP3    H238558   6.088   2.752  14.722 -0.7394 -1.0097 -1.0873
 5715TIP3   OH238559   6.542   2.133  11.979 -0.2706 -0.2613  0.0622
 5715TIP3    H138560   6.532   2.211  11.925  1.6456 -0.5728 -0.7905
 5715TIP3    H238561   6.582   2.165  12.060  2.3199 -0.5549 -1.0299
 5716TIP3   OH238562   0.156   4.542   1.401  0.1568 -0.3202  0.0147
 5716TIP3    H138563   0.072   4.496   1.401 -0.3105  0.4285 -3.0902
 5716TIP3    H238564   0.217   4.480   1.361  0.2043  0.6223 -1.3673
 5717TIP3   OH238565   0.122   5.911  15.348  0.1587 -0.5971 -0.6370
 5717TIP3    H138566   0.126   5.994  15.396  1.2225 -1.7709  1.3655
 5717TIP3    H238567   0.152   5.933  15.260 -2.8418  1.8301 -1.1551
 5718TIP3   OH238568   5.498   0.880   4.254 -0.0476 -0.4554  0.2599
 5718TIP3    H138569   5.516   0.937   4.179 -1.0722  0.3947  0.6462
 5718TIP3    H238570   5.550   0.801   4.238  0.0807 -0.0931 -1.1170
 5719TIP3   OH238571   4.868   1.575  12.083  0.6012 -0.1539  0.7866
 5719TIP3    H138572   4.856   1.629  12.005 -1.2562  1.5809  2.2202
 5719TIP3    H238573   4.807   1.612  12.147  2.0466 -1.5791  3.0417
 5720TIP3   OH238574   0.129   5.639  12.850 -0.0182  0.0300 -0.2885
 5720TIP3    H138575   0.210   5.687  12.839  0.0574 -0.0401 -0.0428
 5720TIP3    H238576   0.090   5.675  12.930  0.0681 -0.3534 -0.0719
 5721TIP3   OH238577   4.180   3.951  16.588  0.2311  0.0558 -0.5081
 5721TIP3    H138578   4.274   3.965  16.598 -0.1285  0.6559  2.5063
 5721TIP3    H238579   4.169   3.856  16.596  0.6625 -0.1318 -1.9609
 5722TIP3   OH238580   3.519   3.274  13.143 -0.6160 -0.1317  0.0995
 5722TIP3    H138581   3.548   3.209  13.079 -0.8693 -0.3141  0.1668
 5722TIP3    H238582   3.567   3.252  13.222 -3.9556 -3.0620  1.4659
 5723TIP3   OH238583   2.897   3.876   1.243 -0.4970  0.6841 -0.2041
 5723TIP3    H138584   2.890   3.809   1.175 -0.0840 -1.0142  1.3963
 5723TIP3    H238585   2.876   3.830   1.324  1.5636  2.0463  1.1468
 5724TIP3   OH238586   4.874   2.706  13.185 -0.3083  0.5138  0.1458
 5724TIP3    H138587   4.817   2.635  13.155 -2.0409  0.7327  2.7718
 5724TIP3    H238588   4.943   2.661  13.235  1.0821  0.3567 -1.8855
 5725TIP3   OH238589   6.393   5.856  12.874 -1.0087  0.3650  0.3303
 5725TIP3    H138590   6.320   5.804  12.841  1.3153 -3.2678  0.6612
 5725TIP3    H238591   6.454   5.862  12.800  0.4116 -0.5960  1.3975
 5726TIP3   OH238592   6.295   4.288   4.129  0.1114 -0.7488 -0.3739
 5726TIP3    H138593   6.351   4.219   4.164 -0.1153 -0.5290  0.4307
 5726TIP3    H238594   6.237   4.243   4.068 -0.6286 -1.4166  0.8133
 5727TIP3   OH238595   5.096   4.284   3.109 -0.2937 -0.5458 -0.6303
 5727TIP3    H138596   5.025   4.277   3.172 -0.3983  0.4653 -0.6282
 5727TIP3    H238597   5.131   4.372   3.122  0.0280 -0.5227 -1.6147
 5728TIP3   OH238598   5.740   0.288  12.275 -0.4852  0.0333 -0.1052
 5728TIP3    H138599   5.723   0.380  12.259  2.6494  0.2810 -2.6401
 5728TIP3    H238600   5.799   0.287  12.351 -0.2594  0.1583 -0.2786
 5729TIP3   OH238601   1.764   0.205  13.088  0.5616  0.1710 -0.7521
 5729TIP3    H138602   1.746   0.284  13.139 -1.0635 -0.6746  0.0336
 5729TIP3    H238603   1.856   0.186  13.104  0.7514  1.4332 -0.2952
 5730TIP3   OH238604   5.698   1.803  14.588  0.2305 -0.1209 -0.5870
 5730TIP3    H138605   5.616   1.839  14.621 -0.5360 -1.0365 -1.4590
 5730TIP3    H238606   5.761   1.874  14.596 -0.1584 -0.0221  1.9628
 5731TIP3   OH238607   0.746   4.580   4.545  1.0686  0.0506 -0.2992
 5731TIP3    H138608   0.664   4.536   4.570  1.0870  0.4406  0.4747
 5731TIP3    H238609   0.722   4.673   4.539  1.5897  0.2462  0.5448
 5732TIP3   OH238610   6.752   6.057  15.572  0.0279  0.1386 -0.2511
 5732TIP3    H138611   6.673   6.054  15.626 -1.2608 -0.1014 -2.1333
 5732TIP3    H238612   6.731   6.118  15.502  1.9789  1.0479 -0.0737
 5733TIP3   OH238613   2.287   6.014  16.284 -0.3266 -0.5291  0.2259
 5733TIP3    H138614   2.195   6.032  16.303 -0.2184  0.0210  0.2237
 5733TIP3    H238615   2.289   5.998  16.190 -0.2420  0.5431  0.0439
 5734TIP3   OH238616   0.194   6.667   1.081  0.1205  0.1261 -0.1810
 5734TIP3    H138617   0.140   6.739   1.114  0.0342  0.5426 -1.2137
 5734TIP3    H238618   0.150   6.639   1.000  0.0878 -1.1699  0.2803
 5735TIP3   OH238619   2.711   3.278   0.566  0.2279 -0.2433  0.2855
 5735TIP3    H138620   2.633   3.234   0.599 -0.5615 -1.0300 -2.4434
 5735TIP3    H238621   2.677   3.357   0.523  1.1550  0.4604  0.8318
 5736TIP3   OH238622   2.877   5.707   1.571  0.7218 -0.3151  0.2321
 5736TIP3    H138623   2.850   5.653   1.496 -0.2501  0.4488  0.0189
 5736TIP3    H238624   2.813   5.686   1.639  0.5458  0.2909  0.2599
 5737TIP3   OH238625   5.193   4.519   5.477 -0.0648 -0.1611  0.4490
 5737TIP3    H138626   5.263   4.568   5.433 -0.5592  0.5321  0.4215
 5737TIP3    H238627   5.239   4.451   5.526  0.3762 -2.0001 -2.4243
 5738TIP3   OH238628   3.326   2.681   2.059  0.0105 -0.2465  0.2265
 5738TIP3    H138629   3.269   2.604   2.066  1.6876 -1.3965  1.9305
 5738TIP3    H238630   3.292   2.741   2.125 -0.4404 -0.0967 -0.1378
 5739TIP3   OH238631   2.680   6.733   1.274 -0.4237  0.1165 -0.5079
 5739TIP3    H138632   2.732   6.769   1.203 -0.1422 -0.9843 -0.8738
 5739TIP3    H238633   2.702   6.788   1.350  2.5906 -1.3143 -0.2434
 5740TIP3   OH238634   4.427   5.005   5.531 -0.1361 -0.1067  0.1706
 5740TIP3    H138635   4.371   5.080   5.510  1.2061  0.6059 -0.9822
 5740TIP3    H238636   4.373   4.949   5.586 -2.1358  0.3321 -1.2975
 5741TIP3   OH238637   3.011   6.673  12.911 -1.0635 -0.7966  0.3781
 5741TIP3    H138638   3.095   6.694  12.954 -0.5776  1.9898 -1.7813
 5741TIP3    H238639   2.946   6.682  12.981  0.0104  0.9713  1.1860
 5742TIP3   OH238640   2.604   0.784  14.001  0.3080  0.1140 -0.4383
 5742TIP3    H138641   2.604   0.688  13.997  0.8315  0.0816  0.2781
 5742TIP3    H238642   2.675   0.806  14.062 -0.9277  0.8997  0.7608
 5743TIP3   OH238643   2.302   3.396  12.084 -0.1264  0.1612  0.2674
 5743TIP3    H138644   2.270   3.309  12.107 -1.5940  0.2489 -1.3812
 5743TIP3    H238645   2.269   3.412  11.996  2.0337  1.4656 -0.3405
 5744TIP3   OH238646   0.383   1.441  14.099  0.2033  0.0891 -0.2404
 5744TIP3    H138647   0.313   1.433  14.034  1.5788  0.9729 -1.8718
 5744TIP3    H238648   0.353   1.511  14.158 -0.5976 -0.0250 -0.5114
 5745TIP3   OH238649   1.934   6.558  10.710 -0.5433 -0.3916 -0.2658
 5745TIP3    H138650   1.888   6.628  10.755 -0.4883 -0.6554  0.2057
 5745TIP3    H238651   1.876   6.532  10.638 -0.5698  0.1197 -0.4339
 5746TIP3   OH238652   5.799   6.215   2.348 -0.3749 -0.5543  0.1718
 5746TIP3    H138653   5.817   6.168   2.266 -1.0101  0.6105 -0.6538
 5746TIP3    H238654   5.882   6.211   2.396  0.2728 -0.5064 -0.9087
 5747TIP3   OH238655   1.484   2.545   1.584 -0.0256 -0.1681 -0.2942
 5747TIP3    H138656   1.494   2.452   1.606  1.2871  0.3670  1.5608
 5747TIP3    H238657   1.541   2.590   1.647 -1.1771  1.9387 -0.7213
 5748TIP3   OH238658   6.717   2.141   2.640 -0.5697 -0.3803 -0.5836
 5748TIP3    H138659   6.690   2.079   2.708 -0.2098 -0.7173 -0.7477
 5748TIP3    H238660   6.807   2.115   2.618 -0.0195  0.8778  0.1365
 5749TIP3   OH238661   3.374   6.003   6.032  0.0839  0.5120  0.2063
 5749TIP3    H138662   3.458   6.028   6.070  0.4507  2.4146 -1.8096
 5749TIP3    H238663   3.333   5.948   6.099  2.9683 -0.5439  1.1636
 5750TIP3   OH238664   5.427   6.259   2.857 -0.2509 -0.3192 -0.0197
 5750TIP3    H138665   5.480   6.267   2.778 -0.9554 -0.3309 -0.4939
 5750TIP3    H238666   5.485   6.290   2.927 -1.0481  3.9567 -1.0857
 5751TIP3   OH238667   2.276   3.351  15.138  0.4094  0.2171 -0.2900
 5751TIP3    H138668   2.297   3.336  15.230 -2.3759  0.6408  0.4472
 5751TIP3    H238669   2.285   3.446  15.127  1.1081  0.1221 -0.5588
 5752TIP3   OH238670   4.191   5.735  12.122  0.0344 -0.0221 -0.3860
 5752TIP3    H138671   4.165   5.804  12.062  0.1200  1.6662  1.4563
 5752TIP3    H238672   4.109   5.701  12.157  0.0312 -0.0775 -0.4488
 5753TIP3   OH238673   0.675   3.669  16.229  0.1700  0.0426  0.4414
 5753TIP3    H138674   0.638   3.713  16.306  0.3556  1.8926 -0.5139
 5753TIP3    H238675   0.599   3.631  16.185  0.0578 -1.0165  1.5025
 5754TIP3   OH238676   0.747   4.771   5.923  0.0678  0.3887 -0.5112
 5754TIP3    H138677   0.728   4.700   5.862 -2.9402  2.4948 -2.1518
 5754TIP3    H238678   0.701   4.747   6.003  0.0968 -0.1116 -0.6410
 5755TIP3   OH238679   3.695   3.792   5.451  0.4496  0.1069  0.5646
 5755TIP3    H138680   3.755   3.735   5.403 -2.1212 -2.0153 -0.2181
 5755TIP3    H238681   3.707   3.879   5.412  2.4535 -0.4339 -0.0614
 5756TIP3   OH238682   6.515   5.056   5.014 -0.4546  0.1703  0.5905
 5756TIP3    H138683   6.450   5.029   5.079  0.9549 -2.0398  1.1571
 5756TIP3    H238684   6.595   5.010   5.040 -0.1835 -1.9008 -3.4690
 5757TIP3   OH238685   6.639   0.563   2.698 -0.3538  0.1504 -0.2308
 5757TIP3    H138686   6.684   0.610   2.769  0.5114  1.1040 -1.3981
 5757TIP3    H238687   6.581   0.629   2.660 -0.9957 -0.4307 -0.2719
 5758TIP3   OH238688   4.380   5.423   3.087 -0.1843  0.2811  0.4968
 5758TIP3    H138689   4.431   5.467   3.155  0.7664 -1.2780  0.8248
 5758TIP3    H238690   4.293   5.462   3.093  0.8157  2.6273  0.2687
 5759TIP3   OH238691   3.055   3.264   4.985  0.1183  0.5974  0.3700
 5759TIP3    H138692   3.117   3.283   5.055  1.3619 -1.3635 -0.1378
 5759TIP3    H238693   3.084   3.318   4.912 -0.1768  1.4063  0.8460
 5760TIP3   OH238694   4.896   5.167  12.507 -0.0711 -0.3007  0.1124
 5760TIP3    H138695   4.898   5.147  12.601  2.7885  0.4967  0.2802
 5760TIP3    H238696   4.883   5.261  12.503 -0.3295 -0.3551 -0.2973
 5761TIP3   OH238697   2.200   2.586   0.824  0.2010 -0.6021  0.5166
 5761TIP3    H138698   2.179   2.678   0.807 -2.1570 -1.0274  0.9988
 5761TIP3    H238699   2.257   2.589   0.902 -0.6394  0.3951  1.1132
 5762TIP3   OH238700   0.533   4.161  14.354  0.0506 -0.0422 -0.1186
 5762TIP3    H138701   0.593   4.231  14.330  1.9023 -1.8369 -0.8410
 5762TIP3    H238702   0.456   4.206  14.388  1.7135  2.3122  0.6456
 5763TIP3   OH238703   3.048   2.471  13.912  0.0337  0.1820 -0.2229
 5763TIP3    H138704   3.116   2.460  13.978  0.1900  0.4299 -0.3409
 5763TIP3    H238705   3.095   2.474  13.829  0.3712  4.9557 -0.0133
 5764TIP3   OH238706   3.050   2.402  13.555  0.3695 -0.1536 -0.1077
 5764TIP3    H138707   3.091   2.483  13.526  0.5066 -0.5033 -0.8996
 5764TIP3    H238708   3.054   2.345  13.479  0.8012 -1.1150  0.6331
 5765TIP3   OH238709   3.593   1.871  17.150  0.4240 -0.4376  0.0638
 5765TIP3    H138710   3.610   1.840  17.239 -0.2594 -0.9551  0.0131
 5765TIP3    H238711   3.672   1.847  17.101  0.8837  0.0181  0.5662
 5766TIP3   OH238712   4.698   4.893  16.929  0.1376  0.1986 -0.1584
 5766TIP3    H138713   4.624   4.848  16.971  0.3196 -0.3008 -0.3715
 5766TIP3    H238714   4.758   4.823  16.904  0.7796  0.6225  0.1913
 5767TIP3   OH238715   0.822   1.749  14.013 -0.7117 -0.1391 -0.3965
 5767TIP3    H138716   0.812   1.735  13.919 -1.7703 -0.3173 -0.2604
 5767TIP3    H238717   0.765   1.683  14.053  1.0058 -1.1771  0.3978
 5768TIP3   OH238718   3.175   2.871   3.749 -0.6540  0.0255  0.0532
 5768TIP3    H138719   3.128   2.866   3.832 -1.6014 -0.1269 -0.4919
 5768TIP3    H238720   3.246   2.808   3.758 -1.5240 -0.9339  0.2584
 5769TIP3   OH238721   3.832   4.108   0.320  0.1718  0.8849  0.2354
 5769TIP3    H138722   3.869   4.179   0.268  2.1764  0.1656  0.6638
 5769TIP3    H238723   3.820   4.146   0.407  0.9952  0.7682  0.3969
 5770TIP3   OH238724   1.778   0.661   5.907 -0.8438 -0.6976  0.3706
 5770TIP3    H138725   1.824   0.651   5.824 -1.3657  0.7288 -0.0883
 5770TIP3    H238726   1.783   0.754   5.927 -1.5152 -0.8883  1.4906
 5771TIP3   OH238727   1.693   2.109   3.180  0.1308 -0.7769  0.2442
 5771TIP3    H138728   1.778   2.066   3.182  0.6151  0.0227 -2.1101
 5771TIP3    H238729   1.642   2.059   3.116 -0.4337  0.0961  0.0006
 5772TIP3   OH238730   4.429   6.205   1.981 -0.2068 -0.0495  0.3044
 5772TIP3    H138731   4.495   6.251   1.929 -0.2346 -0.2299  0.1097
 5772TIP3    H238732   4.441   6.239   2.070  1.2782 -1.3278  0.6161
 5773TIP3   OH238733   1.678   5.286  14.342  0.0480  0.6143  0.4422
 5773TIP3    H138734   1.662   5.374  14.308 -0.4997 -0.6379 -2.7389
 5773TIP3    H238735   1.590   5.249  14.354  0.2074  1.3001  4.1098
 5774TIP3   OH238736   6.423   2.985  15.672 -0.2242 -0.0763  0.3140
 5774TIP3    H138737   6.411   3.046  15.744  0.4244  0.0375  0.3324
 5774TIP3    H238738   6.518   2.982  15.659 -0.2804 -0.7602  0.0380
 5775TIP3   OH238739   5.579   1.785   5.340 -0.6567  0.2659 -0.4784
 5775TIP3    H138740   5.613   1.875   5.340 -0.8144  0.3319  0.9549
 5775TIP3    H238741   5.540   1.774   5.253 -3.6440  2.7400  0.4479
 5776TIP3   OH238742   3.031   4.218   2.075  0.7353  0.0047  0.4429
 5776TIP3    H138743   3.027   4.313   2.064  2.5518  0.0005 -0.5191
 5776TIP3    H238744   2.991   4.183   1.995  0.5229 -0.0329  0.5664
 5777TIP3   OH238745   0.048   1.435   3.493  0.2137 -0.3895 -0.2169
 5777TIP3    H138746  -0.048   1.437   3.489  0.2906 -0.0565 -3.5793
 5777TIP3    H238747   0.072   1.518   3.534 -0.9086  0.0142 -0.3711
 5778TIP3   OH238748   1.131   2.855  11.404 -0.3317 -0.1462  0.3513
 5778TIP3    H138749   1.043   2.823  11.387 -0.4462  0.6527 -0.6379
 5778TIP3    H238750   1.145   2.923  11.338 -0.0317  1.7086  2.2678
 5779TIP3   OH238751   0.821   0.510  11.393  0.6620  0.4123 -0.0632
 5779TIP3    H138752   0.878   0.433  11.396 -0.7608 -0.7200 -1.6705
 5779TIP3    H238753   0.785   0.516  11.482  1.7382 -0.0151  0.4177
 5780TIP3   OH238754   2.718   0.433   6.922 -0.1742 -0.0227 -0.0027
 5780TIP3    H138755   2.789   0.373   6.898  0.5603 -0.2161  2.5353
 5780TIP3    H238756   2.677   0.393   6.998 -0.8229  1.8203  0.6371
 5781TIP3   OH238757   2.128   3.044  16.063 -0.0699  0.1722 -0.3244
 5781TIP3    H138758   2.041   3.078  16.046  0.1186  0.1442 -1.3597
 5781TIP3    H238759   2.123   3.009  16.152 -1.1779 -0.0437 -0.4645
 5782TIP3   OH238760   4.382   6.063   1.635  0.1806 -0.1096 -0.1377
 5782TIP3    H138761   4.310   6.121   1.611 -1.0731 -2.0014 -1.1378
 5782TIP3    H238762   4.447   6.120   1.676 -1.3370  1.8412 -0.3747
 5783TIP3   OH238763   2.994   1.111   3.331 -0.1002 -0.0877  0.5027
 5783TIP3    H138764   3.065   1.175   3.334  0.0354  0.1067 -3.4505
 5783TIP3    H238765   2.919   1.157   3.369  0.6461  1.4957  0.1260
 5784TIP3   OH238766   2.961   1.413  12.726 -0.0627 -0.2797 -0.0465
 5784TIP3    H138767   2.868   1.412  12.703 -0.5836  0.2687  1.9334
 5784TIP3    H238768   2.996   1.490  12.681 -0.7349 -0.0602 -0.1998
 5785TIP3   OH238769   6.493   3.637  15.316  0.3604 -0.0728  0.0619
 5785TIP3    H138770   6.444   3.559  15.289 -2.9207  1.6340  0.7573
 5785TIP3    H238771   6.511   3.622  15.409  1.3710 -0.8032 -0.2448
 5786TIP3   OH238772   1.829   0.600  15.739 -0.1207  0.5718  0.3878
 5786TIP3    H138773   1.802   0.604  15.647  0.8047  1.2199  0.1406
 5786TIP3    H238774   1.768   0.657  15.785 -1.4322 -0.8046  0.3890
 5787TIP3   OH238775   5.321   6.359   5.461 -0.1546 -0.3803  0.3543
 5787TIP3    H138776   5.244   6.303   5.466  0.2127 -0.8679  0.5946
 5787TIP3    H238777   5.318   6.412   5.541  0.5260 -1.4070  1.0668
 5788TIP3   OH238778   2.746   0.852   4.280 -0.2252 -0.0042  0.0058
 5788TIP3    H138779   2.660   0.814   4.264  1.2394 -2.3859 -2.7088
 5788TIP3    H238780   2.757   0.917   4.210 -0.5762  1.7207  1.5148
 5789TIP3   OH238781   4.047   1.842  10.394  0.1724  0.5638  0.1688
 5789TIP3    H138782   4.006   1.808  10.314  0.2828 -0.2509  0.4596
 5789TIP3    H238783   4.095   1.768  10.430 -0.2848  0.7864  1.2612
 5790TIP3   OH238784   2.828   2.311  12.798  0.0075 -0.0560 -0.3584
 5790TIP3    H138785   2.771   2.269  12.862 -1.4164 -2.2182 -2.9714
 5790TIP3    H238786   2.910   2.261  12.801  0.3270  0.5083  0.4984
 5791TIP3   OH238787   0.110   2.181   3.051 -0.0005 -0.0978  0.4638
 5791TIP3    H138788   0.016   2.163   3.051  0.1878 -1.0998  0.1440
 5791TIP3    H238789   0.124   2.233   2.971 -0.0849 -1.0403 -0.1750
 5792TIP3   OH238790   5.976   2.428   0.729  0.6583 -0.1320 -0.3952
 5792TIP3    H138791   6.068   2.429   0.703  0.8728 -1.9711  0.1851
 5792TIP3    H238792   5.967   2.499   0.792  2.0724 -0.9486  0.7546
 5793TIP3   OH238793   3.172   0.862  14.503 -0.0300 -0.7111  0.6291
 5793TIP3    H138794   3.129   0.943  14.476 -2.3542 -1.3945  2.1453
 5793TIP3    H238795   3.151   0.799  14.434 -0.7105 -0.8029  0.9192
 5794TIP3   OH238796   3.968   1.209   5.630 -0.4476 -0.0554 -0.1915
 5794TIP3    H138797   3.920   1.134   5.594 -1.6786  0.7803 -0.3209
 5794TIP3    H238798   4.059   1.180   5.632 -0.5667 -0.6872 -2.4775
 5795TIP3   OH238799   3.782   1.205   1.697 -0.0807 -0.4873 -0.4784
 5795TIP3    H138800   3.752   1.124   1.738 -4.1417  1.6665  1.2008
 5795TIP3    H238801   3.737   1.207   1.612  2.0293 -1.1696 -1.6312
 5796TIP3   OH238802   0.276   6.717   0.036  0.2838  0.5492 -0.5763
 5796TIP3    H138803   0.224   6.797   0.042  0.3066  0.8752 -4.1988
 5796TIP3    H238804   0.356   6.743  -0.010  0.1500 -1.6320 -2.0882
 5797TIP3   OH238805   4.787   4.541   4.087 -0.3997 -0.2604  0.0634
 5797TIP3    H138806   4.827   4.546   4.000 -0.9606 -0.5870 -0.2101
 5797TIP3    H238807   4.699   4.577   4.075  0.4378  2.2041  1.0536
 5798TIP3   OH238808   2.619   2.217   1.932 -0.0072  0.0703 -0.0861
 5798TIP3    H138809   2.627   2.264   1.849 -0.6371  0.7005  0.2010
 5798TIP3    H238810   2.708   2.189   1.953  0.0719 -0.5328 -1.2211
 5799TIP3   OH238811   0.437   2.233  13.691 -0.1126 -0.1208  0.0186
 5799TIP3    H138812   0.442   2.281  13.774 -0.2073 -1.1169  0.6127
 5799TIP3    H238813   0.344   2.211  13.683 -0.0472 -0.3174 -0.1791
 5800TIP3   OH238814   5.133   2.974  12.143  0.8755  0.4446  0.0470
 5800TIP3    H138815   5.156   3.011  12.058  0.7274  2.8369  1.0143
 5800TIP3    H238816   5.206   2.997  12.200  0.5375 -0.3394  0.8070
 5801TIP3   OH238817   6.286   4.515   3.744  0.1299  0.6069  0.5456
 5801TIP3    H138818   6.309   4.605   3.724  1.7002  0.1016  0.0280
 5801TIP3    H238819   6.330   4.463   3.676 -1.9280 -0.4506 -0.0392
 5802TIP3   OH238820   2.439   3.253   0.657 -0.1345  0.2710 -0.0026
 5802TIP3    H138821   2.433   3.211   0.743 -1.4368  0.9414  0.2500
 5802TIP3    H238822   2.435   3.346   0.676 -0.1450  0.4279 -0.7713
 5803TIP3   OH238823   6.513   6.565   3.371 -0.4337 -0.7588  0.2872
 5803TIP3    H138824   6.478   6.644   3.412 -1.0993 -1.7156  1.6299
 5803TIP3    H238825   6.560   6.596   3.294 -0.9030  0.9144  0.6557
 5804TIP3   OH238826   1.033   5.548  14.917  0.4561 -0.0211  0.7650
 5804TIP3    H138827   1.023   5.455  14.894 -1.5847 -0.2749  2.5539
 5804TIP3    H238828   1.082   5.546  15.000  0.3179  0.4868  0.8599
 5805TIP3   OH238829   4.549   1.145   0.021 -0.1412 -0.6250 -0.4348
 5805TIP3    H138830   4.640   1.167   0.001 -1.3561  2.5553 -2.9193
 5805TIP3    H238831   4.519   1.097  -0.056 -0.4604 -2.1143  0.5929
 5806TIP3   OH238832   6.219   0.959  10.637 -0.1714  0.0159 -0.1716
 5806TIP3    H138833   6.267   0.912  10.706 -0.5730 -1.1292 -0.6632
 5806TIP3    H238834   6.129   0.961  10.669 -0.4773 -1.0630 -0.9371
 5807TIP3   OH238835   5.293   3.250  12.751 -0.2536 -0.0553  0.1257
 5807TIP3    H138836   5.201   3.277  12.749  0.1005  1.2356  0.7249
 5807TIP3    H238837   5.338   3.317  12.699  0.6951  0.7251  1.9428
 5808TIP3   OH238838   3.219   0.774  14.765 -0.1264  0.2415  0.0496
 5808TIP3    H138839   3.166   0.771  14.685 -2.1121 -0.9091  1.3834
 5808TIP3    H238840   3.289   0.710  14.750 -0.2261  0.3661 -0.9579
 5809TIP3   OH238841   6.209   0.375   2.118  0.1657 -0.0125 -0.4447
 5809TIP3    H138842   6.302   0.387   2.135 -0.0483 -0.6639  1.3313
 5809TIP3    H238843   6.201   0.378   2.023  1.9531  0.3528 -0.5966
 5810TIP3   OH238844   6.734   1.235  16.749 -0.2260  0.3063 -0.8861
 5810TIP3    H138845   6.794   1.161  16.739  2.2498  1.8841  1.3461
 5810TIP3    H238846   6.778   1.307  16.703 -0.4861  1.4328  0.6094
 5811TIP3   OH238847   4.506   3.446  15.103  0.5637  0.1450 -0.6990
 5811TIP3    H138848   4.484   3.527  15.148 -0.2886 -0.7540  0.5339
 5811TIP3    H238849   4.457   3.450  15.021  1.1285  1.2178 -0.9834
 5812TIP3   OH238850   0.061   3.046  16.760 -0.3232  0.2279 -0.1082
 5812TIP3    H138851   0.106   3.043  16.844  1.9118  2.6091 -1.1501
 5812TIP3    H238852   0.008   3.126  16.764  0.4413  0.8049 -1.2678
 5813TIP3   OH238853   5.179   5.936   3.215  0.8900  0.4189  0.4888
 5813TIP3    H138854   5.254   5.910   3.269  1.0115  1.7762  1.0147
 5813TIP3    H238855   5.138   6.007   3.265  1.5274  2.3124 -1.6253
 5814TIP3   OH238856   3.211   2.827  13.864 -0.5403  0.1598  0.2654
 5814TIP3    H138857   3.263   2.902  13.835  0.1415  0.1445  1.4218
 5814TIP3    H238858   3.196   2.843  13.957 -2.1105 -0.1416  0.0796
 5815TIP3   OH238859   2.738   4.936  12.639 -0.5141  0.3590  0.2584
 5815TIP3    H138860   2.706   4.973  12.557 -0.0988  0.8721  0.3262
 5815TIP3    H238861   2.668   4.877  12.667 -0.3614 -0.3464 -0.8139
 5816TIP3   OH238862   4.201   3.445  12.746 -0.4508  0.4332  0.6570
 5816TIP3    H138863   4.153   3.364  12.734  2.1529 -0.9459 -1.0678
 5816TIP3    H238864   4.210   3.482  12.658 -0.9199  2.1857  1.3177
 5817TIP3   OH238865   0.259   2.266  14.473  0.0004  0.5554 -0.2071
 5817TIP3    H138866   0.266   2.350  14.520 -1.0172 -0.1111  1.1720
 5817TIP3    H238867   0.206   2.287  14.396 -0.2723  1.1829  0.1406
 5818TIP3   OH238868   1.868   0.582  15.287 -0.1725  0.0800 -0.0150
 5818TIP3    H138869   1.920   0.654  15.324 -0.5399  0.7089 -0.6966
 5818TIP3    H238870   1.875   0.512  15.351  0.5267  0.5866  0.4733
 5819TIP3   OH238871   5.381   2.679  16.198 -0.2179  0.1691  0.4898
 5819TIP3    H138872   5.341   2.661  16.112  0.0334  1.2311  0.1382
 5819TIP3    H238873   5.469   2.643  16.191 -0.9031 -1.6354  1.0536
 5820TIP3   OH238874   3.535   4.604   0.300 -0.3238 -0.1313 -0.1550
 5820TIP3    H138875   3.545   4.529   0.242 -1.5229  1.1606 -2.1126
 5820TIP3    H238876   3.614   4.656   0.285 -0.3658 -0.0855 -0.2205
 5821TIP3   OH238877   4.150   1.484   4.339  0.3155 -0.1284 -0.3896
 5821TIP3    H138878   4.200   1.565   4.349 -0.1538 -0.0032  1.1034
 5821TIP3    H238879   4.075   1.509   4.286  0.9334  0.0772 -1.1774
 5822TIP3   OH238880   6.033   4.095   1.449 -0.1470  0.3142 -0.2577
 5822TIP3    H138881   6.018   4.068   1.540  0.8234 -1.3999 -0.5912
 5822TIP3    H238882   6.111   4.048   1.422  0.5404  2.0843 -1.4788
 5823TIP3   OH238883   2.656   2.105  12.605  0.5014 -0.0961  0.2226
 5823TIP3    H138884   2.688   2.187  12.567 -0.5425 -0.1672 -0.8416
 5823TIP3    H238885   2.687   2.037  12.545  2.8196 -0.6692  2.0084
 5824TIP3   OH238886   5.914   1.470  12.302  0.2725  0.4574  0.1355
 5824TIP3    H138887   5.981   1.408  12.329  1.5516  0.9208 -1.8331
 5824TIP3    H238888   5.836   1.417  12.288  0.8802 -0.4410  0.1278
 5825TIP3   OH238889   3.745   5.644   5.894  0.9064  0.5405 -0.1377
 5825TIP3    H138890   3.744   5.724   5.947 -1.4120  1.8695 -2.0516
 5825TIP3    H238891   3.786   5.671   5.812  1.4315 -0.6320 -0.2661
 5826TIP3   OH238892   3.664   2.624  11.999 -0.2598 -0.3641  0.1699
 5826TIP3    H138893   3.657   2.716  12.021 -1.2711 -0.1484 -0.9815
 5826TIP3    H238894   3.755   2.612  11.973 -0.0042  0.1910  0.7859
 5827TIP3   OH238895   6.465   4.448  12.742  0.5070 -0.3756  0.3412
 5827TIP3    H138896   6.382   4.411  12.711  0.8163  1.0589 -2.3716
 5827TIP3    H238897   6.441   4.531  12.783  0.5613 -0.0689 -0.2397
 5828TIP3   OH238898   2.679   3.600  16.525  0.0399 -0.6361 -0.0979
 5828TIP3    H138899   2.736   3.625  16.597 -1.7739  2.6943  0.2813
 5828TIP3    H238900   2.597   3.572  16.566 -0.5957  0.1592 -0.7800
 5829TIP3   OH238901   6.711   5.156   3.846  0.5739  0.1089 -0.7003
 5829TIP3    H138902   6.747   5.068   3.855  0.8013  0.3232  0.5290
 5829TIP3    H238903   6.772   5.212   3.894  1.4332  1.2050 -3.0037
 5830TIP3   OH238904   3.926   0.211  16.328  0.1096 -0.1044 -0.1238
 5830TIP3    H138905   3.978   0.182  16.252  1.2798 -0.0696  0.6409
 5830TIP3    H238906   3.899   0.130  16.371  0.9544 -0.1211  0.4030
 5831TIP3   OH238907   6.188   1.408   2.921 -0.1751 -0.2231  0.4579
 5831TIP3    H138908   6.132   1.371   2.854  0.0001  1.5065 -0.6748
 5831TIP3    H238909   6.130   1.424   2.995 -0.8879  0.2199 -0.1917
 5832TIP3   OH238910   3.171   6.311  16.744  0.2399  0.1740  0.0298
 5832TIP3    H138911   3.096   6.369  16.760 -1.0593 -1.4802 -0.0093
 5832TIP3    H238912   3.244   6.371  16.726 -0.9296  1.8115  0.6644
 5833TIP3   OH238913   4.878   3.160  11.718 -0.4982  0.6925  0.5110
 5833TIP3    H138914   4.920   3.099  11.657 -2.2559 -1.0508  1.0075
 5833TIP3    H238915   4.788   3.169  11.685 -0.9361  1.1638  1.8066
 5834TIP3   OH238916   4.389   1.906   5.900  0.0445  0.5235  0.0262
 5834TIP3    H138917   4.296   1.887   5.887 -0.2526  1.3260  0.8541
 5834TIP3    H238918   4.422   1.925   5.812  0.2392 -3.0911 -0.7612
 5835TIP3   OH238919   5.254   5.577   2.542 -0.3012  0.1625 -1.1007
 5835TIP3    H138920   5.273   5.553   2.633  0.4199 -3.3070 -2.1106
 5835TIP3    H238921   5.158   5.575   2.537 -0.3586  0.6307 -0.3717
 5836TIP3   OH238922   2.346   0.131   4.056  0.3937 -0.4728 -0.1918
 5836TIP3    H138923   2.303   0.216   4.048  0.8825 -0.3169 -1.2793
 5836TIP3    H238924   2.287   0.070   4.012  0.1537 -0.6598  0.3879
 5837TIP3   OH238925   4.178   1.514   4.889 -0.0745 -0.1029  0.0726
 5837TIP3    H138926   4.137   1.456   4.954  0.0005 -1.0666 -0.7238
 5837TIP3    H238927   4.225   1.579   4.941 -1.5246  0.2312  0.9922
 5838TIP3   OH238928   4.120   6.177  16.637  0.3387  0.0168 -0.2601
 5838TIP3    H138929   4.205   6.132  16.638  0.8526  0.9267 -1.7424
 5838TIP3    H238930   4.060   6.115  16.678  2.0639  0.1027  2.5043
 5839TIP3   OH238931   0.105   5.954   5.798  0.2817 -0.2662 -0.0833
 5839TIP3    H138932   0.083   5.863   5.816 -0.0487 -1.0070 -3.7362
 5839TIP3    H238933   0.021   5.997   5.780  0.3780  0.9303  2.1548
 5840TIP3   OH238934   2.451   1.265  14.500  0.0598  0.1127 -0.8772
 5840TIP3    H138935   2.379   1.328  14.508  0.5075  0.4536  0.8250
 5840TIP3    H238936   2.500   1.276  14.582  1.7813 -0.4328 -1.8199
 5841TIP3   OH238937   1.718   4.931  16.548 -0.3110 -0.7502 -0.1176
 5841TIP3    H138938   1.640   4.912  16.600 -1.6630  0.9787 -1.4439
 5841TIP3    H238939   1.707   5.022  16.521  0.3660 -1.5679 -3.3465
 5842TIP3   OH238940   6.722   1.165   5.318 -0.3022 -0.5733  0.6897
 5842TIP3    H138941   6.648   1.124   5.273  1.0006 -1.5333 -0.6353
 5842TIP3    H238942   6.756   1.229   5.255 -1.6622  1.8479  2.3415
 5843TIP3   OH238943   0.402   3.636  13.109 -0.6241  0.6874  0.2730
 5843TIP3    H138944   0.413   3.547  13.142  0.3889  1.3564  1.8441
 5843TIP3    H238945   0.486   3.656  13.067 -0.7150  1.0236  0.2495
 5844TIP3   OH238946   6.683   3.380   4.823  0.4613 -0.4176 -0.1455
 5844TIP3    H138947   6.607   3.404   4.877 -0.3816 -1.4196 -0.8747
 5844TIP3    H238948   6.705   3.460   4.776 -1.0648 -0.5064 -1.0313
 5845TIP3   OH238949   6.436   4.112   2.532 -0.0435  0.0529  0.0456
 5845TIP3    H138950   6.365   4.066   2.578  1.3194 -2.0084  0.1691
 5845TIP3    H238951   6.465   4.179   2.593 -1.3465  0.3781  0.3146
 5846TIP3   OH238952   2.157   3.621  12.253  0.0163 -0.0847  0.4821
 5846TIP3    H138953   2.233   3.563  12.248 -0.0706 -0.1785  0.2049
 5846TIP3    H238954   2.157   3.653  12.343  0.9464  0.6818  0.2077
 5847TIP3   OH238955   2.589   1.977  11.210  0.4801 -0.6888 -0.1936
 5847TIP3    H138956   2.530   2.053  11.210  0.4778 -0.6726 -1.7444
 5847TIP3    H238957   2.542   1.910  11.161  0.8754 -1.3914  0.3786
 5848TIP3   OH238958   1.388   1.967  15.998  0.3955 -0.3239 -0.4406
 5848TIP3    H138959   1.347   1.995  16.080  0.3743  1.3315 -1.0225
 5848TIP3    H238960   1.329   1.900  15.964 -0.4787  0.1931  0.0376
 5849TIP3   OH238961   4.975   0.350   5.769  0.4649  0.2466 -0.2132
 5849TIP3    H138962   4.896   0.326   5.818  1.8736  0.5669  2.2570
 5849TIP3    H238963   4.948   0.426   5.717 -0.9974  0.0277  0.1987
 5850TIP3   OH238964   1.287   4.085   5.483  0.4111 -0.6699  0.1623
 5850TIP3    H138965   1.311   4.168   5.441  0.3235 -0.6968  0.0599
 5850TIP3    H238966   1.370   4.039   5.494  0.5321 -0.3257  0.7376
 5851TIP3   OH238967   4.513   4.425  14.727 -0.2232 -0.0125  0.1251
 5851TIP3    H138968   4.604   4.433  14.755 -0.2238 -0.7379  0.3242
 5851TIP3    H238969   4.518   4.394  14.636 -0.2871 -0.8648  0.4117
 5852TIP3   OH238970   3.256   1.484  15.764  0.1505  0.4971 -0.0694
 5852TIP3    H138971   3.309   1.436  15.701  0.2671  0.9374 -0.3072
 5852TIP3    H238972   3.166   1.475  15.732  0.1039 -0.0549  0.2077
 5853TIP3   OH238973   6.489   4.908  16.464 -0.9550 -0.0332 -0.3774
 5853TIP3    H138974   6.518   4.953  16.384 -2.2439  2.0636  0.3011
 5853TIP3    H238975   6.565   4.911  16.522 -1.4589  2.6027  0.2009
 5854TIP3   OH238976   5.753   1.582   6.137 -0.2984  0.2125 -0.2469
 5854TIP3    H138977   5.805   1.545   6.208 -0.1568 -1.9382 -1.3986
 5854TIP3    H238978   5.707   1.656   6.175  0.2144 -0.5712  1.9269
 5855TIP3   OH238979   1.262   6.579  13.801 -0.2256 -0.3539 -0.1864
 5855TIP3    H138980   1.251   6.486  13.820  1.2768 -0.5172 -0.0233
 5855TIP3    H238981   1.225   6.591  13.714  1.2582 -1.5003 -0.9959
 5856TIP3   OH238982   0.665   5.607   3.015  0.1463  1.0303 -0.5813
 5856TIP3    H138983   0.751   5.571   2.992 -0.0429  0.1782 -0.0010
 5856TIP3    H238984   0.643   5.665   2.942  0.4159 -0.1285 -1.6075
 5857TIP3   OH238985   5.225   1.215   6.807  0.4908  0.4599 -0.1335
 5857TIP3    H138986   5.314   1.244   6.826 -0.5619  3.2217  0.7189
 5857TIP3    H238987   5.234   1.163   6.727  2.9837 -0.0382  0.4221
 5858TIP3   OH238988   5.060   6.627   1.524  0.4888  0.0768 -0.6115
 5858TIP3    H138989   5.086   6.580   1.445  1.5454  1.9736 -1.4451
 5858TIP3    H238990   5.132   6.612   1.586  0.6989  0.3370 -0.7872
 5859TIP3   OH238991   1.992   6.475  14.449 -0.0551 -0.1543 -0.5072
 5859TIP3    H138992   2.041   6.492  14.530  1.5340  0.0818 -1.4877
 5859TIP3    H238993   1.907   6.515  14.465  0.7894  1.3763  0.4428
 5860TIP3   OH238994   6.576   0.597   3.168 -0.2963 -0.0733  0.1540
 5860TIP3    H138995   6.606   0.683   3.197  1.3050 -0.5599  0.0067
 5860TIP3    H238996   6.510   0.572   3.232 -0.1719  0.9132  0.6766
 5861TIP3   OH238997   1.932   2.679   1.342 -0.0143  0.5559  0.1934
 5861TIP3    H138998   1.918   2.754   1.399  0.2578  1.7093 -1.2342
 5861TIP3    H238999   1.845   2.652   1.315 -0.2581 -0.9687  2.3390
 5862TIP3   OH239000   5.218   3.723   1.578 -0.4226  0.3061  0.5087
 5862TIP3    H139001   5.285   3.657   1.591  0.0984  0.4091 -1.4609
 5862TIP3    H239002   5.151   3.703   1.643  0.7638 -0.7762  1.4212
 5863TIP3   OH239003   1.453   6.280  10.761 -0.3283  0.3425 -0.0713
 5863TIP3    H139004   1.523   6.217  10.777 -1.2278 -0.6069  0.1690
 5863TIP3    H239005   1.495   6.365  10.770  0.7835 -0.2213  0.1338
 5864TIP3   OH239006   6.555   5.919  15.172  0.2503 -0.0437  0.3768
 5864TIP3    H139007   6.471   5.874  15.173  0.6910 -0.9416 -1.0982
 5864TIP3    H239008   6.606   5.876  15.240 -0.1577 -0.1651  0.6047
 5865TIP3   OH239009   6.678   2.677   1.783 -0.1513  0.6139  0.2477
 5865TIP3    H139010   6.662   2.692   1.876 -1.2247 -0.9192  0.3180
 5865TIP3    H239011   6.743   2.606   1.781 -0.4129  0.3808 -0.1661
 5866TIP3   OH239012   2.334   3.162   5.736 -0.3591 -0.2480 -0.1128
 5866TIP3    H139013   2.320   3.071   5.710  1.9659 -0.2639 -1.5020
 5866TIP3    H239014   2.250   3.205   5.722 -0.8472 -1.6824 -1.7374
 5867TIP3   OH239015   0.009   5.901  16.307  0.1148  0.1582  0.4689
 5867TIP3    H139016   0.056   5.833  16.355 -1.1311 -0.5866  0.6503
 5867TIP3    H239017  -0.053   5.854  16.252  0.0416  1.1035 -0.2829
 5868TIP3   OH239018   1.879   0.851  12.684 -0.2525  0.4266 -0.6963
 5868TIP3    H139019   1.865   0.915  12.753  1.5312 -0.0400  0.1307
 5868TIP3    H239020   1.872   0.766  12.728 -2.0350  0.0323 -1.6771
 5869TIP3   OH239021   1.062   4.262   5.864 -0.0237 -0.4277 -0.2871
 5869TIP3    H139022   0.982   4.314   5.872 -0.3064 -1.1453  1.8478
 5869TIP3    H239023   1.032   4.172   5.855  0.5043 -0.4719 -1.6073
 5870TIP3   OH239024   0.589   3.376  16.830 -0.2176 -0.1734  0.3723
 5870TIP3    H139025   0.576   3.341  16.918 -0.3547  0.4491  0.5992
 5870TIP3    H239026   0.665   3.327  16.796 -1.4659 -1.9049  0.0335
 5871TIP3   OH239027   6.688   6.062   1.501  0.1880  0.1318 -0.1579
 5871TIP3    H139028   6.594   6.061   1.522 -0.1103  0.1285 -1.4822
 5871TIP3    H239029   6.726   5.997   1.560 -0.9718 -1.4294 -1.0833
 5872TIP3   OH239030   3.445   2.690  14.459 -0.2940  0.3409  0.4314
 5872TIP3    H139031   3.415   2.603  14.432 -1.6528  0.0931  2.5829
 5872TIP3    H239032   3.541   2.686  14.451 -0.0740 -2.4507  3.4595
 5873TIP3   OH239033   5.476   6.708   4.116  0.0644 -0.3015  0.1048
 5873TIP3    H139034   5.469   6.751   4.201  0.3455  0.7477 -0.3918
 5873TIP3    H239035   5.440   6.772   4.054 -0.8148 -1.3397 -0.4851
 5874TIP3   OH239036   0.080   1.896   5.289  0.2616  0.0564  0.0357
 5874TIP3    H139037   0.169   1.869   5.309 -0.1517  0.1869  2.0875
 5874TIP3    H239038   0.052   1.837   5.218  1.0891 -1.6387  1.1012
 5875TIP3   OH239039   4.878   3.405  12.446 -0.2357  0.7218 -0.5826
 5875TIP3    H139040   4.858   3.312  12.435 -0.8380  0.9351 -1.2725
 5875TIP3    H239041   4.794   3.445  12.469 -0.0328  1.1471 -0.5893
 5876TIP3   OH239042   0.603   3.805  14.750 -0.9803 -0.0013 -0.2489
 5876TIP3    H139043   0.587   3.825  14.658 -0.9849 -1.8059 -0.6472
 5876TIP3    H239044   0.614   3.891  14.791 -2.6484  0.8869 -1.6054
 5877TIP3   OH239045   6.100   0.585  16.189  0.0632 -0.3480  0.1501
 5877TIP3    H139046   6.106   0.511  16.129 -0.2655  0.8331 -1.3706
 5877TIP3    H239047   6.014   0.622  16.173 -0.2980 -0.4247  1.8622
 5878TIP3   OH239048   3.625   3.851   4.853 -0.4658 -0.3277  0.2430
 5878TIP3    H139049   3.630   3.804   4.770  0.0232 -1.1475  0.7334
 5878TIP3    H239050   3.556   3.807   4.901 -1.5196  0.8523 -0.1558
 5879TIP3   OH239051   1.531   4.422  12.185  0.1702 -0.0377  0.5487
 5879TIP3    H139052   1.530   4.333  12.219 -0.0796 -0.2862 -0.0823
 5879TIP3    H239053   1.440   4.437  12.157  0.3003  0.2654  0.2876
 5880TIP3   OH239054   3.942   5.034  14.268  0.2083 -0.5356  0.1902
 5880TIP3    H139055   4.014   5.061  14.211  0.3048 -0.4887  0.3335
 5880TIP3    H239056   3.863   5.062  14.222  0.1477 -3.1682 -1.3671
 5881TIP3   OH239057   4.833   3.139  15.673  0.1091  0.0628  0.0324
 5881TIP3    H139058   4.818   3.060  15.622 -0.4272  0.2921 -0.1672
 5881TIP3    H239059   4.783   3.207  15.627 -1.1807  0.0675  1.3831
 5882TIP3   OH239060   3.343   5.948   1.740  0.0339  0.0425 -0.1219
 5882TIP3    H139061   3.368   5.877   1.799 -0.5461 -0.3268 -0.3217
 5882TIP3    H239062   3.368   6.028   1.788  0.2399 -0.2727  0.3078
 5883TIP3   OH239063   3.412   6.665  11.406  0.2198  0.3241  0.5251
 5883TIP3    H139064   3.484   6.656  11.343  1.9527 -0.6043  2.5819
 5883TIP3    H239065   3.381   6.755  11.394 -0.4146 -0.2641 -2.5987
 5884TIP3   OH239066   0.997   6.534  16.515 -0.0461  0.2552  0.0215
 5884TIP3    H139067   0.924   6.506  16.569  0.5238  0.4300  0.8839
 5884TIP3    H239068   1.024   6.618  16.552  1.3913 -0.4025  0.4734
 5885TIP3   OH239069   4.596   6.164   6.037 -0.0683  0.2583  0.0498
 5885TIP3    H139070   4.535   6.179   5.964  1.0820 -1.1672 -1.2327
 5885TIP3    H239071   4.571   6.079   6.072  0.6047  0.0750  0.0911
 5886TIP3   OH239072   3.385   1.868   4.113 -0.2939  0.4324 -0.2547
 5886TIP3    H139073   3.349   1.943   4.066  0.5821  0.4483 -0.9170
 5886TIP3    H239074   3.340   1.792   4.076 -1.0819  0.6108  0.3195
 5887TIP3   OH239075   6.042   4.949   6.067 -0.2431  0.3194 -0.8660
 5887TIP3    H139076   5.996   5.000   6.134  2.8084  0.2586  1.3644
 5887TIP3    H239077   6.026   4.858   6.092  1.7821  0.3022  0.4693
 5888TIP3   OH239078   2.223   0.323  13.234 -0.4095  0.0210  0.5063
 5888TIP3    H139079   2.213   0.409  13.274 -0.6582  0.9314 -1.4350
 5888TIP3    H239080   2.318   0.307  13.235 -0.3386  0.4451  0.6254
 5889TIP3   OH239081   4.994   2.791   3.130  1.0252  0.3443  0.2748
 5889TIP3    H139082   4.911   2.820   3.093 -0.0946  0.0023  2.3978
 5889TIP3    H239083   5.054   2.864   3.116  0.0304  1.0705 -0.2368
 5890TIP3   OH239084   0.564   4.985   2.180 -0.4519  0.3873  0.4807
 5890TIP3    H139085   0.478   4.958   2.213 -0.6031  0.6107  0.2724
 5890TIP3    H239086   0.565   4.955   2.089 -0.4763  0.7564  0.3589
 5891TIP3   OH239087   2.292   3.321  11.160 -0.1353  0.1808  0.1827
 5891TIP3    H139088   2.237   3.398  11.175  0.2862  0.0207  2.6556
 5891TIP3    H239089   2.257   3.254  11.218  0.0970 -1.2252 -1.2613
 5892TIP3   OH239090   1.318   0.523  13.462 -0.3844  0.5087 -0.2032
 5892TIP3    H139091   1.302   0.435  13.426 -0.9367  0.0514  1.1240
 5892TIP3    H239092   1.312   0.581  13.386 -1.2672 -0.4678 -0.9086
 5893TIP3   OH239093   3.927   0.955   0.071  0.1985  0.5331  0.4692
 5893TIP3    H139094   3.981   1.034   0.070  1.2377 -0.1711  0.3194
 5893TIP3    H239095   3.862   0.969   0.002  2.2113  0.0001 -1.5625
 5894TIP3   OH239096   1.654   0.349  12.873  0.1698  0.1645  0.2379
 5894TIP3    H139097   1.684   0.295  12.799 -0.3844  0.3741 -0.1333
 5894TIP3    H239098   1.664   0.291  12.949  3.3854  0.8462  0.4185
 5895TIP3   OH239099   4.307   0.273   2.464 -0.0065 -0.3444 -0.1863
 5895TIP3    H139100   4.347   0.194   2.428 -0.3704 -0.8460  0.4836
 5895TIP3    H239101   4.324   0.268   2.558  1.1646  1.0855 -0.3005
 5896TIP3   OH239102   4.089   6.177   5.928  0.0580  0.2400 -0.1031
 5896TIP3    H139103   4.033   6.164   6.004  1.0439 -1.6256  0.3485
 5896TIP3    H239104   4.041   6.238   5.873 -0.2785  2.3196  2.4030
 5897TIP3   OH239105   0.420   4.690  16.506  0.8405 -0.1013 -0.2178
 5897TIP3    H139106   0.403   4.741  16.585  2.9394 -0.5369  0.5479
 5897TIP3    H239107   0.452   4.606  16.538  2.9415  0.1609 -1.5103
 5898TIP3   OH239108   1.783   3.648   5.271 -0.0728  0.2189  0.4656
 5898TIP3    H139109   1.855   3.586   5.257  1.0566  1.7880 -0.8376
 5898TIP3    H239110   1.704   3.595   5.259  0.8472 -1.3509  1.1240
 5899TIP3   OH239111   3.703   4.763   2.815  0.3820 -0.3632 -0.2283
 5899TIP3    H139112   3.655   4.681   2.799  1.2978 -0.9139 -0.1847
 5899TIP3    H239113   3.657   4.804   2.888 -1.1518  0.0236 -1.3686
 5900TIP3   OH239114   3.064   6.064   0.247 -0.2701  0.0057 -0.1360
 5900TIP3    H139115   3.066   6.067   0.151  0.1157  0.9186 -0.1118
 5900TIP3    H239116   3.105   5.981   0.270 -1.0190 -0.5482 -0.7822
 5901TIP3   OH239117   5.817   3.429   0.026  0.4293  0.3281  0.1117
 5901TIP3    H139118   5.809   3.354   0.084  0.2479 -0.6740 -1.1854
 5901TIP3    H239119   5.791   3.504   0.080 -2.3578 -0.8997  0.5803
 5902TIP3   OH239120   3.140   5.009   3.320  0.0780 -0.3481 -0.5119
 5902TIP3    H139121   3.145   5.096   3.281  3.6373  0.1809  0.8807
 5902TIP3    H239122   3.120   5.025   3.413 -1.3769 -1.1751 -0.6568
 5903TIP3   OH239123   0.530   5.051   4.017 -0.3867 -0.3433  0.0702
 5903TIP3    H139124   0.493   5.123   3.965 -0.4439 -0.7346 -0.4334
 5903TIP3    H239125   0.614   5.032   3.975 -0.9962 -1.4877 -0.6290
 5904TIP3   OH239126   2.074   4.690   3.983 -0.6088 -0.3314 -0.2910
 5904TIP3    H139127   2.166   4.710   4.002 -0.1621 -0.9512 -1.7108
 5904TIP3    H239128   2.028   4.709   4.065  0.4244  2.1910 -0.2352
 5905TIP3   OH239129   4.672   5.260   1.768  0.6040 -0.0376  0.1391
 5905TIP3    H139130   4.754   5.210   1.763  0.5435 -0.0267 -1.3660
 5905TIP3    H239131   4.699   5.348   1.794  1.0006 -0.2176  0.3378
 5906TIP3   OH239132   3.143   2.183  15.447  0.0183 -0.2276  0.2406
 5906TIP3    H139133   3.114   2.234  15.522  0.0956  0.3339 -0.1040
 5906TIP3    H239134   3.104   2.097  15.459  0.1490 -0.1812  0.9956
 5907TIP3   OH239135   1.909   3.799  11.285 -0.2002  0.6769  0.2261
 5907TIP3    H139136   1.975   3.868  11.277  0.6033 -0.3072 -1.8819
 5907TIP3    H239137   1.917   3.748  11.204 -0.5460 -2.1146  1.8947
 5908TIP3   OH239138   3.104   2.674  15.182 -0.3077 -0.1479  0.1253
 5908TIP3    H139139   3.118   2.662  15.275  1.0877 -0.0157 -0.0538
 5908TIP3    H239140   3.037   2.610  15.159  0.0784 -0.8824  1.0226
 5909TIP3   OH239141   5.278   6.765   6.562  0.0174  0.0659 -0.3483
 5909TIP3    H139142   5.200   6.723   6.525  0.2799 -0.2759 -0.5150
 5909TIP3    H239143   5.351   6.731   6.510  0.6994 -2.4634  2.0866
 5910TIP3   OH239144   4.902   4.394   3.261 -0.2254  0.0873 -0.3836
 5910TIP3    H139145   4.927   4.477   3.302 -0.4067 -0.2229  0.3763
 5910TIP3    H239146   4.847   4.419   3.187 -0.1473  0.6509 -0.2511
 5911TIP3   OH239147   2.861   4.723  11.969 -0.2673 -0.0740  0.2640
 5911TIP3    H139148   2.851   4.630  11.947 -0.5952  0.0750 -0.2362
 5911TIP3    H239149   2.954   4.740  11.961 -0.2079 -0.3626  0.3399
 5912TIP3   OH239150   0.989   5.692  12.901  0.4253 -0.5309 -0.1210
 5912TIP3    H139151   0.940   5.628  12.954 -0.3249  0.8606  0.8952
 5912TIP3    H239152   0.936   5.771  12.904  1.9903  0.5441 -0.2682
 5913TIP3   OH239153   3.690   2.210  12.537 -0.2018  0.0345 -0.2563
 5913TIP3    H139154   3.721   2.244  12.453 -0.1309  0.5370 -0.0269
 5913TIP3    H239155   3.769   2.181  12.582 -0.4118 -2.1591 -1.1862
 5914TIP3   OH239156   4.990   0.946   4.982  0.5823  0.0284 -0.1563
 5914TIP3    H139157   4.955   0.929   4.895 -0.4959  0.5620  0.1619
 5914TIP3    H239158   4.984   0.861   5.027  0.4638 -0.0800 -0.3765
 5915TIP3   OH239159   2.006   0.676  14.982  0.5476 -0.2410  0.5722
 5915TIP3    H139160   2.074   0.666  15.048  0.2556 -0.4922  0.8368
 5915TIP3    H239161   1.951   0.747  15.015  1.3658  0.7881 -0.2317
 5916TIP3   OH239162   6.158   2.739  16.775 -0.1995  0.1765  0.4181
 5916TIP3    H139163   6.189   2.656  16.812 -1.6096 -0.4829  0.1201
 5916TIP3    H239164   6.153   2.723  16.681 -1.0025  0.4258  0.4207
 5917TIP3   OH239165   0.388   3.940  13.095  0.4600  0.6501  0.1635
 5917TIP3    H139166   0.469   3.947  13.146  0.7721 -2.9660  0.2670
 5917TIP3    H239167   0.417   3.913  13.008 -0.6591 -1.4735  0.4263
 5918TIP3   OH239168   0.700   6.000  15.763  0.2212  1.0252 -0.1236
 5918TIP3    H139169   0.723   6.074  15.818  3.1177  1.4331 -1.7846
 5918TIP3    H239170   0.614   6.023  15.726 -1.2444  1.2335  3.2194
 5919TIP3   OH239171   5.959   1.940  12.974 -0.1873  0.0718 -0.9359
 5919TIP3    H139172   6.013   2.012  13.006 -1.0798 -0.7857  2.6674
 5919TIP3    H239173   6.007   1.861  12.999 -1.6910 -0.6558 -0.3208
 5920TIP3   OH239174   0.330   1.654  14.689 -0.4769  0.1865 -0.1014
 5920TIP3    H139175   0.241   1.658  14.724 -0.6388 -1.2517 -0.3161
 5920TIP3    H239176   0.318   1.650  14.594 -0.1164  1.6955 -0.2234
 5921TIP3   OH239177   0.847   6.513  13.244  0.0716  0.6252 -0.1340
 5921TIP3    H139178   0.852   6.604  13.274  0.9228  1.4150 -2.5254
 5921TIP3    H239179   0.791   6.517  13.167 -0.0347 -0.9248 -0.1442
 5922TIP3   OH239180   2.655   2.023  11.494  0.2614 -0.1478 -0.8196
 5922TIP3    H139181   2.634   1.981  11.410 -0.9489 -0.1654 -0.5295
 5922TIP3    H239182   2.699   1.955  11.545 -0.0472 -0.5066 -1.0253
 5923TIP3   OH239183   3.630   6.660  16.361  0.2078 -0.0640 -0.3405
 5923TIP3    H139184   3.707   6.697  16.403  1.9348 -1.2469 -2.3570
 5923TIP3    H239185   3.599   6.728  16.302  0.4468 -0.0091 -0.4029
 5924TIP3   OH239186   0.078   3.455   0.714  0.2726  0.4418 -0.2654
 5924TIP3    H139187   0.066   3.436   0.621 -0.8898  0.7837 -0.1958
 5924TIP3    H239188   0.151   3.517   0.717  0.3880  0.3449 -0.9383
 5925TIP3   OH239189   5.179   1.390   1.248 -0.7897  0.0914  0.2103
 5925TIP3    H139190   5.156   1.463   1.190 -1.4046 -0.1436  0.1572
 5925TIP3    H239191   5.201   1.432   1.332 -3.2501  0.2008  0.8297
 5926TIP3   OH239192   2.520   3.344   5.682 -0.4275  0.5549 -0.0155
 5926TIP3    H139193   2.454   3.285   5.720  1.3302 -2.3594 -1.2493
 5926TIP3    H239194   2.588   3.350   5.749  0.3954 -0.6403 -0.7090
 5927TIP3   OH239195   0.101   0.297  16.594 -0.4794  0.0025  0.0395
 5927TIP3    H139196   0.044   0.374  16.592 -1.2923 -0.6151 -2.4297
 5927TIP3    H239197   0.186   0.328  16.563 -0.5023  0.1300  0.1059
 5928TIP3   OH239198   6.756   0.252   0.407  0.4493 -0.1363 -0.2273
 5928TIP3    H139199   6.668   0.216   0.409 -0.1586  1.2004 -1.9488
 5928TIP3    H239200   6.795   0.224   0.490 -0.5713 -3.2032 -0.7246
 5929TIP3   OH239201   6.293   0.003  14.162  0.0006  0.3365 -0.5246
 5929TIP3    H139202   6.296   0.074  14.226  1.8584 -0.2545  0.0800
 5929TIP3    H239203   6.264  -0.074  14.213 -0.8211  0.3829 -0.9122
 5930TIP3   OH239204   0.155   5.070  10.621  0.0304 -0.2149  0.5741
 5930TIP3    H139205   0.181   5.015  10.547  1.5032 -1.7628  2.1875
 5930TIP3    H239206   0.062   5.086  10.607  0.1162 -1.1244 -1.2026
 5931TIP3   OH239207   1.586   6.536   6.069 -0.1980  0.6785  0.7343
 5931TIP3    H139208   1.589   6.607   6.006  0.6886  0.6061  0.6766
 5931TIP3    H239209   1.646   6.470   6.033 -2.0709 -0.6932  0.0716
 5932TIP3   OH239210   2.014   3.456  17.164 -0.7009 -0.0739  0.1758
 5932TIP3    H139211   2.074   3.503  17.106  1.2339 -1.2632  1.1728
 5932TIP3    H239212   1.945   3.423  17.106  0.6162 -0.2957 -1.2961
 5933TIP3   OH239213   2.672   0.604  10.740  0.1401 -0.0347  0.3450
 5933TIP3    H139214   2.713   0.688  10.720 -0.5373  0.6013  1.6229
 5933TIP3    H239215   2.641   0.572  10.655 -0.3178  1.3733 -0.0269
 5934TIP3   OH239216   3.665   1.748  15.997  0.2828  0.1980 -0.2693
 5934TIP3    H139217   3.709   1.665  15.982 -0.2839 -0.3293  0.9114
 5934TIP3    H239218   3.706   1.783  16.076  0.8457  1.2737 -1.0181
 5935TIP3   OH239219   2.608   0.906   6.357  0.2880  0.5122  0.1263
 5935TIP3    H139220   2.540   0.949   6.306  0.9381  1.0459 -0.3057
 5935TIP3    H239221   2.687   0.958   6.340  1.2524 -1.2872 -0.9683
 5936TIP3   OH239222   2.860   6.099  12.861  0.0447  0.0271 -0.2164
 5936TIP3    H139223   2.892   6.122  12.948  0.0456 -1.3547  0.1554
 5936TIP3    H239224   2.798   6.028  12.876 -1.3810  1.0516 -1.1732
 5937TIP3   OH239225   0.705   4.003   4.950 -0.2600 -0.1730 -0.3710
 5937TIP3    H139226   0.717   4.097   4.966 -1.1988 -0.2898  1.1300
 5937TIP3    H239227   0.765   3.961   5.012 -0.3237 -0.5755 -0.5846
 5938TIP3   OH239228   6.664   1.781   2.155 -0.0798 -0.1363  0.1949
 5938TIP3    H139229   6.570   1.779   2.173 -0.6602 -0.1462 -2.5462
 5938TIP3    H239230   6.701   1.840   2.221 -1.8323 -0.9546  1.9465
 5939TIP3   OH239231   5.682   1.257   0.970  0.2191 -0.0827 -0.0404
 5939TIP3    H139232   5.678   1.294   0.882 -0.2635 -1.1189 -0.4672
 5939TIP3    H239233   5.682   1.333   1.029  0.3937  0.6099 -0.9262
 5940TIP3   OH239234   0.364   1.212   5.974  0.2389 -0.0373  0.1110
 5940TIP3    H139235   0.400   1.234   5.889  1.5475 -2.1109  0.0960
 5940TIP3    H239236   0.336   1.121   5.966  0.8565 -0.4364  2.0266
 5941TIP3   OH239237   4.738   2.874  11.755 -0.3019  0.3829  0.1247
 5941TIP3    H139238   4.790   2.913  11.826  0.4176  0.4148 -0.4167
 5941TIP3    H239239   4.713   2.788  11.788 -0.4821  0.6384  0.6596
 5942TIP3   OH239240   0.349   2.799   5.297 -0.2355 -0.0285  0.4753
 5942TIP3    H139241   0.257   2.799   5.323 -0.2080 -1.0070  0.5911
 5942TIP3    H239242   0.393   2.746   5.363  0.2786 -0.2490 -0.0342
 5943TIP3   OH239243   4.886   1.498   3.157  0.3153  0.2506 -0.0473
 5943TIP3    H139244   4.910   1.436   3.225  2.4228  0.4421 -0.5752
 5943TIP3    H239245   4.823   1.557   3.199  1.6544  0.4313  1.7618
 5944TIP3   OH239246   6.040   1.458   3.194  0.0296  0.0053  0.3591
 5944TIP3    H139247   6.048   1.468   3.289 -0.9522 -1.3689  0.6113
 5944TIP3    H239248   6.070   1.369   3.177 -2.1145 -0.6349 -0.2771
 5945TIP3   OH239249   0.392   2.770  12.970 -0.5887  0.2880 -0.0770
 5945TIP3    H139250   0.348   2.852  12.991 -0.5701 -0.1170  1.5860
 5945TIP3    H239251   0.322   2.714  12.936 -0.3012  1.5300 -2.8680
 5946TIP3   OH239252   4.802   1.914  13.438  0.6803 -0.0486  0.2810
 5946TIP3    H139253   4.836   1.858  13.369 -1.2966 -2.8221  1.4521
 5946TIP3    H239254   4.826   1.869  13.519 -2.2147  0.0007  1.2153
 5947TIP3   OH239255   2.145   2.792  14.261  0.3821  0.3823  0.2695
 5947TIP3    H139256   2.187   2.707  14.269  0.5991  0.5290  0.7057
 5947TIP3    H239257   2.216   2.855  14.273 -0.1746  0.6479  2.4579
 5948TIP3   OH239258   4.661   0.998   5.696  0.2186 -0.4478 -0.0816
 5948TIP3    H139259   4.578   1.041   5.714 -0.4524 -1.7651  0.0317
 5948TIP3    H239260   4.725   1.047   5.748 -0.3187  1.1435 -0.8737
 5949TIP3   OH239261   1.229   1.448  12.964 -0.1033 -0.0434  0.0860
 5949TIP3    H139262   1.233   1.451  12.868 -2.0713  0.0585 -0.0326
 5949TIP3    H239263   1.261   1.534  12.992 -0.8651  0.4649 -0.5620
 5950TIP3   OH239264   3.236   3.604   0.019 -0.0555 -0.2442  0.1323
 5950TIP3    H139265   3.171   3.589  -0.049 -0.1345 -0.1805  0.1938
 5950TIP3    H239266   3.240   3.699   0.028  1.2589 -0.1791 -1.0470
 5951TIP3   OH239267   0.048   3.203  12.594  0.0906  0.1447  0.3153
 5951TIP3    H139268   0.072   3.231  12.505  1.3322  0.0426  0.6109
 5951TIP3    H239269   0.078   3.274  12.650  1.9331 -1.0902  0.9290
 5952TIP3   OH239270   5.762   5.197   2.235 -0.6969  0.3406 -0.0082
 5952TIP3    H139271   5.680   5.158   2.265 -0.3067 -0.3610  0.1509
 5952TIP3    H239272   5.737   5.285   2.206 -1.0839  1.1064  2.4615
 5953TIP3   OH239273   4.944   5.738  16.128 -0.2099 -0.9733 -0.0199
 5953TIP3    H139274   4.906   5.652  16.107 -1.0922 -0.4796 -0.4438
 5953TIP3    H239275   4.901   5.764  16.209  1.8859 -2.0570  1.4842
 5954TIP3   OH239276   1.085   5.402   2.854  0.1455 -0.2135  0.5738
 5954TIP3    H139277   1.061   5.337   2.920  2.1610  0.7033  2.2625
 5954TIP3    H239278   1.001   5.436   2.823 -0.8648 -1.7048  1.6112
 5955TIP3   OH239279   3.012   2.859  16.758  0.5134  0.7525  0.4373
 5955TIP3    H139280   2.952   2.850  16.832 -0.8812  0.7672 -0.6614
 5955TIP3    H239281   2.970   2.925  16.702 -0.1090 -1.5674 -1.9329
 5956TIP3   OH239282   2.422   1.444  13.983  0.1399 -0.3296  0.1372
 5956TIP3    H139283   2.417   1.523  13.929 -1.9921 -0.2830  0.3750
 5956TIP3    H239284   2.507   1.451  14.027 -0.4999  2.4134  1.0420
 5957TIP3   OH239285   6.092   6.643   1.166 -0.5212  0.2997  0.2532
 5957TIP3    H139286   6.167   6.583   1.162  1.1541  2.4084 -2.8936
 5957TIP3    H239287   6.020   6.594   1.125  0.1152 -0.4798  0.0503
 5958TIP3   OH239288   4.121   1.418   0.249  0.3745 -0.0074 -0.7740
 5958TIP3    H139289   4.172   1.493   0.218 -0.4165  0.4950 -0.8695
 5958TIP3    H239290   4.186   1.360   0.289  0.8461  1.2452  0.3292
 5959TIP3   OH239291   1.554   5.091   2.960 -0.3560  0.1368  0.2412
 5959TIP3    H139292   1.549   5.096   3.055 -1.6859 -1.6583  0.2881
 5959TIP3    H239293   1.645   5.068   2.942 -0.2924 -0.3026  1.1083
 5960TIP3   OH239294   5.004   1.615  17.173 -0.2515 -0.8648 -0.1841
 5960TIP3    H139295   4.969   1.597  17.260  1.7091 -0.2783  0.7577
 5960TIP3    H239296   5.074   1.678  17.188 -0.4111 -0.1439 -2.2915
 5961TIP3   OH239297   4.438   0.462  13.895 -0.3587  0.4105 -0.1173
 5961TIP3    H139298   4.381   0.419  13.832 -1.0468 -0.3188  0.9824
 5961TIP3    H239299   4.511   0.496  13.843 -0.7835 -0.4115 -1.2610
 5962TIP3   OH239300   4.179   5.685  14.057 -0.5981 -0.2938 -0.1094
 5962TIP3    H139301   4.180   5.647  13.969  1.0180  0.4066 -0.4293
 5962TIP3    H239302   4.132   5.622  14.111  0.2438 -1.7610 -1.0479
 5963TIP3   OH239303   6.709   2.284   3.404 -0.3629  0.4116 -0.3493
 5963TIP3    H139304   6.642   2.323   3.460 -0.4988 -0.1695 -0.1052
 5963TIP3    H239305   6.703   2.190   3.421 -1.7187  0.0312 -2.7579
 5964TIP3   OH239306   6.441   4.661  11.191  0.1611 -0.2584 -0.1800
 5964TIP3    H139307   6.502   4.604  11.238  0.5022  1.8734  2.1386
 5964TIP3    H239308   6.450   4.637  11.099  1.1665 -3.0612  0.6142
 5965TIP3   OH239309   6.373   0.849   3.809 -0.3453 -0.1482  0.4055
 5965TIP3    H139310   6.447   0.788   3.820 -0.3210 -0.3377 -0.6815
 5965TIP3    H239311   6.298   0.792   3.793 -0.8526  0.0267  2.1734
 5966TIP3   OH239312   0.875   3.810  15.353  0.0135  0.2096  0.1782
 5966TIP3    H139313   0.891   3.841  15.442  1.5119  0.9991 -0.3427
 5966TIP3    H239314   0.788   3.769  15.357 -0.1845  0.7444  1.8556
 5967TIP3   OH239315   5.307   4.200   4.234 -0.0809 -0.4113  0.2004
 5967TIP3    H139316   5.374   4.233   4.294  0.0350 -0.6202  0.1863
 5967TIP3    H239317   5.337   4.112   4.211 -0.2372 -0.4139  0.0081
 5968TIP3   OH239318   2.710   0.050   3.542 -0.5443 -0.1727 -0.3851
 5968TIP3    H139319   2.632   0.052   3.597  0.3295 -1.7900  0.9586
 5968TIP3    H239320   2.755   0.133   3.560 -2.0548  0.8978 -1.3819
 5969TIP3   OH239321   2.557   4.278  14.351 -0.1262  0.3159  0.5362
 5969TIP3    H139322   2.482   4.233  14.312  0.8286 -1.8949  1.1997
 5969TIP3    H239323   2.552   4.257  14.444 -0.5365  2.8970  1.1544
 5970TIP3   OH239324   0.731   2.540   3.170 -0.3074 -0.6613 -0.0898
 5970TIP3    H139325   0.657   2.586   3.210  0.1685  0.1882 -0.1591
 5970TIP3    H239326   0.713   2.447   3.183 -1.9202 -0.4913 -1.0814
 5971TIP3   OH239327   2.139   0.349   5.992  0.3186 -0.4014  0.2196
 5971TIP3    H139328   2.056   0.316   5.958  0.2834  0.5870 -0.6966
 5971TIP3    H239329   2.162   0.289   6.063 -1.2117 -0.6460  0.5248
 5972TIP3   OH239330   3.108   6.302   3.281 -0.3504 -0.1643 -0.1117
 5972TIP3    H139331   3.120   6.386   3.325  0.5928 -0.6599  0.6010
 5972TIP3    H239332   3.187   6.291   3.228  0.5016 -1.5414  1.3897
 5973TIP3   OH239333   1.669   4.687  16.328  0.3072 -0.3581  0.0305
 5973TIP3    H139334   1.693   4.780  16.329 -0.0510 -0.2400 -1.3633
 5973TIP3    H239335   1.640   4.671  16.238  0.3509 -1.8203  0.2689
 5974TIP3   OH239336   0.258   2.803   4.929 -0.2503 -0.3850 -0.4134
 5974TIP3    H139337   0.189   2.826   4.867 -0.6206  0.4731  0.3021
 5974TIP3    H239338   0.211   2.768   5.005  0.1961 -1.3493 -0.5726
 5975TIP3   OH239339   5.827   6.727   6.094 -0.8110 -0.0405 -0.1837
 5975TIP3    H139340   5.867   6.651   6.135 -0.3293  1.2376  1.7642
 5975TIP3    H239341   5.897   6.792   6.090 -1.9033  1.2067  0.5818
 5976TIP3   OH239342   2.280   4.465   4.353 -0.1516 -0.1704 -0.1303
 5976TIP3    H139343   2.338   4.540   4.341 -0.2702 -0.0367  0.1265
 5976TIP3    H239344   2.304   4.405   4.283  0.6395 -0.3403  0.2844
 5977TIP3   OH239345   0.369   2.116   4.753 -0.0894  0.2350 -0.0175
 5977TIP3    H139346   0.344   2.199   4.794 -3.0766 -0.6713  0.1057
 5977TIP3    H239347   0.298   2.056   4.775  1.4198 -2.0433 -1.1439
 5978TIP3   OH239348   3.744   5.405  10.926 -0.5289  0.1636 -0.4920
 5978TIP3    H139349   3.811   5.340  10.905 -0.7692 -0.2231 -0.0649
 5978TIP3    H239350   3.691   5.363  10.993 -0.4125  0.9820  0.1085
 5979TIP3   OH239351   6.192   3.794   6.153  0.0514 -0.3136  0.0920
 5979TIP3    H139352   6.186   3.705   6.119  1.9155  0.1820 -1.6214
 5979TIP3    H239353   6.283   3.818   6.142 -0.3609  1.7093  0.8453
 5980TIP3   OH239354   3.632   0.104  15.902  0.2196  0.4362  0.1932
 5980TIP3    H139355   3.721   0.139  15.898 -0.1115  1.2012 -0.8705
 5980TIP3    H239356   3.576   0.180  15.889 -0.5980 -0.0386  0.8847
 5981TIP3   OH239357   5.375   4.362   2.025  0.5063  0.0859 -0.5518
 5981TIP3    H139358   5.292   4.344   2.069 -0.1529 -0.4703 -2.0170
 5981TIP3    H239359   5.441   4.321   2.081  0.0436  2.3510  1.7592
 5982TIP3   OH239360   4.718   3.848   4.394  0.1019 -0.1864  0.0383
 5982TIP3    H139361   4.630   3.884   4.385  0.2851  0.7236  1.6397
 5982TIP3    H239362   4.716   3.800   4.477  0.4483 -2.1920 -1.0915
 5983TIP3   OH239363   1.134   5.241  14.276 -0.1413  0.6597  0.3062
 5983TIP3    H139364   1.086   5.165  14.308  0.4923  0.2631  0.3000
 5983TIP3    H239365   1.067   5.310  14.271 -0.5277  0.3517  1.1549
 5984TIP3   OH239366   2.072   1.580   0.968 -0.5327 -0.2775  0.0380
 5984TIP3    H139367   2.163   1.608   0.967 -0.8405  0.7376 -0.1571
 5984TIP3    H239368   2.062   1.532   1.051 -0.4364  1.6777  1.2024
 5985TIP3   OH239369   6.045   0.023  11.271 -0.5890  0.9422 -0.0954
 5985TIP3    H139370   6.035   0.075  11.191 -2.5865  1.3171  0.3618
 5985TIP3    H239371   5.958  -0.013  11.287 -0.2272  0.9102  1.9387
 5986TIP3   OH239372   0.327   0.506   6.438  0.5728 -0.0980 -0.1675
 5986TIP3    H139373   0.269   0.573   6.402  1.1143  2.0292  2.7534
 5986TIP3    H239374   0.273   0.461   6.503  1.2428 -0.2427  0.2817
 5987TIP3   OH239375   4.746   4.769  11.289 -0.3253  0.1487  0.7070
 5987TIP3    H139376   4.804   4.698  11.260 -1.0702 -0.3300  0.3884
 5987TIP3    H239377   4.772   4.845  11.237 -0.7421 -0.3595 -0.2367
 5988TIP3   OH239378   1.276   1.516  12.088  0.2684  0.3816 -0.2088
 5988TIP3    H139379   1.311   1.603  12.109 -0.0588  0.8868 -1.6797
 5988TIP3    H239380   1.308   1.498  11.999 -1.9459  0.2137 -1.0135
 5989TIP3   OH239381   4.637   6.717  16.101  0.3236  0.1332  0.2179
 5989TIP3    H139382   4.585   6.785  16.144  0.0308  0.6100 -0.8783
 5989TIP3    H239383   4.650   6.650  16.169  0.3719  1.1385  1.2172
 5990TIP3   OH239384   2.457   6.444   0.709  0.1542  0.5212  0.1418
 5990TIP3    H139385   2.394   6.383   0.747 -0.9464  1.1691 -0.6087
 5990TIP3    H239386   2.502   6.393   0.642  0.4761  0.0353  0.7273
 5991TIP3   OH239387   1.833   4.760   3.592  0.4043  0.2342 -0.0536
 5991TIP3    H139388   1.926   4.751   3.571  0.1992 -0.4412 -0.7012
 5991TIP3    H239389   1.832   4.797   3.680  1.2717  2.0143 -0.7734
 5992TIP3   OH239390   3.133   5.938   3.116  0.2470  0.1244 -0.0352
 5992TIP3    H139391   3.068   5.983   3.170 -1.2302 -1.6579 -0.2667
 5992TIP3    H239392   3.176   5.877   3.176  1.0460  0.6240 -0.0990
 5993TIP3   OH239393   6.546   5.228   2.438 -0.5184 -0.0628 -0.0691
 5993TIP3    H139394   6.585   5.313   2.419  2.0401 -1.2284 -0.2383
 5993TIP3    H239395   6.451   5.244   2.436 -0.1058  2.4690 -1.4302
 5994TIP3   OH239396   5.816   2.738   4.727  0.4232  0.1565  0.0386
 5994TIP3    H139397   5.726   2.705   4.730  1.1746 -2.0205 -0.8834
 5994TIP3    H239398   5.846   2.734   4.818  1.0071 -3.2064 -0.2553
 5995TIP3   OH239399   5.411   5.401   0.948 -0.1397  0.0674 -0.0678
 5995TIP3    H139400   5.342   5.389   1.013 -1.1467 -1.3961 -1.3573
 5995TIP3    H239401   5.474   5.332   0.967  0.2653  0.5182  0.2289
 5996TIP3   OH239402   1.020   1.883  12.354 -0.2193 -0.2938 -0.0182
 5996TIP3    H139403   0.994   1.950  12.291  0.4718 -0.0123 -0.0100
 5996TIP3    H239404   1.000   1.921  12.440  0.4542  0.0379  0.0004
 5997TIP3   OH239405   3.328   5.300  15.131  0.0602 -0.1049  0.5875
 5997TIP3    H139406   3.411   5.280  15.174  0.4133  3.9282  2.0453
 5997TIP3    H239407   3.328   5.396  15.122 -4.1962 -0.0262  0.1815
 5998TIP3   OH239408   2.087   6.083  15.547 -0.0823 -0.0029  0.0647
 5998TIP3    H139409   2.040   6.157  15.509 -0.1723 -2.0544 -4.0670
 5998TIP3    H239410   2.048   6.006  15.506  4.4228 -1.9865 -0.8400
 5999TIP3   OH239411   0.440   2.576   5.463  0.1316 -0.5027 -0.5765
 5999TIP3    H139412   0.503   2.582   5.534  0.1722 -2.7464 -0.3792
 5999TIP3    H239413   0.400   2.489   5.474 -1.2294 -0.1016 -2.1462
 6000TIP3   OH239414   1.547   3.764   0.421  0.8780 -0.3760  0.0039
 6000TIP3    H139415   1.575   3.675   0.397  1.2278 -0.4876  0.8222
 6000TIP3    H239416   1.577   3.775   0.511  0.7842  0.5588 -0.0786
 6001TIP3   OH239417   6.053   3.057   2.970 -0.0888  0.7323  0.2595
 6001TIP3    H139418   5.991   3.091   2.905 -0.4717 -0.6839 -0.1343
 6001TIP3    H239419   6.031   3.105   3.050 -1.4663  0.5236  0.0329
 6002TIP3   OH239420   0.406   0.194  12.037 -0.0785  0.7622  0.0322
 6002TIP3    H139421   0.500   0.192  12.055 -0.3963  0.1412  1.6590
 6002TIP3    H239422   0.386   0.108  11.999 -0.2626  0.3223  1.1151
 6003TIP3   OH239423   0.743   4.051   2.598  0.5153 -0.4870  0.3996
 6003TIP3    H139424   0.833   4.039   2.630  0.6721  2.2381  1.0855
 6003TIP3    H239425   0.749   4.123   2.535 -1.3050  0.3506  1.1436
 6004TIP3   OH239426   5.401   2.566   3.980 -0.3199 -0.4852 -0.5054
 6004TIP3    H139427   5.467   2.544   4.046  0.9238  0.3486 -1.4533
 6004TIP3    H239428   5.415   2.659   3.962 -0.8666 -0.6261 -1.7038
 6005TIP3   OH239429   0.645   5.218   1.337  0.0796 -0.4146 -0.5155
 6005TIP3    H139430   0.666   5.312   1.340 -1.4253 -0.0755  0.3197
 6005TIP3    H239431   0.653   5.190   1.428 -1.7179 -0.5658 -0.3944
 6006TIP3   OH239432   5.322   6.780   4.609  0.5815  0.2323 -0.3580
 6006TIP3    H139433   5.290   6.792   4.520  0.4938 -0.4894 -0.4256
 6006TIP3    H239434   5.417   6.771   4.598  0.7545  1.8321 -0.2099
 6007TIP3   OH239435   3.653   5.138  10.690  0.4345 -0.2091  0.0659
 6007TIP3    H139436   3.724   5.105  10.744  2.1129  0.5732 -1.6132
 6007TIP3    H239437   3.694   5.205  10.634 -1.1728 -1.1158 -2.2825
 6008TIP3   OH239438   0.802   3.450  16.360  0.1014  0.0626  0.0999
 6008TIP3    H139439   0.763   3.510  16.297  0.9748 -1.6460 -2.1757
 6008TIP3    H239440   0.731   3.429  16.421 -1.1820  0.6450 -1.1560
 6009TIP3   OH239441   5.929   4.306  11.833  0.2556  0.0002 -0.1210
 6009TIP3    H139442   5.951   4.370  11.766  0.9245 -0.6896 -0.5698
 6009TIP3    H239443   5.903   4.358  11.909  0.0370  0.7858 -0.7331
 6010TIP3   OH239444   2.981   3.108  11.960 -0.2454 -0.3495  0.2511
 6010TIP3    H139445   3.046   3.038  11.951 -0.2680 -0.2024 -1.1703
 6010TIP3    H239446   2.994   3.163  11.883  1.5115  2.6990  2.6100
 6011TIP3   OH239447   2.596   4.794  11.959  0.4852 -0.5005  0.2752
 6011TIP3    H139448   2.689   4.772  11.954  0.7348  0.5319  0.2786
 6011TIP3    H239449   2.570   4.771  12.048  0.2890 -2.4858 -0.2756
 6012TIP3   OH239450   2.975   4.153  17.046  0.3181  0.1208 -0.4107
 6012TIP3    H139451   3.061   4.113  17.032  0.7241  0.4759  1.0262
 6012TIP3    H239452   2.938   4.105  17.119 -0.1086  0.9152 -0.1025
 6013TIP3   OH239453   6.266   6.040   3.097  0.4554 -0.0120  0.2817
 6013TIP3    H139454   6.306   6.123   3.124 -2.1957  1.4613 -0.0892
 6013TIP3    H239455   6.201   6.022   3.165 -0.8803 -0.3273 -1.0364
 6014TIP3   OH239456   6.371   0.165   0.080 -0.3741 -0.1234  0.1095
 6014TIP3    H139457   6.318   0.226   0.029  0.9225  1.7416  0.9559
 6014TIP3    H239458   6.461   0.182   0.053  0.0468 -1.4446  0.6058
 6015TIP3   OH239459   4.055   6.465   4.196 -0.4688  0.0029  0.6149
 6015TIP3    H139460   4.147   6.440   4.195 -0.6377 -0.6168  0.5409
 6015TIP3    H239461   4.009   6.392   4.154 -0.5275  2.3510 -3.6912
 6016TIP3   OH239462   3.240   0.656   3.464  0.6952  0.1282 -0.0798
 6016TIP3    H139463   3.314   0.711   3.439  1.3067 -1.8272 -2.7634
 6016TIP3    H239464   3.166   0.716   3.470  2.0343  1.7647  0.5410
 6017TIP3   OH239465   5.160   3.013   3.138  0.1945 -0.2573 -0.3754
 6017TIP3    H139466   5.232   2.987   3.196  2.2118  1.2584 -2.0903
 6017TIP3    H239467   5.116   3.084   3.185 -0.7347 -1.7660  1.0638
 6018TIP3   OH239468   1.124   4.590  16.575 -0.2334  0.2641  0.2492
 6018TIP3    H139469   1.081   4.673  16.594  0.9866  0.7302  1.0567
 6018TIP3    H239470   1.151   4.598  16.483 -2.1111 -0.1614 -0.3532
 6019TIP3   OH239471   5.228   5.146  16.842 -0.7381 -0.1933  0.5241
 6019TIP3    H139472   5.170   5.212  16.881 -1.2462 -1.3557  1.7910
 6019TIP3    H239473   5.239   5.080  16.911 -0.9545 -1.8723 -1.0110
 6020TIP3   OH239474   4.588   1.902   0.510  0.4331 -0.2440 -0.1466
 6020TIP3    H139475   4.659   1.840   0.499  0.5027 -0.1193 -0.4054
 6020TIP3    H239476   4.514   1.850   0.541  1.4454  0.0467  2.9127
 6021TIP3   OH239477   2.906   5.356   2.051 -0.2655 -0.3076  0.4375
 6021TIP3    H139478   2.999   5.332   2.054 -0.3457 -0.6146  0.5390
 6021TIP3    H239479   2.899   5.430   2.111 -0.4921 -1.7233  2.2174
 6022TIP3   OH239480   4.902   2.347   5.282 -0.1097  0.1006 -0.1879
 6022TIP3    H139481   4.958   2.420   5.308 -0.4903  0.7391 -1.1328
 6022TIP3    H239482   4.893   2.294   5.362  0.4616  0.8916  0.4082
 6023TIP3   OH239483   5.249   2.372  14.561 -0.0507 -0.5260  0.5909
 6023TIP3    H139484   5.205   2.437  14.615 -0.1071 -1.2821  1.4842
 6023TIP3    H239485   5.201   2.373  14.478  0.2845  0.9256  0.4072
 6024TIP3   OH239486   6.191   1.989   2.711  0.1501 -0.4888  0.2431
 6024TIP3    H139487   6.197   2.084   2.697 -0.7424 -0.6779 -1.5333
 6024TIP3    H239488   6.240   1.952   2.638 -0.8513 -1.4322  0.0500
 6025TIP3   OH239489   5.538   6.591  15.679 -0.1825  0.0259  0.4223
 6025TIP3    H139490   5.483   6.558  15.607  0.7170  0.1987 -0.3490
 6025TIP3    H239491   5.627   6.564  15.655  0.2634  1.0597  0.9208
 6026TIP3   OH239492   2.508   2.878  15.555  0.0864 -0.2272 -0.0261
 6026TIP3    H139493   2.469   2.794  15.531 -2.2665  0.7484  0.2698
 6026TIP3    H239494   2.491   2.935  15.479  1.8142 -0.0299 -0.2977
 6027TIP3   OH239495   4.098   3.048   1.815 -0.1003  0.1751 -0.1927
 6027TIP3    H139496   4.191   3.073   1.818 -0.0474  0.0228 -0.4939
 6027TIP3    H239497   4.099   2.956   1.789 -0.3456  0.2405 -0.4371
 6028TIP3   OH239498   0.151   1.952   4.690 -0.6818  0.0330 -0.0858
 6028TIP3    H139499   0.078   1.967   4.631  1.1739 -0.2037 -2.5280
 6028TIP3    H239500   0.190   1.870   4.660  0.8517  0.3730  0.8792
 6029TIP3   OH239501   5.289   0.924  14.590  0.2224  0.0304  0.1452
 6029TIP3    H139502   5.196   0.941  14.575  0.0131 -0.5852  0.6847
 6029TIP3    H239503   5.330   1.010  14.590 -0.5301  0.3987  1.0321
 6030TIP3   OH239504   3.825   3.494   4.933  0.2420  0.2773  1.0394
 6030TIP3    H139505   3.764   3.478   5.004  1.0749 -2.2552  1.2640
 6030TIP3    H239506   3.911   3.474   4.971  0.5875 -2.4305 -0.9566
 6031TIP3   OH239507   1.591   2.827  14.136 -0.4402  0.2498  0.1701
 6031TIP3    H139508   1.602   2.908  14.185 -0.2766 -0.3173  1.0962
 6031TIP3    H239509   1.560   2.854  14.049  1.5970  1.4322 -0.2100
 6032TIP3   OH239510   4.278   3.599  11.108 -0.1008  0.4972 -0.2579
 6032TIP3    H139511   4.362   3.621  11.068 -0.6716  0.7964 -1.3257
 6032TIP3    H239512   4.228   3.680  11.105 -1.3134 -0.2768 -1.9195
 6033TIP3   OH239513   3.180   1.670  13.426 -0.4786 -0.0736  0.7876
 6033TIP3    H139514   3.246   1.610  13.458  0.7417 -0.9893 -3.1710
 6033TIP3    H239515   3.097   1.637  13.461  0.3479 -3.2421 -0.1230
 6034TIP3   OH239516   2.360   5.734   1.042 -0.4791  0.3784  0.2034
 6034TIP3    H139517   2.402   5.812   1.079 -0.5610 -0.0981  1.3221
 6034TIP3    H239518   2.267   5.752   1.050 -0.5376 -0.7251  2.4710
 6035TIP3   OH239519   0.152   1.414   5.794 -0.1082 -0.6138  0.6797
 6035TIP3    H139520   0.176   1.429   5.885  0.7386  0.3979  0.2953
 6035TIP3    H239521   0.229   1.441   5.744 -1.8580  2.3179 -0.5352
 6036TIP3   OH239522   4.902   0.207  16.327  0.6580 -0.5822  0.1047
 6036TIP3    H139523   4.907   0.265  16.251 -0.4048  1.0228  1.2198
 6036TIP3    H239524   4.985   0.220  16.372  0.3293  0.2756  0.4766
 6037TIP3   OH239525   6.614   5.991   3.847 -0.0456 -0.5095 -0.4393
 6037TIP3    H139526   6.604   6.071   3.796 -0.5973 -0.6058 -0.4807
 6037TIP3    H239527   6.622   6.021   3.938  1.4519 -0.3033 -0.6169
 6038TIP3   OH239528   3.386   5.138   4.313  0.6834  0.1334  0.6009
 6038TIP3    H139529   3.382   5.227   4.278  1.2386 -0.5574 -1.2656
 6038TIP3    H239530   3.477   5.127   4.340  0.9185 -0.2810 -0.3304
 6039TIP3   OH239531   4.411   0.018   2.007 -0.3819  0.3056 -0.0117
 6039TIP3    H139532   4.437  -0.044   1.940  0.2523 -0.8625  1.2861
 6039TIP3    H239533   4.480   0.084   2.008  1.1412 -1.2445  1.4615
 6040TIP3   OH239534   4.241   1.135   1.848  0.3848  0.0268 -0.1572
 6040TIP3    H139535   4.177   1.183   1.796  0.0691  0.2255  0.4162
 6040TIP3    H239536   4.324   1.181   1.833 -0.1164  1.4081  1.2457
 6041TIP3   OH239537   0.983   4.945  14.532  0.0768  0.0718  0.7762
 6041TIP3    H139538   1.055   4.980  14.584  0.2328  0.2278  0.4559
 6041TIP3    H239539   0.985   4.850  14.547  0.2492  0.0960  0.8919
 6042TIP3   OH239540   1.391   4.185   4.427  0.5665  0.6378 -0.3909
 6042TIP3    H139541   1.442   4.108   4.401 -0.9073 -0.9601  1.3221
 6042TIP3    H239542   1.412   4.198   4.520 -2.3488 -0.2471  0.4231
 6043TIP3   OH239543   3.461   0.836   2.666 -0.2224 -0.0166 -0.0521
 6043TIP3    H139544   3.425   0.869   2.583 -0.7528  2.1017  0.9828
 6043TIP3    H239545   3.409   0.880   2.733  2.1475  0.5728  1.4439
 6044TIP3   OH239546   2.759   1.534  12.942 -0.0726 -0.6359  0.1150
 6044TIP3    H139547   2.811   1.476  12.997 -0.0123  0.3652  1.1502
 6044TIP3    H239548   2.668   1.515  12.966 -0.1957 -2.2610 -1.5669
 6045TIP3   OH239549   5.680   4.327   5.691  0.0076  0.2567 -0.1083
 6045TIP3    H139550   5.700   4.349   5.782  0.7911 -0.6775 -0.0548
 6045TIP3    H239551   5.698   4.234   5.684  1.8376  0.7005 -1.7317
 6046TIP3   OH239552   1.688   3.331  16.540  0.1065 -0.5256  0.0219
 6046TIP3    H139553   1.629   3.271  16.587 -1.6509  0.5779 -0.7093
 6046TIP3    H239554   1.668   3.417  16.576 -1.0087  0.2936 -2.4101
 6047TIP3   OH239555   1.293   0.968   0.523 -0.0127  0.1783 -0.2087
 6047TIP3    H139556   1.339   1.050   0.544  0.2636  0.1973 -0.8748
 6047TIP3    H239557   1.351   0.899   0.557 -0.0569  0.2443  0.0010
 6048TIP3   OH239558   0.347   4.988  16.469  0.2645  0.0139  0.1021
 6048TIP3    H139559   0.350   5.009  16.562  0.5728  0.2572  0.0394
 6048TIP3    H239560   0.434   4.953  16.449  0.8725  1.8358 -0.5315
 6049TIP3   OH239561   4.627   4.369   2.408  0.0540 -0.1417 -0.4737
 6049TIP3    H139562   4.538   4.341   2.427  1.1374 -2.0859  2.0419
 6049TIP3    H239563   4.631   4.459   2.439 -1.0526  0.0031 -0.7266
 6050TIP3   OH239564   0.416   4.783   3.595 -0.5687  0.0672 -0.0611
 6050TIP3    H139565   0.458   4.847   3.538  0.9061 -1.2187 -0.4550
 6050TIP3    H239566   0.388   4.834   3.671 -0.6832  1.4147 -0.9834
 6051TIP3   OH239567   4.165   0.565   6.079  0.2658  0.1416  0.0778
 6051TIP3    H139568   4.187   0.499   6.145  1.5445  0.5142  0.0255
 6051TIP3    H239569   4.114   0.631   6.126 -1.3702 -1.0695  0.0467
 6052TIP3   OH239570   2.124   1.683   5.398  0.2604  0.2298  0.1145
 6052TIP3    H139571   2.216   1.711   5.393 -0.5206  2.6432 -1.4754
 6052TIP3    H239572   2.098   1.672   5.306 -0.9679 -0.7377  0.5693
 6053TIP3   OH239573   0.016   1.267   3.255  0.8272  0.3271 -0.0562
 6053TIP3    H139574  -0.016   1.329   3.189  2.3400  1.7784  0.5353
 6053TIP3    H239575   0.031   1.320   3.333  5.3738 -0.0932 -0.5347
 6054TIP3   OH239576   4.055   1.488  16.223  0.8611 -0.2775 -0.3978
 6054TIP3    H139577   3.971   1.534  16.223 -0.5895 -2.8438  0.4086
 6054TIP3    H239578   4.118   1.554  16.194 -1.4616  1.6098 -1.3448
 6055TIP3   OH239579   6.066   1.677  13.398  0.6346  0.0496 -0.9342
 6055TIP3    H139580   6.143   1.682  13.455  0.2575 -2.1300 -0.1965
 6055TIP3    H239581   6.077   1.595  13.350 -1.9062 -0.9970  0.1914
 6056TIP3   OH239582   0.023   5.707   3.236  0.6530  0.3242 -0.3344
 6056TIP3    H139583   0.093   5.757   3.278 -0.6332  3.3721 -1.6716
 6056TIP3    H239584  -0.058   5.743   3.273 -0.3270 -0.4101 -1.7017
 6057TIP3   OH239585   0.328   5.658  14.727 -0.1030 -0.4015  0.0462
 6057TIP3    H139586   0.400   5.598  14.747  0.4608  0.1807 -0.2396
 6057TIP3    H239587   0.249   5.608  14.748  0.3243 -1.6058 -1.0825
 6058TIP3   OH239588   3.629   3.498   3.310 -0.1046  0.3866 -0.3345
 6058TIP3    H139589   3.629   3.407   3.339  0.4368  0.3844 -0.3484
 6058TIP3    H239590   3.648   3.549   3.389  0.3641  0.4398 -0.4783
 6059TIP3   OH239591   0.722   6.148   0.757  0.0144  0.2151  0.1677
 6059TIP3    H139592   0.797   6.139   0.816 -0.2964 -1.2011  0.3670
 6059TIP3    H239593   0.670   6.218   0.796  0.1962 -0.1932  1.1731
 6060TIP3   OH239594   5.154   2.301   3.987 -0.4184  0.7935  0.2612
 6060TIP3    H139595   5.148   2.244   4.064 -1.1644 -0.4031 -0.6567
 6060TIP3    H239596   5.193   2.382   4.020 -1.7990  0.7338  2.1367
 6061TIP3   OH239597   2.276   4.920  15.251  0.0656 -0.4716  0.3199
 6061TIP3    H139598   2.263   4.864  15.328 -2.6475  1.3374  1.2268
 6061TIP3    H239599   2.190   4.926  15.211  0.7580  1.3653 -0.9481
 6062TIP3   OH239600   4.423   4.637  13.299 -0.2093  0.0821  0.3433
 6062TIP3    H139601   4.396   4.557  13.253 -0.1995  0.3787 -0.1691
 6062TIP3    H239602   4.407   4.708  13.237  0.5370  0.3998  0.5036
 6063TIP3   OH239603   4.941   1.883  16.057 -0.2773  0.2203  0.1929
 6063TIP3    H139604   4.888   1.830  16.118 -0.2458  0.4585  0.4295
 6063TIP3    H239605   4.904   1.971  16.064 -3.2140 -0.6075 -3.4116
 6064TIP3   OH239606   5.516   2.327   0.982 -0.9275 -0.1868  0.1626
 6064TIP3    H139607   5.606   2.331   0.950 -0.3283 -0.5931  1.7537
 6064TIP3    H239608   5.518   2.372   1.067 -2.0910 -0.7305  0.4980
 6065TIP3   OH239609   4.337   4.521   2.644 -0.3384 -0.2815 -0.1889
 6065TIP3    H139610   4.402   4.592   2.647  0.9495 -1.3516 -1.7997
 6065TIP3    H239611   4.337   4.494   2.552 -1.4485 -1.7942  0.2545
 6066TIP3   OH239612   4.733   4.043  12.402 -0.0752 -0.0103 -0.3373
 6066TIP3    H139613   4.662   4.089  12.358  0.0573  1.4538  0.9572
 6066TIP3    H239614   4.702   4.031  12.492  1.3784  0.7711  0.2753
 6067TIP3   OH239615   0.148   5.323  11.696 -0.3297  0.2096  0.2076
 6067TIP3    H139616   0.180   5.404  11.655  1.8149  0.4754  2.2817
 6067TIP3    H239617   0.117   5.351  11.782  0.3909 -1.1482  0.9299
 6068TIP3   OH239618   3.625   4.915   2.476  0.7033 -0.3707  0.5329
 6068TIP3    H139619   3.669   4.875   2.551  2.5701  1.1325  0.2648
 6068TIP3    H239620   3.642   4.854   2.403 -1.0551 -1.7935  1.2564
 6069TIP3   OH239621   3.268   1.846  16.217 -0.1707  0.5305 -1.0362
 6069TIP3    H139622   3.188   1.880  16.256  0.5331 -0.0122  0.9726
 6069TIP3    H239623   3.238   1.782  16.153 -1.3826 -1.6327  1.5585
 6070TIP3   OH239624   3.004   1.452  15.646 -0.0365  0.1236 -0.3834
 6070TIP3    H139625   3.028   1.360  15.654  0.5441  0.3771  0.9116
 6070TIP3    H239626   2.910   1.450  15.626 -0.4334 -0.7380  1.3965
 6071TIP3   OH239627   2.153   4.519   0.566 -0.0207 -0.9122  0.5097
 6071TIP3    H139628   2.228   4.556   0.519 -0.7053 -0.7734 -0.4703
 6071TIP3    H239629   2.086   4.588   0.562 -0.0458 -0.8534  1.7754
 6072TIP3   OH239630   5.257   2.057   3.421  0.3018  0.0968 -0.5582
 6072TIP3    H139631   5.253   1.988   3.487 -1.4221 -0.4614 -1.2142
 6072TIP3    H239632   5.188   2.034   3.358 -0.3613  2.4574 -0.7372
 6073TIP3   OH239633   4.693   6.076  14.702  0.4984 -0.4640  0.0459
 6073TIP3    H139634   4.602   6.045  14.699  0.6176 -0.7125 -1.8225
 6073TIP3    H239635   4.687   6.165  14.736 -0.6077 -0.0018 -1.3012
 6074TIP3   OH239636   3.142   1.471   3.671 -0.0439  0.0826  0.1666
 6074TIP3    H139637   3.173   1.549   3.717  0.6692 -0.0528 -0.0660
 6074TIP3    H239638   3.047   1.473   3.680  0.0095  0.7009  0.6053
 6075TIP3   OH239639   0.344   3.626  12.685  0.1344 -0.5575  0.2464
 6075TIP3    H139640   0.377   3.711  12.715 -0.0085 -0.2640 -0.4161
 6075TIP3    H239641   0.421   3.583  12.648 -0.1437  0.0024 -1.0172
 6076TIP3   OH239642   2.576   3.631   4.694  0.1397  0.2978  0.2114
 6076TIP3    H139643   2.655   3.683   4.681  0.9122 -0.8825  0.0581
 6076TIP3    H239644   2.590   3.553   4.639 -0.6376 -0.4366  1.0342
 6077TIP3   OH239645   0.831   5.357   5.547 -0.5775  0.3418  0.0930
 6077TIP3    H139646   0.806   5.292   5.482  1.8588 -0.5641  0.0163
 6077TIP3    H239647   0.851   5.306   5.625 -0.3061  1.1470  0.5488
 6078TIP3   OH239648   0.664   4.734  14.325 -0.0616  0.2452  0.4586
 6078TIP3    H139649   0.666   4.829  14.327 -0.1004  0.2206  3.3011
 6078TIP3    H239650   0.752   4.709  14.295  0.0997  1.1459  0.1586
 6079TIP3   OH239651   5.332   0.689   2.368  0.0579 -0.1974 -0.4577
 6079TIP3    H139652   5.256   0.677   2.311  0.2460 -1.6544 -0.4353
 6079TIP3    H239653   5.407   0.671   2.311  0.2557 -1.4016  0.1742
 6080TIP3   OH239654   3.570   5.809   1.816  0.2163  0.1160 -0.4679
 6080TIP3    H139655   3.638   5.769   1.870  1.2114  2.1469 -0.1368
 6080TIP3    H239656   3.596   5.901   1.811 -2.0804  0.7633 -1.0032
 6081TIP3   OH239657   5.772   2.600  15.959  0.6197  0.2924  0.2904
 6081TIP3    H139658   5.750   2.573  16.048 -0.1107  0.4574  0.1679
 6081TIP3    H239659   5.728   2.536  15.903 -0.5696  1.3404  0.0135
 6082TIP3   OH239660   0.583   5.473  15.902  0.4184 -0.0780  0.2315
 6082TIP3    H139661   0.584   5.567  15.881 -3.7447  0.1384  0.4907
 6082TIP3    H239662   0.588   5.470  15.997  0.5035 -0.1020  0.2259
 6083TIP3   OH239663   5.487   3.788  11.295  1.1534 -0.1115  0.2985
 6083TIP3    H139664   5.420   3.720  11.286  1.1780  0.2599 -3.0379
 6083TIP3    H239665   5.546   3.754  11.362  0.2930 -2.6398 -0.1648
 6084TIP3   OH239666   4.049   1.660  17.216 -0.1367  0.5677 -0.1901
 6084TIP3    H139667   4.074   1.677  17.306  1.8540  0.0050 -0.6199
 6084TIP3    H239668   4.126   1.684  17.164 -1.7147  2.1748 -1.8810
 6085TIP3   OH239669   3.427   0.934   5.706 -0.5016 -0.3051 -0.0456
 6085TIP3    H139670   3.433   1.029   5.694  0.7737 -0.5668 -1.6925
 6085TIP3    H239671   3.413   0.922   5.800  2.4613  1.4193  0.6755
 6086TIP3   OH239672   4.917   6.763   2.431 -0.0249 -0.2932 -0.2837
 6086TIP3    H139673   4.932   6.740   2.523  0.2433  0.6549 -0.0857
 6086TIP3    H239674   4.979   6.833   2.413 -1.1208  0.5817 -0.7431
 6087TIP3   OH239675   5.312   3.176  16.769 -0.0803 -0.1206 -0.4524
 6087TIP3    H139676   5.295   3.124  16.690  1.7607 -0.4124 -0.6877
 6087TIP3    H239677   5.296   3.115  16.841 -1.0251 -0.0768 -0.6165
 6088TIP3   OH239678   0.917   5.927  15.650  0.2649  0.4401 -0.1929
 6088TIP3    H139679   0.858   5.989  15.691 -0.5230 -0.0820 -0.5319
 6088TIP3    H239680   0.878   5.841  15.665  0.5125  0.1529 -1.1028
 6089TIP3   OH239681   5.236   0.508   6.422  0.2915 -0.3968  0.1618
 6089TIP3    H139682   5.324   0.481   6.395  2.4885  1.0674  5.1569
 6089TIP3    H239683   5.225   0.596   6.385  0.8215 -0.6710 -0.6677
 6090TIP3   OH239684   4.356   6.011  14.717  0.8259  0.1112 -0.4295
 6090TIP3    H139685   4.288   5.959  14.761  0.8541  0.8056  0.4536
 6090TIP3    H239686   4.309   6.085  14.679  1.0138  0.3218 -0.2564
 6091TIP3   OH239687   1.992   6.206   4.871  0.3080 -0.2475  0.4032
 6091TIP3    H139688   1.913   6.259   4.856  0.3822  0.3474  2.0089
 6091TIP3    H239689   1.958   6.117   4.886  0.0602 -0.3159 -0.5522
 6092TIP3   OH239690   5.066   3.012   4.944  0.3737  0.1073 -1.1325
 6092TIP3    H139691   5.090   3.041   4.855  0.7284 -0.3492 -1.1874
 6092TIP3    H239692   5.086   2.919   4.944  1.5688  0.3495 -0.1743
 6093TIP3   OH239693   4.400   2.084  12.433 -0.1912  0.0729 -0.2618
 6093TIP3    H139694   4.486   2.083  12.392 -0.1354 -0.2517 -0.1347
 6093TIP3    H239695   4.343   2.037  12.373  0.4259 -2.6703  1.1963
 6094TIP3   OH239696   4.787   0.452  17.223  0.7179 -0.2596  0.6127
 6094TIP3    H139697   4.762   0.413  17.140 -1.4868  0.9235  0.6771
 6094TIP3    H239698   4.731   0.409  17.288  2.6573 -1.4231  1.5518
 6095TIP3   OH239699   1.539   5.549  14.297  0.0371  0.1926 -0.0046
 6095TIP3    H139700   1.478   5.604  14.346 -0.8098  2.3035 -3.2768
 6095TIP3    H239701   1.483   5.497  14.240  1.1188 -0.6946 -0.2757
 6096TIP3   OH239702   1.056   3.297  13.309  0.1298 -0.0780 -0.7247
 6096TIP3    H139703   1.061   3.371  13.248  1.2188 -1.4646 -2.3638
 6096TIP3    H239704   0.999   3.234  13.264  1.4411 -1.3669 -0.5924
 6097TIP3   OH239705   5.721   0.956   2.301  0.0756 -0.0950  0.6137
 6097TIP3    H139706   5.659   0.989   2.236  0.5955  0.7710  0.5620
 6097TIP3    H239707   5.666   0.928   2.374 -0.1629  4.5701  2.3484
 6098TIP3   OH239708   2.797   1.377  14.396 -0.6073  0.1743 -0.4736
 6098TIP3    H139709   2.890   1.355  14.405 -1.1746 -2.4589 -0.7749
 6098TIP3    H239710   2.765   1.380  14.486 -0.0393  2.0593 -0.3145
 6099TIP3   OH239711   2.425   3.310  14.914  0.3517  0.4127 -0.4870
 6099TIP3    H139712   2.517   3.306  14.941 -0.3284 -1.1890  1.7716
 6099TIP3    H239713   2.377   3.329  14.994 -1.3142  1.0068 -1.6026
 6100TIP3   OH239714   1.517   4.342   4.961  1.0394 -0.2254  0.0340
 6100TIP3    H139715   1.519   4.432   4.993  0.3394 -0.9128  2.0243
 6100TIP3    H239716   1.435   4.306   4.993  1.6150 -1.7986 -0.1916
 6101TIP3   OH239717   6.045   2.846  16.471  0.1867  0.0701 -0.5086
 6101TIP3    H139718   6.134   2.881  16.465  0.3645  0.0998  1.7226
 6101TIP3    H239719   5.989   2.924  16.476  0.1734  0.0508 -0.3505
 6102TIP3   OH239720   4.137   1.408  11.850  0.2789 -0.5866 -0.0675
 6102TIP3    H139721   4.198   1.478  11.828  0.9268 -0.5912  1.6708
 6102TIP3    H239722   4.183   1.328  11.826 -0.2431 -0.4498 -1.5456
 6103TIP3   OH239723   2.487   0.683   1.519  0.5325 -0.4145  0.4814
 6103TIP3    H139724   2.571   0.705   1.479  0.3990  1.3581  1.1034
 6103TIP3    H239725   2.499   0.704   1.612 -0.9102  0.8715  0.4062
 6104TIP3   OH239726   2.033   2.088  15.613 -0.0106 -0.1454 -0.8436
 6104TIP3    H139727   2.029   2.108  15.706 -1.1467 -0.6254 -0.7924
 6104TIP3    H239728   1.954   2.038  15.595  0.3770 -0.3597 -1.9952
 6105TIP3   OH239729   4.825   3.096  15.380 -0.2054  0.2546 -0.3780
 6105TIP3    H139730   4.889   3.120  15.313  0.6873  2.1234  1.0855
 6105TIP3    H239731   4.749   3.151  15.362 -0.5915 -0.4314 -0.8442
 6106TIP3   OH239732   1.551   3.560  12.192 -0.2634  0.1651 -0.0785
 6106TIP3    H139733   1.514   3.547  12.105 -1.0513 -1.8801  0.5387
 6106TIP3    H239734   1.644   3.580  12.176 -0.4568  0.0754 -1.3755
 6107TIP3   OH239735   1.104   0.658   4.323 -0.1116 -0.0682 -0.7562
 6107TIP3    H139736   1.156   0.734   4.348 -0.3138 -0.5831  1.2917
 6107TIP3    H239737   1.016   0.678   4.355 -0.1943 -1.0906 -0.3180
 6108TIP3   OH239738   1.942   3.046  11.233 -0.5918  0.6244  0.4266
 6108TIP3    H139739   1.895   3.121  11.196 -2.3448 -1.2549 -1.3261
 6108TIP3    H239740   2.034   3.067  11.220 -1.1018  1.6017 -1.9753
 6109TIP3   OH239741   5.695   6.689   4.897  0.1760 -0.4317 -0.0580
 6109TIP3    H139742   5.708   6.776   4.860  1.0659 -0.8526 -0.7786
 6109TIP3    H239743   5.613   6.658   4.859  0.0582 -0.0593 -0.1036
 6110TIP3   OH239744   1.230   3.715   0.438 -0.5120  0.0259  0.2570
 6110TIP3    H139745   1.228   3.657   0.515 -0.2369 -0.6709 -0.2549
 6110TIP3    H239746   1.295   3.782   0.461 -2.3497  1.3604  1.7073
 6111TIP3   OH239747   1.726   5.213  17.076  0.1042 -0.2559  0.6386
 6111TIP3    H139748   1.744   5.179  16.989  4.5123  0.3514  1.1769
 6111TIP3    H239749   1.723   5.308  17.064 -2.5800 -0.2868  0.6889
 6112TIP3   OH239750   4.137   5.730   5.467  0.3599 -0.6000  0.4169
 6112TIP3    H139751   4.045   5.748   5.449  1.2149  2.9779 -0.8538
 6112TIP3    H239752   4.160   5.659   5.407 -1.6453 -1.8907  1.1172
 6113TIP3   OH239753   1.939   5.847  15.417 -0.7781  0.0826 -0.0726
 6113TIP3    H139754   1.921   5.769  15.469 -1.7503 -0.3957 -1.1035
 6113TIP3    H239755   1.859   5.860  15.365  0.2604  0.3974 -1.6213
 6114TIP3   OH239756   4.542   4.894  11.774  0.5160 -0.9237  0.1233
 6114TIP3    H139757   4.508   4.982  11.793 -3.1897 -1.8321 -1.8668
 6114TIP3    H239758   4.590   4.904  11.692  0.9235 -0.6051  0.3939
 6115TIP3   OH239759   5.595   4.801   5.774 -0.9262 -0.4663 -0.5481
 6115TIP3    H139760   5.669   4.772   5.722  1.0622 -0.4650  2.1639
 6115TIP3    H239761   5.519   4.756   5.736  0.7616 -2.0613 -2.0835
 6116TIP3   OH239762   5.709   5.729   2.004  0.3859 -0.4523 -0.1921
 6116TIP3    H139763   5.633   5.697   1.956  1.1723  1.1595 -2.5948
 6116TIP3    H239764   5.673   5.775   2.080 -1.0009  0.1117 -1.1894
 6117TIP3   OH239765   4.569   2.373  11.990  0.4013 -0.0379  0.0001
 6117TIP3    H139766   4.608   2.459  11.970 -1.1937  0.7171  0.0374
 6117TIP3    H239767   4.505   2.360  11.920 -0.6114 -0.3734  0.9712
 6118TIP3   OH239768   3.740   0.837  12.405  0.6032 -0.5346 -0.0720
 6118TIP3    H139769   3.688   0.901  12.356 -0.4575 -0.4570  1.1226
 6118TIP3    H239770   3.735   0.757  12.354 -0.2365 -0.3738 -0.2404
 6119TIP3   OH239771   0.380   2.792   4.031 -0.8357  1.0068  0.0582
 6119TIP3    H139772   0.381   2.877   3.988 -0.5374  0.8772 -0.1906
 6119TIP3    H239773   0.430   2.805   4.112 -0.9027  1.1002  0.0841
 6120TIP3   OH239774   3.631   2.038  12.238  0.6353  0.0537  0.0842
 6120TIP3    H139775   3.634   1.950  12.275 -2.4472 -0.3555 -0.4758
 6120TIP3    H239776   3.581   2.028  12.156 -0.1940  2.3779  0.2628
 6121TIP3   OH239777   6.513   1.279  16.081  0.1754  0.1544 -0.3684
 6121TIP3    H139778   6.556   1.247  16.002  0.1285  2.2560 -1.2802
 6121TIP3    H239779   6.420   1.257  16.069  0.4879 -1.5527  0.1651
 6122TIP3   OH239780   2.181   6.278  14.627  0.3500 -0.0731  0.2809
 6122TIP3    H139781   2.182   6.374  14.631  0.2811  0.0125 -1.2272
 6122TIP3    H239782   2.106   6.252  14.680  0.5827  0.6966  0.9861
 6123TIP3   OH239783   1.885   5.193  14.159  0.7725  0.2403  0.4794
 6123TIP3    H139784   1.938   5.177  14.237 -0.1164 -0.4289  0.9604
 6123TIP3    H239785   1.804   5.232  14.192  0.6627  0.5729 -0.1732
 6124TIP3   OH239786   0.441   3.534   0.044 -0.0626  0.5468  0.2471
 6124TIP3    H139787   0.398   3.559   0.125 -1.1259 -1.1741  0.2254
 6124TIP3    H239788   0.371   3.500  -0.012  1.0302 -0.6066 -0.4659
 6125TIP3   OH239789   5.084   0.589   2.893  0.8435  1.1301  0.1579
 6125TIP3    H139790   5.041   0.641   2.825 -1.0550 -0.4070  0.1497
 6125TIP3    H239791   5.044   0.618   2.975 -0.1393 -0.2037  0.1632
 6126TIP3   OH239792   1.276   0.426   5.369 -0.1268 -0.2695 -0.5517
 6126TIP3    H139793   1.229   0.348   5.340  1.9736 -0.7911 -2.6413
 6126TIP3    H239794   1.271   0.486   5.295  2.0084 -0.1244 -0.5871
 6127TIP3   OH239795   3.961   1.595   2.780  0.6241  0.2698  0.1654
 6127TIP3    H139796   3.995   1.584   2.869 -0.1692  0.0753  0.4481
 6127TIP3    H239797   3.906   1.518   2.766  1.6956 -0.3136 -0.9406
 6128TIP3   OH239798   3.056   4.692   5.094  0.0441 -0.2819 -0.4591
 6128TIP3    H139799   3.007   4.691   5.012 -0.1428  0.8813 -0.3591
 6128TIP3    H239800   3.059   4.784   5.120 -2.6782 -0.9576  2.5261
 6129TIP3   OH239801   0.366   5.727  16.620 -0.2295  0.0704  0.2501
 6129TIP3    H139802   0.391   5.641  16.654 -0.7270  0.2897  1.1934
 6129TIP3    H239803   0.440   5.784  16.642 -0.6083  0.2412  1.0932
 6130TIP3   OH239804   0.232   1.466  13.448  0.0137 -0.2561  0.1412
 6130TIP3    H139805   0.276   1.426  13.523 -2.0232 -1.2284  0.8596
 6130TIP3    H239806   0.160   1.405  13.427 -0.4672  0.8437 -1.5281
 6131TIP3   OH239807   5.837   4.550   3.458 -0.2883 -0.3945  0.2620
 6131TIP3    H139808   5.930   4.526   3.464 -0.3516 -0.1544  2.6649
 6131TIP3    H239809   5.835   4.642   3.486 -1.3616 -0.6374  0.9794
 6132TIP3   OH239810   0.713   0.304   1.812 -0.1771  0.1175  0.7458
 6132TIP3    H139811   0.651   0.321   1.884 -0.4134 -0.7122  0.7480
 6132TIP3    H239812   0.665   0.330   1.733  0.0727  1.0057  0.8824
 6133TIP3   OH239813   5.330   2.145  14.413 -0.3633  0.5067  0.0303
 6133TIP3    H139814   5.275   2.214  14.449 -0.0768  1.2571 -0.9378
 6133TIP3    H239815   5.419   2.180  14.416 -0.1236 -0.1094  0.2198
 6134TIP3   OH239816   0.183   2.422  14.077 -0.1877 -0.4845  0.1777
 6134TIP3    H139817   0.267   2.394  14.040 -0.4043 -1.0071  0.0724
 6134TIP3    H239818   0.190   2.517  14.082  0.0672 -0.4451 -0.6861
 6135TIP3   OH239819   3.781   5.116  12.206  0.3025  0.3113 -0.7251
 6135TIP3    H139820   3.733   5.196  12.227 -0.3333  0.9731 -4.3061
 6135TIP3    H239821   3.873   5.142  12.208  0.3131  0.2096  1.5358
 6136TIP3   OH239822   0.390   1.575  11.412  0.0617 -0.5264 -0.1468
 6136TIP3    H139823   0.299   1.550  11.426 -0.0943 -0.4823 -1.0547
 6136TIP3    H239824   0.406   1.556  11.320  0.9801 -0.5501  0.0104
 6137TIP3   OH239825   6.184   1.771   3.521  0.5212 -0.2056  0.1835
 6137TIP3    H139826   6.164   1.787   3.613  1.4593 -2.2792  0.7761
 6137TIP3    H239827   6.168   1.677   3.509  1.1905 -0.1154 -1.5657
 6138TIP3   OH239828   0.072   0.919  12.238 -0.1986  0.1941  0.3499
 6138TIP3    H139829   0.122   0.855  12.187 -0.7337  0.7443 -0.8896
 6138TIP3    H239830   0.043   0.983  12.173 -3.5236 -0.7604  0.8468
 6139TIP3   OH239831   3.122   3.467   1.836 -0.6464 -0.1080  0.3746
 6139TIP3    H139832   3.129   3.379   1.872  0.5498  0.3493  1.3228
 6139TIP3    H239833   3.100   3.522   1.911 -0.2496  0.5536  0.0156
 6140TIP3   OH239834   2.671   5.165   4.996  0.1138 -0.0888  0.3379
 6140TIP3    H139835   2.638   5.253   5.015 -0.1026 -0.2348  0.6458
 6140TIP3    H239836   2.747   5.179   4.939  0.2908  0.3127  0.6723
 6141TIP3   OH239837   4.710   0.976   1.109 -0.3134 -0.3016 -0.3207
 6141TIP3    H139838   4.753   0.928   1.180 -1.4036  0.1341  0.6550
 6141TIP3    H239839   4.662   0.908   1.060  0.5039 -0.6140 -0.7053
 6142TIP3   OH239840   1.880   3.205   3.171 -0.7097 -0.6405  0.1889
 6142TIP3    H139841   1.853   3.297   3.166  0.1985 -0.2160  2.3876
 6142TIP3    H239842   1.946   3.204   3.240  1.4183 -2.4734 -1.8033
 6143TIP3   OH239843   6.219   4.211  15.958 -0.2734 -0.0738 -0.2624
 6143TIP3    H139844   6.147   4.208  15.895 -1.7911 -0.4072  1.4283
 6143TIP3    H239845   6.198   4.143  16.022 -0.4484  2.2917  2.2926
 6144TIP3   OH239846   4.159   1.968  15.592  0.2605 -0.3331  0.0613
 6144TIP3    H139847   4.188   1.897  15.650 -2.1791  0.3681  2.2471
 6144TIP3    H239848   4.075   1.938  15.558 -0.0503  0.8478 -0.2298
 6145TIP3   OH239849   3.448   6.254   3.774  0.0719 -0.5790  0.2028
 6145TIP3    H139850   3.432   6.171   3.818 -0.4111  0.4036  1.9348
 6145TIP3    H239851   3.483   6.311   3.843  2.7329 -0.0742 -1.5213
 6146TIP3   OH239852   2.446   0.603   4.024 -0.0627  0.0382  0.0475
 6146TIP3    H139853   2.524   0.557   4.055 -0.0317 -0.8562 -1.3135
 6146TIP3    H239854   2.402   0.632   4.104  2.2323  1.5531  0.8170
 6147TIP3   OH239855   5.748   2.427  11.463  0.7473 -0.3871  0.2304
 6147TIP3    H139856   5.836   2.401  11.436  0.6648 -0.9830  0.5296
 6147TIP3    H239857   5.702   2.444  11.380  1.8336  2.2873  0.1328
 6148TIP3   OH239858   2.223   3.368  12.450 -0.1371  0.2365  0.0188
 6148TIP3    H139859   2.312   3.358  12.416  0.0969  0.4993  0.5559
 6148TIP3    H239860   2.221   3.457  12.485 -0.6179  0.2374 -0.0116
 6149TIP3   OH239861   2.206   2.246  12.929  0.1649 -0.1888  0.3322
 6149TIP3    H139862   2.276   2.214  12.986  0.8740  1.0184  0.1659
 6149TIP3    H239863   2.248   2.259  12.844 -0.3428  0.2088  0.1388
 6150TIP3   OH239864   6.460   0.591  16.677  0.5245 -0.7856 -0.3786
 6150TIP3    H139865   6.392   0.535  16.715 -0.9811  0.0729 -1.7603
 6150TIP3    H239866   6.412   0.658  16.629  2.3752 -1.5000 -3.3377
 6151TIP3   OH239867   2.072   3.691   2.438 -0.3827  0.0694  0.0387
 6151TIP3    H139868   2.034   3.768   2.481 -0.1895  0.1542  0.0576
 6151TIP3    H239869   2.057   3.620   2.500 -0.4547  0.1142  0.0732
 6152TIP3   OH239870   4.682   6.156  12.984 -0.2358 -0.1785  0.1876
 6152TIP3    H139871   4.732   6.185  12.908 -1.3674  0.1632 -0.4286
 6152TIP3    H239872   4.699   6.224  13.050 -2.3063  1.5740 -1.0200
 6153TIP3   OH239873   2.038   3.930   2.959 -0.2458 -0.1915  0.2543
 6153TIP3    H139874   1.993   3.924   3.043  0.3360 -1.4850  0.4833
 6153TIP3    H239875   2.131   3.923   2.981  0.3077  4.3903 -0.0050
 6154TIP3   OH239876   1.603   6.445   3.446  0.4988 -0.0117 -0.6233
 6154TIP3    H139877   1.578   6.462   3.356  0.4263 -0.4128 -0.6771
 6154TIP3    H239878   1.635   6.530   3.478  0.0807  0.2417 -0.8756
 6155TIP3   OH239879   2.318   2.541  16.912  0.0255  0.2833 -0.0650
 6155TIP3    H139880   2.278   2.576  16.991  1.7374  0.3007  0.8197
 6155TIP3    H239881   2.397   2.592  16.900 -0.7432  0.9940 -2.4160
 6156TIP3   OH239882   3.304   6.469   4.035  0.1998 -0.2674 -0.4205
 6156TIP3    H139883   3.232   6.528   4.058 -0.3182 -0.3167 -1.9087
 6156TIP3    H239884   3.354   6.517   3.970  0.0596 -1.2788 -1.2785
 6157TIP3   OH239885   1.003   6.583   3.572 -0.3833  0.1536 -1.1159
 6157TIP3    H139886   1.085   6.619   3.605 -1.1126 -0.4224  1.4443
 6157TIP3    H239887   0.939   6.600   3.641 -1.8369 -1.6966 -1.9320
 6158TIP3   OH239888   2.509   1.634   3.757 -0.3509 -0.1808 -0.3080
 6158TIP3    H139889   2.576   1.692   3.720 -1.3062  1.0900 -0.0765
 6158TIP3    H239890   2.504   1.659   3.849 -2.2510  0.8265 -0.6680
 6159TIP3   OH239891   6.637   4.655   4.656  0.2562  0.1502 -0.2452
 6159TIP3    H139892   6.613   4.562   4.657 -1.7896  0.6531  0.8677
 6159TIP3    H239893   6.554   4.701   4.647  1.3108  1.8867 -1.4639
 6160TIP3   OH239894   5.006   1.522  16.901  0.1088  0.1957  0.7244
 6160TIP3    H139895   5.092   1.488  16.877 -0.5368 -0.9594  0.0508
 6160TIP3    H239896   5.026   1.594  16.962  1.5905  0.7418 -0.3581
 6161TIP3   OH239897   5.159   5.391  14.440 -0.0441 -0.0423  0.1248
 6161TIP3    H139898   5.128   5.319  14.385  0.0571  0.2606 -0.3354
 6161TIP3    H239899   5.157   5.467  14.382  0.1007  0.2733  0.5325
 6162TIP3   OH239900   4.609   1.992  14.367  0.6836 -0.0547  0.1688
 6162TIP3    H139901   4.633   1.961  14.280  0.7249 -2.5426  1.0341
 6162TIP3    H239902   4.586   1.913  14.415  2.3139  1.0901  2.9555
 6163TIP3   OH239903   1.222   5.091   6.793 -0.0777 -0.2103 -0.0402
 6163TIP3    H139904   1.311   5.063   6.771  0.3175  0.2504  0.9467
 6163TIP3    H239905   1.212   5.176   6.750  0.0524 -0.1485  0.0485
 6164TIP3   OH239906   0.401   6.500   4.757  0.6023 -0.0716 -0.3586
 6164TIP3    H139907   0.426   6.475   4.668 -0.2166  0.2158 -0.6715
 6164TIP3    H239908   0.484   6.512   4.803  1.0236 -1.3301 -0.7694
 6165TIP3   OH239909   0.625   1.735   4.765  0.0225 -0.0634 -0.7626
 6165TIP3    H139910   0.600   1.810   4.819  1.2542 -0.6569  0.6567
 6165TIP3    H239911   0.712   1.757   4.731  0.5939 -1.0417  0.0490
 6166TIP3   OH239912   6.116   5.142   3.424  0.1548 -0.5914  0.1176
 6166TIP3    H139913   6.140   5.185   3.342 -1.4965  0.2470  0.0411
 6166TIP3    H239914   6.050   5.077   3.398 -0.3785 -0.3175  0.7752
 6167TIP3   OH239915   5.995   0.041  15.820 -0.6018 -0.0542 -0.1776
 6167TIP3    H139916   5.957   0.129  15.821 -1.7057 -0.4662  4.3226
 6167TIP3    H239917   5.920  -0.018  15.812  0.0769 -0.6970 -2.3561
 6168TIP3   OH239918   2.243   1.702   3.285 -0.4106  0.2105 -0.0910
 6168TIP3    H139919   2.257   1.614   3.249  0.3128  0.1069  0.4370
 6168TIP3    H239920   2.323   1.720   3.335 -0.4840  1.2378 -0.3351
 6169TIP3   OH239921   5.216   3.554  14.296  0.5433 -0.1227  0.4500
 6169TIP3    H139922   5.169   3.610  14.358  0.2244 -0.0822  0.1758
 6169TIP3    H239923   5.157   3.479  14.284  0.1676  0.3245 -0.5336
 6170TIP3   OH239924   5.795   2.353   2.317 -0.2022  0.3221 -0.2538
 6170TIP3    H139925   5.788   2.437   2.271 -2.7886  0.6718  0.7170
 6170TIP3    H239926   5.845   2.373   2.396 -0.4678  0.8837 -0.2239
 6171TIP3   OH239927   1.219   1.356   3.403  0.6094  0.2080  0.2675
 6171TIP3    H139928   1.241   1.390   3.490  0.0528  2.0453 -0.2780
 6171TIP3    H239929   1.302   1.361   3.354  1.4303 -2.7408  1.2364
 6172TIP3   OH239930   1.657   2.474   4.586 -0.0741 -0.1199  0.1137
 6172TIP3    H139931   1.698   2.537   4.526 -1.4104  1.2322  0.5744
 6172TIP3    H239932   1.563   2.492   4.578 -0.3254 -0.4785  1.9855
 6173TIP3   OH239933   1.021   2.626   0.478 -0.5113  0.0209 -0.0016
 6173TIP3    H139934   0.944   2.575   0.502  0.7700 -1.6124  0.7251
 6173TIP3    H239935   0.996   2.717   0.493 -2.1384 -0.5273  0.6348
 6174TIP3   OH239936   2.856   3.894   3.245 -0.6228 -0.0434 -0.0428
 6174TIP3    H139937   2.789   3.940   3.195 -0.8464 -0.0370  0.2590
 6174TIP3    H239938   2.813   3.871   3.328 -0.1187  0.3396  0.3272
 6175TIP3   OH239939   4.186   2.097   4.049  0.1770  0.6990 -0.0660
 6175TIP3    H139940   4.117   2.160   4.069  1.7983  1.8673  1.9240
 6175TIP3    H239941   4.262   2.127   4.098  1.0833 -2.6044  0.7067
 6176TIP3   OH239942   0.366   0.477   0.617 -0.5461 -0.3573 -0.0762
 6176TIP3    H139943   0.399   0.423   0.546 -1.6530 -0.4612 -0.5226
 6176TIP3    H239944   0.338   0.558   0.575  1.9341  0.9605  0.6989
 6177TIP3   OH239945   1.148   5.993  15.848  0.3177 -0.3367 -0.0126
 6177TIP3    H139946   1.172   5.934  15.918  1.5077  0.1119 -0.0314
 6177TIP3    H239947   1.115   5.936  15.778 -1.1797 -0.7575  1.0152
 6178TIP3   OH239948   2.737   3.979  14.149 -0.0430  0.1199  0.4102
 6178TIP3    H139949   2.731   4.064  14.193 -0.2327  0.6815 -0.6772
 6178TIP3    H239950   2.661   3.931  14.180 -1.2119  1.1969 -0.7185
 6179TIP3   OH239951   5.951   1.450   5.269  0.5041  0.3054 -0.0802
 6179TIP3    H139952   6.003   1.369   5.271  0.6625  0.3722  4.5625
 6179TIP3    H239953   5.867   1.423   5.233  0.8121 -1.8331  0.6621
 6180TIP3   OH239954   5.106   6.361   3.579  0.3501  0.4075  0.0418
 6180TIP3    H139955   5.033   6.400   3.628  1.0737  0.0330  1.4338
 6180TIP3    H239956   5.183   6.409   3.609  1.0652 -1.1595  0.7450
 6181TIP3   OH239957   0.070   4.516  13.209  0.5744 -0.0882  0.1739
 6181TIP3    H139958   0.115   4.544  13.129  2.5669  0.0411  1.2800
 6181TIP3    H239959   0.134   4.532  13.278 -1.3896  0.5107  1.8978
 6182TIP3   OH239960   2.611   4.660  13.589 -0.3545  0.3586  0.0736
 6182TIP3    H139961   2.523   4.651  13.627 -0.4320  1.7137  0.2629
 6182TIP3    H239962   2.668   4.610  13.647 -0.8193  0.5442  0.6971
 6183TIP3   OH239963   3.859   2.944   5.102 -0.5260  0.3731 -0.4361
 6183TIP3    H139964   3.889   2.929   5.012 -0.2795 -0.2687 -0.2483
 6183TIP3    H239965   3.928   2.996   5.142 -0.4946  0.3998 -0.5246
 6184TIP3   OH239966   5.064   1.099   1.104 -0.3486 -0.1881 -0.3068
 6184TIP3    H139967   5.007   1.076   1.177  0.5620 -0.3703  0.3578
 6184TIP3    H239968   5.050   1.030   1.039  0.1440 -0.9823  0.4295
 6185TIP3   OH239969   6.632   5.086  15.563 -0.1634 -0.2703 -0.3469
 6185TIP3    H139970   6.692   5.140  15.512  0.0880 -0.3893 -0.1774
 6185TIP3    H239971   6.618   5.008  15.510  0.2185 -0.4620 -0.1648
 6186TIP3   OH239972   2.447   2.095   5.607 -0.0731 -0.0823 -0.0541
 6186TIP3    H139973   2.429   2.074   5.698 -1.6819  0.2262 -0.2882
 6186TIP3    H239974   2.491   2.180   5.610  1.2899 -0.7944  0.5185
 6187TIP3   OH239975   2.536   1.357  15.083  0.3003 -0.0640 -0.2908
 6187TIP3    H139976   2.533   1.433  15.141  1.4211  1.1352 -1.7580
 6187TIP3    H239977   2.572   1.391  15.001 -0.6414 -1.8516 -1.4843
 6188TIP3   OH239978   4.486   5.812   4.622  0.3502 -0.0623  0.0959
 6188TIP3    H139979   4.437   5.734   4.647  0.4927  0.3804  1.8213
 6188TIP3    H239980   4.454   5.880   4.681  2.3829  0.4540  0.6439
 6189TIP3   OH239981   4.418   1.453  14.478 -0.0521 -0.2048  0.1429
 6189TIP3    H139982   4.372   1.400  14.542 -1.7825  0.9699 -0.1131
 6189TIP3    H239983   4.498   1.404  14.460  0.0522 -0.9702  2.5327
 6190TIP3   OH239984   0.441   3.356  13.111 -0.2524 -0.4544 -0.3793
 6190TIP3    H139985   0.390   3.354  13.030 -1.4372 -0.4525  0.3661
 6190TIP3    H239986   0.523   3.312  13.088 -0.1883  0.4033 -1.8432
 6191TIP3   OH239987   5.002   3.859   5.635 -0.0522  0.8066 -0.3536
 6191TIP3    H139988   4.907   3.851   5.631 -0.0688  1.5929 -1.9113
 6191TIP3    H239989   5.018   3.950   5.662  0.2650  1.1987 -1.8420
 6192TIP3   OH239990   6.297   2.453  14.754 -0.6853  0.5329  0.3102
 6192TIP3    H139991   6.238   2.387  14.719  1.9848 -1.0575 -1.3573
 6192TIP3    H239992   6.277   2.532  14.704 -0.4938 -0.3462 -1.1878
 6193TIP3   OH239993   6.572   0.335   6.373  0.8173 -0.3637  0.0455
 6193TIP3    H139994   6.641   0.358   6.435 -0.7011  0.5411  1.4268
 6193TIP3    H239995   6.600   0.250   6.337  2.2367 -0.4024  1.1828
 6194TIP3   OH239996   3.589   1.498   0.884  0.1146 -0.6929  0.2244
 6194TIP3    H139997   3.564   1.430   0.947 -2.6563 -0.4666 -0.5351
 6194TIP3    H239998   3.560   1.464   0.800 -0.4908  1.0307 -0.2865
 6195TIP3   OH239999   0.031   6.052  17.015 -0.7048 -0.8752  0.2171
 6195TIP3    H140000   0.118   6.044  16.974  0.5815  0.2691  2.6252
 6195TIP3    H240001   0.031   5.985  17.083 -2.4661 -2.1082 -0.9537
 6196TIP3   OH240002   1.660   0.674  17.000 -1.1736  0.1831  0.0281
 6196TIP3    H140003   1.604   0.726  17.058 -0.6669  0.5596  0.1837
 6196TIP3    H240004   1.655   0.585  17.036 -1.7143  0.2052  0.0086
 6197TIP3   OH240005   2.101   0.358   4.314  0.6533 -0.0413  0.3730
 6197TIP3    H140006   2.080   0.309   4.394  1.3226 -0.0130  0.5717
 6197TIP3    H240007   2.026   0.417   4.302  0.5364 -0.0620  0.9725
 6198TIP3   OH240008   5.618   4.941  13.196 -0.0711  0.2494  0.0767
 6198TIP3    H140009   5.534   4.959  13.153  0.3502  0.4965 -0.6474
 6198TIP3    H240010   5.614   4.992  13.277 -0.3699  0.7480 -0.2468
 6199TIP3   OH240011   2.711   3.303   3.610 -0.3616 -0.1442  0.9783
 6199TIP3    H140012   2.641   3.352   3.653 -1.5927  0.2139 -1.3249
 6199TIP3    H240013   2.666   3.231   3.566  0.6376  0.3311 -0.8859
 6200TIP3   OH240014   2.258   2.730  11.135 -0.2364  0.4165  0.1379
 6200TIP3    H140015   2.272   2.716  11.229 -0.3283  0.9960  0.2382
 6200TIP3    H240016   2.173   2.690  11.117  0.0666 -0.2427  0.1784
 6201TIP3   OH240017   2.100   0.178  16.158 -0.8674 -0.1071  0.0963
 6201TIP3    H140018   2.173   0.126  16.192 -1.8632 -2.1545 -0.8231
 6201TIP3    H240019   2.023   0.122  16.168 -1.7988  0.7617 -1.9251
 6202TIP3   OH240020   4.826   0.678  11.621  0.0723  0.3290  0.0627
 6202TIP3    H140021   4.849   0.761  11.579  0.2457  0.5583  0.6123
 6202TIP3    H240022   4.810   0.619  11.548 -0.2144  0.8914 -0.3384
 6203TIP3   OH240023   5.427   4.029   2.850  0.5876 -0.3229 -0.2413
 6203TIP3    H140024   5.390   4.117   2.858  2.5023  0.4229  0.8069
 6203TIP3    H240025   5.454   4.007   2.939 -1.1300 -2.5744 -0.2251
 6204TIP3   OH240026   1.158   6.039  10.918  0.1921 -0.1814 -0.1363
 6204TIP3    H140027   1.125   5.949  10.913 -1.7997  0.5007  0.1039
 6204TIP3    H240028   1.242   6.032  10.963 -0.7145 -1.7617  1.3818
 6205TIP3   OH240029   2.744   3.671  12.811 -0.1469 -0.0023 -0.0605
 6205TIP3    H140030   2.813   3.729  12.781 -0.3713  0.8015  0.9712
 6205TIP3    H240031   2.721   3.618  12.734  1.2905  0.0404 -0.5173
 6206TIP3   OH240032   4.249   0.393  12.008 -0.1883  0.5042  0.2603
 6206TIP3    H140033   4.307   0.340  11.953  1.0217  2.5853 -0.5215
 6206TIP3    H240034   4.292   0.393  12.094 -0.5870 -0.4014  0.4618
 6207TIP3   OH240035   4.487   1.526   1.258 -0.6521  0.1335 -0.1801
 6207TIP3    H140036   4.497   1.613   1.297 -0.5732 -0.7044  1.7291
 6207TIP3    H240037   4.533   1.468   1.318 -0.3982 -1.1956 -1.6304
 6208TIP3   OH240038   2.380   0.961   6.222  0.8460 -0.4384 -0.2465
 6208TIP3    H140039   2.341   0.917   6.147  0.9145 -0.1737 -0.4375
 6208TIP3    H240040   2.399   1.049   6.191  0.3694 -0.1550  0.2401
 6209TIP3   OH240041   2.215   4.419   3.823 -0.1835  0.0345 -0.4566
 6209TIP3    H140042   2.144   4.436   3.885  0.3893 -1.7833  0.7610
 6209TIP3    H240043   2.293   4.415   3.878  0.5968  0.1686 -1.5437
 6210TIP3   OH240044   0.160   3.597  11.468  0.3424 -0.2445 -0.3764
 6210TIP3    H140045   0.128   3.582  11.379  1.3630 -0.8618 -0.6426
 6210TIP3    H240046   0.131   3.685  11.490 -0.5867 -0.3880 -1.0278
 6211TIP3   OH240047   5.871   5.237  15.868 -0.4212 -0.5807 -0.3644
 6211TIP3    H140048   5.904   5.313  15.820  1.5295 -2.1004 -1.5142
 6211TIP3    H240049   5.788   5.216  15.824 -1.2935  1.2069  0.3628
 6212TIP3   OH240050   0.187   1.434   1.017 -0.4682 -0.1056 -0.5728
 6212TIP3    H140051   0.249   1.507   1.020 -1.8290  1.0371  0.5999
 6212TIP3    H240052   0.167   1.416   1.109 -3.3717  0.8354 -1.0039
 6213TIP3   OH240053   1.998   5.038   0.094 -0.7616  0.3559 -0.0128
 6213TIP3    H140054   1.936   4.967   0.107  0.1618 -0.0890  2.0731
 6213TIP3    H240055   2.059   5.032   0.167  0.8262  1.7577 -1.1550
 6214TIP3   OH240056   4.060   3.570  14.459 -0.3112  0.0245 -0.5156
 6214TIP3    H140057   3.996   3.611  14.517 -0.2666  0.9552 -1.0948
 6214TIP3    H240058   4.084   3.640  14.398 -0.2993 -0.9019 -1.5944
 6215TIP3   OH240059   2.232   0.377   4.054 -0.2762 -0.0424  0.0488
 6215TIP3    H140060   2.180   0.337   4.124 -0.6407 -0.7603 -0.6197
 6215TIP3    H240061   2.283   0.445   4.098 -1.8524  0.7495  0.7023
 6216TIP3   OH240062   3.549   6.422  16.463 -0.7739 -0.7262 -0.3417
 6216TIP3    H140063   3.570   6.505  16.422 -1.4525 -1.0380 -1.3297
 6216TIP3    H240064   3.628   6.399  16.513  0.8916 -1.3958 -3.1751
 6217TIP3   OH240065   2.019   4.109   3.634 -0.2473  0.1802  0.3653
 6217TIP3    H140066   2.089   4.134   3.573  0.1230  1.4274  1.2857
 6217TIP3    H240067   1.941   4.104   3.579  0.4531 -0.7405 -0.5846
 6218TIP3   OH240068   0.857   3.273   5.283 -0.0844 -0.5287 -0.5934
 6218TIP3    H140069   0.920   3.312   5.223 -0.0554  0.0121 -0.2200
 6218TIP3    H240070   0.906   3.206   5.330  0.2813  0.0449 -0.1433
 6219TIP3   OH240071   2.641   0.935  13.477 -0.1292 -0.3274 -0.5817
 6219TIP3    H140072   2.651   0.873  13.404 -0.4324 -1.4097  0.2746
 6219TIP3    H240073   2.625   0.879  13.553  1.2067  0.7373  0.4972
 6220TIP3   OH240074   0.808   4.011  12.277  0.1051 -0.3374 -0.2084
 6220TIP3    H140075   0.890   4.060  12.273 -0.1559  0.1318  0.0864
 6220TIP3    H240076   0.804   3.978  12.367  0.0596 -0.5151 -0.2753
 6221TIP3   OH240077   0.155   0.376  15.272  0.1301 -0.1488 -0.4359
 6221TIP3    H140078   0.157   0.287  15.236  0.4885 -0.2927 -0.0576
 6221TIP3    H240079   0.073   0.413  15.238  0.6587 -0.1395 -1.7405
 6222TIP3   OH240080   4.345   4.562  15.050 -0.4875  0.1964 -0.4373
 6222TIP3    H140081   4.390   4.590  15.130 -0.3305 -1.7606  0.1909
 6222TIP3    H240082   4.415   4.532  14.993 -0.7131  0.3443 -0.7908
 6223TIP3   OH240083   4.430   1.043  10.805  0.2338  0.1004  0.1592
 6223TIP3    H140084   4.521   1.071  10.793 -0.3182  1.3844 -1.0240
 6223TIP3    H240085   4.431   0.951  10.777  0.8252  0.5755 -1.4851
 6224TIP3   OH240086   6.099   0.013  14.557 -0.8638 -0.1127 -0.7250
 6224TIP3    H140087   6.119  -0.004  14.649 -2.7896 -0.2942 -0.3299
 6224TIP3    H240088   6.087  -0.074  14.518 -0.1827 -0.0331 -1.1260
 6225TIP3   OH240089   3.891   0.399   3.397  0.2828 -0.5102  0.5560
 6225TIP3    H140090   3.842   0.333   3.349 -0.1574 -1.0372  1.6902
 6225TIP3    H240091   3.961   0.426   3.338  0.7080 -2.2887  0.2246
 6226TIP3   OH240092   0.210   3.125   4.294  0.5317  0.2963 -0.3691
 6226TIP3    H140093   0.171   3.044   4.327  2.3099 -0.6525 -0.5404
 6226TIP3    H240094   0.137   3.175   4.259 -0.8382 -0.4372  1.3996
 6227TIP3   OH240095   4.398   1.474  15.684  0.1825  0.7000 -0.2850
 6227TIP3    H140096   4.475   1.458  15.738 -0.6701  0.5786  0.9311
 6227TIP3    H240097   4.392   1.398  15.626 -0.1773 -0.2945  1.0274
 6228TIP3   OH240098   0.096   1.199  14.732  0.8553  0.6247  0.3223
 6228TIP3    H140099   0.125   1.159  14.814  0.1043 -0.3110  0.1477
 6228TIP3    H240100   0.022   1.255  14.757  2.1964  2.3037  0.6375
 6229TIP3   OH240101   2.777   3.941  12.449 -0.1488  0.0007  0.0761
 6229TIP3    H140102   2.729   3.939  12.532 -1.3857  1.3833 -0.5545
 6229TIP3    H240103   2.826   4.023  12.452 -0.0827 -0.0154 -0.4932
 6230TIP3   OH240104   5.529   1.102   0.722  0.0255  0.9299  0.2739
 6230TIP3    H140105   5.458   1.044   0.749  0.9140 -0.4452 -0.2651
 6230TIP3    H240106   5.486   1.170   0.670 -0.8799  0.0425 -0.1491
 6231TIP3   OH240107   5.719   1.096  15.684  0.6179 -0.8343 -0.1848
 6231TIP3    H140108   5.693   1.031  15.619  1.3586 -1.2693 -0.0469
 6231TIP3    H240109   5.703   1.055  15.768  2.1325 -1.2727 -0.0962
 6232TIP3   OH240110   1.270   5.272  15.536  0.7359 -0.1834 -0.6085
 6232TIP3    H140111   1.257   5.231  15.621  0.3240  2.1778  0.5133
 6232TIP3    H240112   1.184   5.269  15.494  0.3370  0.8890  0.1107
 6233TIP3   OH240113   3.133   4.481   1.817 -0.5214 -0.1017  0.2688
 6233TIP3    H140114   3.106   4.469   1.908 -1.8421  0.6218 -0.0152
 6233TIP3    H240115   3.051   4.493   1.769  0.2121  0.3524 -0.8927
 6234TIP3   OH240116   0.809   6.336   1.589  0.4643 -0.3197 -0.0772
 6234TIP3    H140117   0.724   6.294   1.596  0.2566  0.2975  1.1126
 6234TIP3    H240118   0.833   6.325   1.497 -0.1430 -1.9480 -0.0626
 6235TIP3   OH240119   1.571   6.363  12.117  0.3568 -0.0616  0.2703
 6235TIP3    H140120   1.636   6.308  12.160  0.1357 -0.6321 -0.1283
 6235TIP3    H240121   1.501   6.373  12.181  2.1109  2.9982  1.8812
 6236TIP3   OH240122   4.307   5.808   5.245 -0.4059 -0.2602 -0.0909
 6236TIP3    H140123   4.393   5.766   5.251  0.2390  0.7710 -1.6096
 6236TIP3    H240124   4.245   5.740   5.270  0.8489 -1.0072  1.0769
 6237TIP3   OH240125   2.267   3.640   1.287  0.2811 -0.0931  0.2419
 6237TIP3    H140126   2.257   3.690   1.368 -0.3469 -1.2926  0.9281
 6237TIP3    H240127   2.338   3.579   1.305  1.7311  1.2037 -0.9406
 6238TIP3   OH240128   1.389   5.531   0.411  0.2446 -0.4915  0.6985
 6238TIP3    H140129   1.317   5.590   0.435 -0.4016 -0.0802 -2.0785
 6238TIP3    H240130   1.465   5.589   0.401 -0.3035 -0.1213 -1.6519
 6239TIP3   OH240131   4.223   2.206  11.005 -0.1305 -0.2966  0.1471
 6239TIP3    H140132   4.310   2.228  10.974  0.4961 -0.6096  1.6297
 6239TIP3    H240133   4.180   2.291  11.017 -0.0785 -0.1484 -0.7067
 6240TIP3   OH240134   4.976   1.108   4.183 -0.0988 -0.1215  0.8672
 6240TIP3    H140135   4.969   1.069   4.270  1.4086  0.8891  1.4638
 6240TIP3    H240136   5.070   1.116   4.168 -0.3604  1.6085  0.0205
 6241TIP3   OH240137   6.417   3.953   3.891 -0.5349 -0.3132  0.2252
 6241TIP3    H140138   6.389   4.003   3.814  1.4743 -1.2710 -1.1686
 6241TIP3    H240139   6.453   3.872   3.855 -0.7808 -1.3505  2.2673
 6242TIP3   OH240140   5.255   3.164   1.604  0.1204 -0.1893 -0.2137
 6242TIP3    H140141   5.263   3.215   1.524  2.8478  1.3557  0.9891
 6242TIP3    H240142   5.340   3.172   1.647 -1.8266  0.5990  3.7640
 6243TIP3   OH240143   1.925   3.670   0.541  0.0922  0.0340  0.1476
 6243TIP3    H140144   1.840   3.701   0.571  0.1893 -1.1425  1.7636
 6243TIP3    H240145   1.988   3.715   0.597  0.6005  1.4719 -1.5405
 6244TIP3   OH240146   1.120   2.776  15.507  0.4676 -0.2141 -0.1000
 6244TIP3    H140147   1.032   2.812  15.519  1.1564  1.0818  1.3693
 6244TIP3    H240148   1.117   2.691  15.551 -0.2592 -0.5329 -0.7474
 6245TIP3   OH240149   0.670   5.339   5.963  0.1604 -0.1622 -1.1803
 6245TIP3    H140150   0.648   5.342   5.870 -0.5343  0.3446 -0.9993
 6245TIP3    H240151   0.702   5.427   5.983  2.1051 -0.7812 -1.3695
 6246TIP3   OH240152   1.678   2.252   0.985 -0.5844  0.1302  0.1763
 6246TIP3    H140153   1.620   2.324   0.961  0.6810  0.7659 -1.0334
 6246TIP3    H240154   1.689   2.202   0.903  1.1448  0.4385  0.2139
 6247TIP3   OH240155   2.591   0.010  10.763  0.0988 -0.4171  0.0673
 6247TIP3    H140156   2.545  -0.074  10.757 -0.5824 -0.0077 -0.6155
 6247TIP3    H240157   2.650   0.011  10.688  1.3865 -1.0256  1.0557
 6248TIP3   OH240158   1.768   3.305   4.183 -0.5139  0.2069 -0.3449
 6248TIP3    H140159   1.826   3.324   4.256  1.2105 -0.6329 -1.4616
 6248TIP3    H240160   1.826   3.283   4.111 -2.2074 -0.0516 -1.6789
 6249TIP3   OH240161   5.396   6.780   1.863  0.4470 -0.6784 -0.3323
 6249TIP3    H140162   5.336   6.833   1.916 -0.3123 -1.6556 -0.1929
 6249TIP3    H240163   5.411   6.833   1.784  1.2270  0.5877  0.6439
 6250TIP3   OH240164   6.720   1.555   3.227 -0.2959 -0.9565 -0.3437
 6250TIP3    H140165   6.631   1.522   3.230 -0.5569 -0.2619 -0.3903
 6250TIP3    H240166   6.718   1.624   3.160  0.3456 -1.1545 -0.5740
 6251TIP3   OH240167   1.208   6.560   2.419 -0.3501 -0.3116 -0.1316
 6251TIP3    H140168   1.143   6.578   2.487  0.1840  2.0917 -0.1949
 6251TIP3    H240169   1.159   6.564   2.337 -0.3250  0.4676 -0.1122
 6252TIP3   OH240170   3.674   3.674   4.374  0.1962 -0.1323 -0.1479
 6252TIP3    H140171   3.757   3.722   4.373  0.0758  0.0769 -1.1864
 6252TIP3    H240172   3.671   3.631   4.288 -0.4089 -0.7646  0.1874
 6253TIP3   OH240173   1.098   3.836  12.410 -0.1007 -0.2523 -0.0140
 6253TIP3    H140174   1.116   3.849  12.317  3.4152  1.3133  0.7949
 6253TIP3    H240175   1.086   3.741  12.419  0.7028 -0.5545 -1.8661
 6254TIP3   OH240176   5.674   1.510  16.376  0.4312 -0.1897 -0.4908
 6254TIP3    H140177   5.661   1.549  16.290 -0.2159 -0.5540 -0.5608
 6254TIP3    H240178   5.587   1.504  16.414  0.7926  0.6740  0.5050
 6255TIP3   OH240179   0.261   1.900   2.965  0.4945  0.5192  0.3441
 6255TIP3    H140180   0.188   1.919   2.905  1.0951  0.0948 -0.5319
 6255TIP3    H240181   0.281   1.808   2.950 -1.3545 -0.4568  3.4220
 6256TIP3   OH240182   0.313   1.104   3.763  0.1110  0.3209 -0.1782
 6256TIP3    H140183   0.366   1.170   3.717  0.6334 -0.3885 -0.6162
 6256TIP3    H240184   0.241   1.154   3.802  1.4964  1.4246  1.0603
 6257TIP3   OH240185   2.315   2.287   1.154 -0.4555 -0.1740 -0.2924
 6257TIP3    H140186   2.329   2.302   1.061  0.0032 -1.0865 -0.3700
 6257TIP3    H240187   2.227   2.321   1.170 -0.6621 -0.2928 -1.1239
 6258TIP3   OH240188   4.836   2.693  12.136 -0.1932 -0.7123 -0.0819
 6258TIP3    H140189   4.808   2.774  12.180 -1.8519 -2.6491  2.6380
 6258TIP3    H240190   4.931   2.696  12.139 -0.2451  0.7288  0.7943
 6259TIP3   OH240191   3.557   0.558  16.275  0.2681 -0.1092 -0.6391
 6259TIP3    H140192   3.610   0.488  16.311 -2.5270 -1.1037  1.7269
 6259TIP3    H240193   3.506   0.517  16.205 -0.4696 -0.1526 -0.0789
 6260TIP3   OH240194   0.202   0.891   4.172 -0.7000 -0.4683  0.0784
 6260TIP3    H140195   0.139   0.958   4.145  1.1888  1.7799  1.0809
 6260TIP3    H240196   0.203   0.897   4.267 -0.3924 -1.8252  0.1625
 6261TIP3   OH240197   6.019   2.516   6.188  0.4379  0.5421  0.4723
 6261TIP3    H140198   6.104   2.561   6.196  2.1035 -2.2219 -0.7543
 6261TIP3    H240199   5.974   2.561   6.118  1.7061  0.9021 -0.1312
 6262TIP3   OH240200   1.966   5.135  13.043 -0.1766  0.5325 -0.5659
 6262TIP3    H140201   1.879   5.162  13.016  0.2550  1.8168 -0.7225
 6262TIP3    H240202   2.008   5.216  13.074  1.1974  0.0918 -1.1975
 6263TIP3   OH240203   0.940   5.935  11.938 -0.3515 -0.2683 -0.0340
 6263TIP3    H140204   1.005   5.932  11.867 -0.9868 -1.5397 -0.5894
 6263TIP3    H240205   0.929   6.028  11.957 -0.1133  0.0966 -1.5791
 6264TIP3   OH240206   3.151   5.207   4.781 -0.2021  0.5051 -0.4413
 6264TIP3    H140207   3.073   5.162   4.813 -0.5595  1.1012 -0.4784
 6264TIP3    H240208   3.118   5.284   4.735  0.4417  1.4640  0.6648
 6265TIP3   OH240209   0.420   3.442   5.143 -0.3078 -0.0277 -0.2083
 6265TIP3    H140210   0.408   3.496   5.222  0.1799  1.1263 -0.9098
 6265TIP3    H240211   0.472   3.497   5.084  0.3043 -1.3186 -0.8986
 6266TIP3   OH240212   0.341   5.803  12.926 -0.5181  0.3741  0.2401
 6266TIP3    H140213   0.406   5.864  12.891  0.0701 -0.6469 -0.4859
 6266TIP3    H240214   0.394   5.732  12.963 -1.1820  0.5577  1.5698
 6267TIP3   OH240215   2.730   4.879  13.090  0.1780  0.0594 -0.1297
 6267TIP3    H140216   2.776   4.948  13.041  1.0840  0.4096  1.1971
 6267TIP3    H240217   2.789   4.858  13.162 -0.3445 -1.7455 -0.2265
 6268TIP3   OH240218   1.135   5.566   0.637  0.3846  0.2168 -0.2373
 6268TIP3    H140219   1.097   5.541   0.721 -0.5334  0.7448 -0.4936
 6268TIP3    H240220   1.107   5.498   0.577  0.5572  0.1547 -0.2502
 6269TIP3   OH240221   3.307   3.431  17.022 -0.5342  0.4237  0.0575
 6269TIP3    H140222   3.220   3.445  17.059 -1.2574 -1.5793 -0.7589
 6269TIP3    H240223   3.357   3.388  17.091 -0.8804 -0.3709 -0.1753
 6270TIP3   OH240224   1.319   4.207   3.685 -0.2643  0.5879 -0.1944
 6270TIP3    H140225   1.253   4.194   3.616 -0.2615  0.4572 -0.1728
 6270TIP3    H240226   1.272   4.186   3.766  0.1260 -0.6282 -0.2769
 6271TIP3   OH240227   4.578   2.205  16.029  0.0519  0.2440  0.0197
 6271TIP3    H140228   4.533   2.282  15.995  0.4005  0.5706  0.2957
 6271TIP3    H240229   4.657   2.198  15.976 -0.3872 -0.4071 -0.5559
 6272TIP3   OH240230   1.679   2.691   0.208  0.6515  0.2820 -0.1144
 6272TIP3    H140231   1.719   2.768   0.249 -0.7891  1.8750 -1.6035
 6272TIP3    H240232   1.636   2.726   0.130  0.9480 -2.2421 -1.4352
 6273TIP3   OH240233   5.976   5.396  12.651  0.0778  0.8484 -0.2641
 6273TIP3    H140234   5.968   5.374  12.558 -0.5316  2.5291 -0.6282
 6273TIP3    H240235   5.953   5.488  12.656 -3.0598  0.0230  2.0295
 6274TIP3   OH240236   5.708   1.026   5.288  0.4391 -0.0523  0.8554
 6274TIP3    H140237   5.739   1.088   5.354 -0.9958 -0.4372  1.9188
 6274TIP3    H240238   5.769   1.036   5.215  1.2001  1.4138  1.6714
 6275TIP3   OH240239   4.375   1.628  16.712  0.1142 -0.3839  0.3562
 6275TIP3    H140240   4.427   1.694  16.756  1.7008 -1.3807  0.0050
 6275TIP3    H240241   4.424   1.547  16.724  0.4942 -0.7280 -3.0497
 6276TIP3   OH240242   4.727   1.239  12.801  0.4508  0.0555  0.1826
 6276TIP3    H140243   4.817   1.241  12.835  0.4234 -2.1538  0.4665
 6276TIP3    H240244   4.684   1.169  12.850 -2.1823  2.6393  1.7672
 6277TIP3   OH240245   5.547   5.775   1.113  0.2764 -0.2847 -0.9495
 6277TIP3    H140246   5.564   5.726   1.194  0.9034 -0.0324 -0.9241
 6277TIP3    H240247   5.571   5.865   1.135 -0.1111 -0.1135 -1.2415
 6278TIP3   OH240248   5.736   0.640  14.285 -0.3503 -0.3864 -0.4428
 6278TIP3    H140249   5.720   0.572  14.350 -1.2729  0.5689  0.3468
 6278TIP3    H240250   5.689   0.717  14.318 -0.3894  0.2669 -1.9635
 6279TIP3   OH240251   5.342   1.687  13.242  0.1369 -0.7271  0.2266
 6279TIP3    H140252   5.357   1.594  13.226 -1.8820 -0.8533 -1.1866
 6279TIP3    H240253   5.248   1.693  13.259  0.3658  0.9750  0.9902
 6280TIP3   OH240254   5.550   3.276  12.037  0.2480  0.2837  0.0396
 6280TIP3    H140255   5.547   3.368  12.064  1.2968 -0.0978  1.5174
 6280TIP3    H240256   5.469   3.263  11.988  0.2291  2.0759 -0.4430
 6281TIP3   OH240257   3.326   2.968   2.833  0.1951  0.4708  0.0531
 6281TIP3    H140258   3.278   2.999   2.910 -1.0147  1.3405 -1.0272
 6281TIP3    H240259   3.279   2.890   2.804  0.4986  0.2877  0.0463
 6282TIP3   OH240260   0.643   5.162  16.272  0.5600  0.0523 -0.0502
 6282TIP3    H140261   0.549   5.175  16.289  0.7102  0.2698  0.6487
 6282TIP3    H240262   0.657   5.200  16.186 -0.3527 -1.6379 -0.9745
 6283TIP3   OH240263   2.609   4.589   1.080  0.2082 -0.4279 -0.2122
 6283TIP3    H140264   2.678   4.592   1.013 -1.1705 -0.6275 -1.6650
 6283TIP3    H240265   2.629   4.663   1.137  2.2650 -1.1376  0.0465
 6284TIP3   OH240266   5.976   6.463   3.748  0.1434 -0.4261  0.4165
 6284TIP3    H140267   5.916   6.417   3.806  0.9226 -1.0988  0.7015
 6284TIP3    H240268   6.057   6.411   3.751  0.4278 -0.0705 -0.7010
 6285TIP3   OH240269   1.071   3.492  15.681 -0.1146 -0.2053 -0.0028
 6285TIP3    H140270   1.054   3.553  15.752  0.7052  1.2456 -1.0150
 6285TIP3    H240271   0.990   3.491  15.630  0.8716  2.4955 -1.7448
 6286TIP3   OH240272   6.584   3.804   2.190 -0.0391  0.0083  0.0125
 6286TIP3    H140273   6.651   3.740   2.169 -0.2408  0.0897 -0.9516
 6286TIP3    H240274   6.594   3.821   2.283  0.3741 -1.0080  0.1562
 6287TIP3   OH240275   5.337   1.420   6.310  0.4800 -0.3523 -0.1891
 6287TIP3    H140276   5.299   1.348   6.360 -0.1006  0.7889  1.0403
 6287TIP3    H240277   5.312   1.499   6.359  2.8099  0.5530 -0.3946
 6288TIP3   OH240278   0.683   2.068  16.662  0.2821  0.1752  0.2217
 6288TIP3    H140279   0.627   2.122  16.606 -0.4191 -0.9847 -0.2145
 6288TIP3    H240280   0.769   2.111  16.659  0.8321 -1.0137 -3.4527
 6289TIP3   OH240281   4.799   2.162   5.071  0.0183 -0.2215  0.2843
 6289TIP3    H140282   4.850   2.209   5.137 -1.2712  0.3163  0.9313
 6289TIP3    H240283   4.802   2.218   4.994 -1.2051  0.7936  0.9392
 6290TIP3   OH240284   1.770   5.817  14.783 -0.2942  0.3888 -0.0342
 6290TIP3    H140285   1.768   5.788  14.874  1.6418 -0.2802 -0.1819
 6290TIP3    H240286   1.754   5.911  14.788 -1.6256  0.1198  0.8744
 6291TIP3   OH240287   0.538   4.874   2.944 -0.7905  0.1051 -0.1003
 6291TIP3    H140288   0.447   4.902   2.960 -0.9627 -0.4249 -0.1629
 6291TIP3    H240289   0.538   4.780   2.962  0.1995  0.4584  1.8908
 6292TIP3   OH240290   1.112   4.365  11.436  0.2944  0.6451  0.4203
 6292TIP3    H140291   1.083   4.283  11.396  0.6644  1.6097 -1.9386
 6292TIP3    H240292   1.037   4.424  11.427 -0.2404  0.3835  2.7925
 6293TIP3   OH240293   0.872   2.560  15.448  0.3084 -0.1709 -0.4130
 6293TIP3    H140294   0.849   2.637  15.499  0.1198 -0.2853 -0.3197
 6293TIP3    H240295   0.879   2.489  15.513 -3.6492 -1.1312 -0.8886
 6294TIP3   OH240296   4.971   0.173  13.721  0.2879 -0.1225 -0.1493
 6294TIP3    H140297   4.931   0.257  13.699  2.3110  0.1195 -3.1932
 6294TIP3    H240298   4.906   0.108  13.695 -0.3806  0.4172  0.1470
 6295TIP3   OH240299   4.240   1.704  10.730 -0.2474 -0.5239  0.7088
 6295TIP3    H140300   4.257   1.778  10.671  1.5166 -1.4531  0.0404
 6295TIP3    H240301   4.149   1.716  10.756 -1.3220 -0.4262 -2.7239
 6296TIP3   OH240302   1.080   1.616  14.720 -0.1442  0.1256  0.0137
 6296TIP3    H140303   1.054   1.627  14.811  1.0360 -0.6190  0.4574
 6296TIP3    H240304   1.031   1.538  14.691  0.9288 -0.7847  0.5994
 6297TIP3   OH240305   2.568   4.910   2.028  0.2060  0.3146  0.2524
 6297TIP3    H140306   2.484   4.955   2.019  0.0907  0.1909  0.6907
 6297TIP3    H240307   2.600   4.936   2.114  1.0355  1.0619 -0.2871
 6298TIP3   OH240308   2.611   2.907   2.127  0.1629 -0.0594  0.4117
 6298TIP3    H140309   2.652   2.820   2.126 -0.3825 -0.3206  0.0210
 6298TIP3    H240310   2.663   2.958   2.065  1.5915  0.4278  1.9830
 6299TIP3   OH240311   5.906   0.106  13.133  0.2240 -0.5068 -0.5239
 6299TIP3    H140312   5.882   0.187  13.178  0.1935 -0.8442  0.0727
 6299TIP3    H240313   5.964   0.134  13.063 -0.8424  0.1746 -1.1398
 6300TIP3   OH240314   6.243   1.797   0.675  0.0417 -0.1244 -0.7927
 6300TIP3    H140315   6.212   1.879   0.714  0.4162  1.3327 -3.4039
 6300TIP3    H240316   6.171   1.768   0.619 -0.0957 -1.6224  0.1289
 6301TIP3   OH240317   2.556   0.595  15.288 -0.1000  0.5343  0.5517
 6301TIP3    H140318   2.525   0.544  15.213 -3.3129  1.6782  1.0125
 6301TIP3    H240319   2.632   0.547  15.320  0.2013 -0.9967 -2.2875
 6302TIP3   OH240320   5.926   0.746   1.515 -0.0011 -0.7723  0.0367
 6302TIP3    H140321   5.973   0.720   1.436 -0.7801 -0.3188 -0.5935
 6302TIP3    H240322   5.887   0.830   1.492 -1.9639 -1.6139  0.1662
 6303TIP3   OH240323   0.122   5.648   2.099  0.4528  0.3278 -0.4698
 6303TIP3    H140324   0.034   5.682   2.115  0.5638  0.2725  0.3152
 6303TIP3    H240325   0.111   5.554   2.093  0.1666  0.4789 -2.4930
 6304TIP3   OH240326   1.680   0.145   1.439 -0.1625  0.7117  0.6447
 6304TIP3    H140327   1.704   0.106   1.356 -0.4401  1.4370  0.2188
 6304TIP3    H240328   1.617   0.083   1.478 -2.2804  1.7670 -1.0121
 6305TIP3   OH240329   5.658   5.467   1.299  0.4086  0.3401 -0.8502
 6305TIP3    H140330   5.625   5.557   1.310 -1.4192 -0.4533  0.4316
 6305TIP3    H240331   5.698   5.446   1.383 -0.7629 -0.6664 -0.5356
 6306TIP3   OH240332   0.510   6.637   2.364  0.3408 -0.5311  0.1950
 6306TIP3    H140333   0.579   6.621   2.299 -0.4979  1.2914 -1.1722
 6306TIP3    H240334   0.448   6.565   2.350  0.6974 -0.7554 -0.2814
 6307TIP3   OH240335   4.791   0.265  12.410  0.2921 -0.9256 -0.5098
 6307TIP3    H140336   4.754   0.352  12.393 -0.3314 -1.3015 -1.1049
 6307TIP3    H240337   4.863   0.256  12.346  3.0328  0.7649  2.2121
 6308TIP3   OH240338   0.071   5.725   1.023 -0.3525  0.6842 -0.3180
 6308TIP3    H140339   0.100   5.697   1.110 -0.4125  0.6263 -0.3162
 6308TIP3    H240340   0.114   5.809   1.009 -1.6977  1.5223  0.4751
 6309TIP3   OH240341   4.505   1.846  14.122 -0.2117  0.4856 -0.3485
 6309TIP3    H140342   4.523   1.761  14.161 -0.7329  0.3684 -0.3515
 6309TIP3    H240343   4.590   1.881  14.098  0.2913  1.2017  2.2594
 6310TIP3   OH240344   2.982   6.375  14.926  0.1678  0.6277 -0.3507
 6310TIP3    H140345   2.913   6.332  14.976  0.6755  1.3533  0.9868
 6310TIP3    H240346   2.974   6.338  14.838 -0.3142 -1.1552  0.4141
 6311TIP3   OH240347   1.215   5.946  12.867  0.0873 -0.0809  0.1804
 6311TIP3    H140348   1.123   5.946  12.890 -0.2662 -0.5776 -1.1636
 6311TIP3    H240349   1.261   5.947  12.951 -1.1106  2.3456  0.8341
 6312TIP3   OH240350   1.511   4.544  11.556 -1.0378 -0.2893 -0.0434
 6312TIP3    H140351   1.501   4.536  11.651  0.8650  1.1707  0.2986
 6312TIP3    H240352   1.603   4.567  11.543 -1.3848 -0.0198 -2.2232
 6313TIP3   OH240353   2.177   3.951   3.803  0.0487  0.2698  0.0757
 6313TIP3    H140354   2.259   3.950   3.753  0.2930 -0.0356  0.4785
 6313TIP3    H240355   2.113   3.990   3.743  0.6906  1.3511  0.0875
 6314TIP3   OH240356   2.029   2.520  14.349  0.0109  0.4016  0.7818
 6314TIP3    H140357   1.999   2.566  14.270  0.4034 -0.1409  0.3088
 6314TIP3    H240358   2.121   2.500  14.331 -0.1250 -0.4608  1.0264
 6315TIP3   OH240359   6.149   2.196  12.093 -0.4707  0.0361 -0.3438
 6315TIP3    H140360   6.058   2.168  12.099 -0.3224 -0.9767 -2.4057
 6315TIP3    H240361   6.172   2.223  12.182 -2.2294 -1.4508  0.5912
 6316TIP3   OH240362   3.453   2.845  15.724  0.6761  0.1011  0.6473
 6316TIP3    H140363   3.526   2.790  15.695  1.0914  0.3668  1.1905
 6316TIP3    H240364   3.427   2.807  15.808 -2.0808 -2.1458 -1.1315
 6317TIP3   OH240365   1.050   4.173  14.431 -0.1566 -0.1620 -0.5445
 6317TIP3    H140366   0.974   4.224  14.458  0.7229  0.7924  0.1177
 6317TIP3    H240367   1.025   4.138  14.345 -0.6888  1.5211 -1.0985
 6318TIP3   OH240368   0.435   6.781  12.288  0.2744 -0.0280  0.1952
 6318TIP3    H140369   0.356   6.727  12.286  0.5381 -0.3847 -1.2543
 6318TIP3    H240370   0.404   6.868  12.310 -0.3265 -0.4922  1.2136
 6319TIP3   OH240371   1.989   0.687   1.839 -0.2578  0.2541 -0.3322
 6319TIP3    H140372   1.938   0.630   1.782 -0.8203  0.1948  0.2241
 6319TIP3    H240373   2.059   0.720   1.783 -0.9025  0.3331 -1.1001
 6320TIP3   OH240374   3.895   2.613   2.967  0.2374 -0.6022  0.1624
 6320TIP3    H140375   3.894   2.529   3.012 -1.1941  0.4283  2.1402
 6320TIP3    H240376   3.803   2.640   2.963  0.5118  0.1610 -1.8740
 6321TIP3   OH240377   1.851   5.289   3.104 -0.4783 -0.5748 -0.1120
 6321TIP3    H140378   1.834   5.290   3.010  1.4762 -1.6980 -0.5108
 6321TIP3    H240379   1.943   5.265   3.111 -0.6139 -0.5370  2.1002
 6322TIP3   OH240380   6.745   4.740   2.246  0.2023 -0.1026 -0.3435
 6322TIP3    H140381   6.747   4.680   2.171  1.9124  0.6891 -0.9738
 6322TIP3    H240382   6.652   4.756   2.262 -0.3700 -3.9846  0.7511
 6323TIP3   OH240383   5.208   3.720  16.682  0.4138  0.8101 -0.2506
 6323TIP3    H140384   5.278   3.732  16.619  1.0234 -1.4085 -0.0498
 6323TIP3    H240385   5.182   3.628  16.671 -1.6591  1.2830  0.4812
 6324TIP3   OH240386   0.465   3.833  15.691  0.0663 -0.1850 -0.0549
 6324TIP3    H140387   0.376   3.808  15.716 -0.4902  0.3387 -1.4699
 6324TIP3    H240388   0.501   3.876  15.769 -0.3968 -1.7236  1.0188
 6325TIP3   OH240389   5.181   3.516   3.877  0.0854  0.4204 -0.8268
 6325TIP3    H140390   5.159   3.435   3.831  0.1712  0.2770 -0.6147
 6325TIP3    H240391   5.264   3.497   3.921  0.1373  0.6440 -0.8260
 6326TIP3   OH240392   3.604   3.210  15.207 -0.2836 -0.0390 -0.1512
 6326TIP3    H140393   3.698   3.227  15.207 -0.2139 -0.4283 -0.3011
 6326TIP3    H240394   3.590   3.152  15.133 -0.4601 -0.9497  0.5850
 6327TIP3   OH240395   5.350   1.886   4.387  0.7746 -0.0715  0.1087
 6327TIP3    H140396   5.428   1.852   4.431  0.4347 -0.5415  0.3445
 6327TIP3    H240397   5.351   1.980   4.408  1.3773 -0.0390 -0.0491
 6328TIP3   OH240398   0.260   6.163   3.994 -0.4276 -0.1534 -0.1924
 6328TIP3    H140399   0.201   6.103   3.948 -2.2647  0.3574  1.4033
 6328TIP3    H240400   0.280   6.118   4.076  1.4245 -0.3121 -0.7245
 6329TIP3   OH240401   0.136   5.420   0.977 -0.3429  0.1769 -0.1782
 6329TIP3    H140402   0.142   5.511   1.008  5.5823  0.1245 -0.6073
 6329TIP3    H240403   0.144   5.428   0.882  0.6302 -0.7919 -0.1803
 6330TIP3   OH240404   4.561   3.015  14.431  0.6253  0.3832 -0.4083
 6330TIP3    H140405   4.526   3.103  14.419  1.7339  0.6993 -1.5165
 6330TIP3    H240406   4.521   2.983  14.512 -0.9891  1.3020 -0.8376
 6331TIP3   OH240407   2.581   0.251   6.477  0.1337  0.1163 -0.2545
 6331TIP3    H140408   2.552   0.212   6.395  1.1222  1.5163 -1.2962
 6331TIP3    H240409   2.673   0.224   6.485 -0.2685 -0.9187  0.9521
 6332TIP3   OH240410   2.093   1.324  13.157  0.5899  0.8278 -0.0039
 6332TIP3    H140411   2.077   1.231  13.141 -2.4962  1.1694  0.7314
 6332TIP3    H240412   2.142   1.354  13.081  1.3103 -1.3158 -0.4199
 6333TIP3   OH240413   2.828   1.431  17.094 -0.6718  0.4046 -0.1249
 6333TIP3    H140414   2.833   1.520  17.057 -0.8231  1.0484  1.3499
 6333TIP3    H240415   2.782   1.443  17.177 -1.3245 -1.1780 -0.2414
 6334TIP3   OH240416   3.460   2.795  10.840  0.5529  0.0479  0.4147
 6334TIP3    H140417   3.488   2.885  10.823  0.0468  0.1938  0.3278
 6334TIP3    H240418   3.404   2.774  10.766  0.8449 -0.4184  0.3268
 6335TIP3   OH240419   4.477   0.146  17.032 -0.2268 -0.1161 -0.6125
 6335TIP3    H140420   4.454   0.234  17.002  1.0251 -0.0136 -1.3193
 6335TIP3    H240421   4.572   0.150  17.046 -0.3629 -0.9748  0.6591
 6336TIP3   OH240422   6.715   2.421  12.410  0.2368 -0.5639 -0.2300
 6336TIP3    H140423   6.729   2.398  12.502  0.1975  0.5741  0.0702
 6336TIP3    H240424   6.765   2.503  12.398 -2.2246  0.9490 -0.4225
 6337TIP3   OH240425   0.889   4.829  15.066  0.0324 -0.2346  0.7837
 6337TIP3    H140426   0.860   4.911  15.028  0.0477 -0.2354  0.7703
 6337TIP3    H240427   0.981   4.842  15.087  1.3141 -1.7332 -3.3808
 6338TIP3   OH240428   3.079   4.348  14.773  0.1809 -0.1557  0.2558
 6338TIP3    H140429   3.085   4.430  14.823  0.4695  0.7464 -1.2554
 6338TIP3    H240430   3.139   4.360  14.700 -2.5122 -0.2222 -2.0366
 6339TIP3   OH240431   5.687   3.660   5.636  0.3309 -0.0243  0.2375
 6339TIP3    H140432   5.618   3.689   5.577 -0.8311  2.0430  2.4840
 6339TIP3    H240433   5.651   3.583   5.680  0.9354 -1.1606 -1.2380
 6340TIP3   OH240434   0.593   4.818   4.424  0.1492  0.1048  0.4122
 6340TIP3    H140435   0.507   4.821   4.465 -0.3512  0.4282 -0.6409
 6340TIP3    H240436   0.619   4.909   4.414 -0.9697  0.1529 -2.5029
 6341TIP3   OH240437   3.932   4.269  11.634  0.2366 -0.0527  0.5071
 6341TIP3    H140438   3.877   4.227  11.567  2.2466 -1.1133 -0.5254
 6341TIP3    H240439   3.893   4.355  11.647 -2.2100 -1.1208  0.4740
 6342TIP3   OH240440   1.515   1.769   1.625 -0.2726 -0.0331  0.2697
 6342TIP3    H140441   1.476   1.803   1.705  0.9175  0.8839  0.4770
 6342TIP3    H240442   1.493   1.834   1.558  1.5411  0.8931  0.5523
 6343TIP3   OH240443   5.140   0.228   0.551  0.0091  0.0246  0.2472
 6343TIP3    H140444   5.068   0.273   0.508  1.5440  2.1116 -0.1909
 6343TIP3    H240445   5.218   0.276   0.525  1.5800 -2.1395  0.7809
 6344TIP3   OH240446   2.066   0.319  17.092  0.1207 -0.1478 -0.6233
 6344TIP3    H140447   2.021   0.350  17.014  2.0076 -1.9166 -2.4738
 6344TIP3    H240448   2.153   0.359  17.088  0.4839 -0.8343  0.1653
 6345TIP3   OH240449   3.446   0.513   4.543  0.2125 -0.0749  0.4763
 6345TIP3    H140450   3.480   0.544   4.459 -0.4099  1.6567  0.8432
 6345TIP3    H240451   3.524   0.499   4.597  0.5108  0.8582  0.2940
 6346TIP3   OH240452   2.238   4.830  12.041  0.7873 -0.3411  0.3218
 6346TIP3    H140453   2.185   4.882  11.981 -0.1233  1.5106  2.6136
 6346TIP3    H240454   2.260   4.751  11.992 -3.3555 -0.7746 -1.0710
 6347TIP3   OH240455   1.153   2.826   2.303 -0.0932  0.4589 -0.1507
 6347TIP3    H140456   1.119   2.895   2.247  1.1026 -0.4706 -2.1147
 6347TIP3    H240457   1.232   2.795   2.257 -1.0653 -2.7561  0.1996
 6348TIP3   OH240458   0.001   5.233   1.250 -0.2945  0.1008 -0.2515
 6348TIP3    H140459   0.091   5.265   1.240 -1.0040  2.1295 -0.4751
 6348TIP3    H240460  -0.004   5.157   1.193  1.0635  0.4640 -0.8775
 6349TIP3   OH240461   4.637   2.586   4.330 -0.2680  0.2271  0.3891
 6349TIP3    H140462   4.572   2.621   4.268 -2.1097  0.4041  2.3554
 6349TIP3    H240463   4.645   2.654   4.397 -0.6294 -1.2592  1.9746
 6350TIP3   OH240464   0.861   4.461  10.828  0.2666 -0.6585 -0.1916
 6350TIP3    H140465   0.828   4.488  10.742 -0.6529  0.8761  0.6061
 6350TIP3    H240466   0.819   4.377  10.845 -1.8316  0.3724 -0.0397
 6351TIP3   OH240467   2.927   5.059   0.810 -0.2913 -0.2723 -0.0408
 6351TIP3    H140468   2.918   5.057   0.715 -2.0296  0.6419  0.0831
 6351TIP3    H240469   2.981   5.135   0.828 -0.8909  0.2018 -0.2386
 6352TIP3   OH240470   5.552   2.492  13.529 -0.3344 -0.3604 -0.3298
 6352TIP3    H140471   5.613   2.430  13.568 -0.5605 -0.5534 -0.2831
 6352TIP3    H240472   5.606   2.568  13.506 -0.2852 -0.0504  0.7909
 6353TIP3   OH240473   3.361   6.365  12.363 -0.3835 -0.1441 -0.0719
 6353TIP3    H140474   3.291   6.429  12.374  0.1329  0.3205  0.6196
 6353TIP3    H240475   3.321   6.280  12.381 -1.1331 -0.0350 -1.2347
 6354TIP3   OH240476   0.350   2.125  16.389  0.2982  0.5349 -0.1760
 6354TIP3    H140477   0.430   2.160  16.427  1.0196 -2.0434  0.7461
 6354TIP3    H240478   0.379   2.055  16.331 -1.1363  1.1976 -1.7480
 6355TIP3   OH240479   5.610   3.407  14.179  0.0366  0.1168  0.4795
 6355TIP3    H140480   5.652   3.438  14.259 -1.8997  0.2895  1.4392
 6355TIP3    H240481   5.550   3.477  14.155 -0.9265 -0.8516  0.0453
 6356TIP3   OH240482   1.062   0.410  11.599 -0.6745 -0.2497 -0.1702
 6356TIP3    H140483   1.103   0.365  11.526  0.3050 -0.5680  0.5589
 6356TIP3    H240484   1.116   0.488  11.614 -1.0147 -0.0504  0.0413
 6357TIP3   OH240485   3.708   3.057  11.801 -0.4606  0.5469  0.0595
 6357TIP3    H140486   3.703   2.986  11.865 -1.2714  1.8927  1.5157
 6357TIP3    H240487   3.654   3.027  11.728  0.6427 -1.0940 -0.1222
 6358TIP3   OH240488   6.752   0.582  11.045  0.0016 -0.0067 -0.3177
 6358TIP3    H140489   6.790   0.642  10.980  1.0318 -0.4245 -0.1208
 6358TIP3    H240490   6.686   0.634  11.090  2.0463  1.5397  1.0107
 6359TIP3   OH240491   5.133   0.598  12.057  0.1287 -0.0476  0.1844
 6359TIP3    H140492   5.090   0.616  11.974 -2.2474  2.0019  1.7961
 6359TIP3    H240493   5.064   0.560  12.113  0.2853  3.2869  2.8045
 6360TIP3   OH240494   1.154   0.958   1.382 -0.3818 -0.1725 -0.5191
 6360TIP3    H140495   1.111   0.954   1.296 -1.3729 -0.9510 -0.0015
 6360TIP3    H240496   1.124   1.040   1.420  0.7844  0.6246 -1.2777
 6361TIP3   OH240497   2.266   6.572   0.209  0.1939  0.2980  0.5550
 6361TIP3    H140498   2.192   6.528   0.249  1.5663 -2.6433  0.0134
 6361TIP3    H240499   2.334   6.570   0.276  1.5187 -1.9661 -0.7858
 6362TIP3   OH240500   4.892   4.889  11.740  0.0887 -0.1607  0.1237
 6362TIP3    H140501   4.880   4.898  11.646 -1.6579  1.7297  0.5146
 6362TIP3    H240502   4.848   4.806  11.762 -1.6487  0.6238 -0.3543
 6363TIP3   OH240503   3.040   3.450  14.923  0.5849 -0.2797 -0.3966
 6363TIP3    H140504   2.980   3.377  14.912 -0.6181  0.8048 -1.2141
 6363TIP3    H240505   3.065   3.475  14.834 -0.9654  1.8513 -0.2894
 6364TIP3   OH240506   1.303   5.646  16.894 -0.2974  0.5313  0.2597
 6364TIP3    H140507   1.208   5.638  16.889 -0.2203 -0.5968  0.4150
 6364TIP3    H240508   1.330   5.576  16.953  0.6835  0.4464 -0.2746
 6365TIP3   OH240509   4.241   5.537  11.273  0.3631 -0.2158 -0.2233
 6365TIP3    H140510   4.246   5.625  11.309 -1.7239  0.2348 -0.9289
 6365TIP3    H240511   4.193   5.486  11.339  2.6862 -1.1663  0.7655
 6366TIP3   OH240512   4.541   6.308  11.884  0.6083 -0.3426  0.1045
 6366TIP3    H140513   4.484   6.377  11.919  0.6080  0.1694 -0.8929
 6366TIP3    H240514   4.547   6.244  11.955  0.3396  0.5259  0.9201
 6367TIP3   OH240515   5.537   3.416   5.635 -0.5607 -0.7207  0.7118
 6367TIP3    H140516   5.516   3.401   5.543  1.9741 -3.1967  0.4401
 6367TIP3    H240517   5.455   3.398   5.681 -1.1300 -2.3120 -0.8375
 6368TIP3   OH240518   4.360   6.446  14.439 -0.4565 -0.5061  0.2279
 6368TIP3    H140519   4.432   6.479  14.385 -0.9526  0.3710  0.0841
 6368TIP3    H240520   4.286   6.505  14.419 -0.8170 -0.5503  1.3933
 6369TIP3   OH240521   5.909   4.091   0.993  0.0288 -0.1517 -0.0796
 6369TIP3    H140522   5.892   4.126   1.080 -0.7178  0.5975 -0.5214
 6369TIP3    H240523   5.911   4.168   0.936  2.3131 -0.4499 -0.4588
 6370TIP3   OH240524   2.950   0.579   6.338 -0.3752  0.2150 -0.1024
 6370TIP3    H140525   2.947   0.496   6.386 -0.0999 -1.6231 -3.1136
 6370TIP3    H240526   2.864   0.585   6.296 -0.1540  1.1471 -0.4382
 6371TIP3   OH240527   4.515   3.976   3.732 -0.1965  0.1038  0.2494
 6371TIP3    H140528   4.481   3.887   3.738 -0.5448  0.1845 -0.4401
 6371TIP3    H240529   4.487   4.018   3.814 -1.1066 -0.0618  0.0340
 6372TIP3   OH240530   4.717   5.980   0.979 -0.0207  0.3320 -0.4514
 6372TIP3    H140531   4.743   5.888   0.971 -0.7021  0.1976 -1.2114
 6372TIP3    H240532   4.740   6.019   0.894  0.1895  0.8372 -0.1603
 6373TIP3   OH240533   0.005   5.393  13.054  0.0369 -0.5005 -0.5927
 6373TIP3    H140534  -0.059   5.330  13.088 -0.0698  0.2322  0.6166
 6373TIP3    H240535  -0.046   5.474  13.041  0.8861  0.4176  1.4400
 6374TIP3   OH240536   0.872   0.604  13.732  0.4384  0.3631  0.2207
 6374TIP3    H140537   0.838   0.681  13.777 -0.1138  0.1250  0.2096
 6374TIP3    H240538   0.956   0.633  13.696  0.0016  1.1105 -0.2147
 6375TIP3   OH240539   2.338   4.354   1.530 -0.4443 -0.0693  0.6324
 6375TIP3    H140540   2.346   4.349   1.435 -0.4725 -1.3009  0.6887
 6375TIP3    H240541   2.250   4.322   1.549 -1.3400  2.4410  0.9086
 6376TIP3   OH240542   0.307   6.303  14.731  0.3716  0.4717 -0.1889
 6376TIP3    H140543   0.325   6.373  14.668  2.2863 -0.5214 -0.7644
 6376TIP3    H240544   0.389   6.289  14.777 -0.0009 -1.3750 -0.0448
 6377TIP3   OH240545   4.768   0.410  15.455 -0.6707 -0.3406  0.5205
 6377TIP3    H140546   4.806   0.432  15.540  2.4510 -0.6072 -0.7673
 6377TIP3    H240547   4.719   0.489  15.430  1.7159  1.2416  0.7449
 6378TIP3   OH240548   4.136   3.340   1.549  0.1929  0.2898 -0.2696
 6378TIP3    H140549   4.143   3.347   1.454 -2.7090  2.5772 -0.3767
 6378TIP3    H240550   4.059   3.285   1.563  0.9216 -0.4924  0.8160
 6379TIP3   OH240551   6.204   5.060  14.017 -0.0589 -0.1083 -0.0279
 6379TIP3    H140552   6.228   4.972  13.988 -0.2547 -0.5699  1.1554
 6379TIP3    H240553   6.273   5.084  14.079 -0.8711 -0.0979  0.8815
 6380TIP3   OH240554   3.574   5.815   2.236  0.7483  0.0607  0.3885
 6380TIP3    H140555   3.662   5.824   2.198  0.2707 -1.3134 -1.1201
 6380TIP3    H240556   3.518   5.868   2.180  0.1180 -1.5901 -0.5918
 6381TIP3   OH240557   5.143   3.964  14.392 -0.4789  0.4088  0.5565
 6381TIP3    H140558   5.123   4.016  14.470 -0.5445 -1.3970  1.7818
 6381TIP3    H240559   5.211   4.014  14.346  1.1952  0.3991  2.9440
 6382TIP3   OH240560   1.537   1.712  15.416 -0.2825 -0.4511 -0.4654
 6382TIP3    H140561   1.556   1.805  15.403  1.8954 -0.7151  0.6634
 6382TIP3    H240562   1.506   1.706  15.507 -1.5426 -0.6673 -0.9051
 6383TIP3   OH240563   6.779   4.406  11.945  0.2409 -0.0402  0.1326
 6383TIP3    H140564   6.820   4.464  12.010  0.9083 -0.0610 -0.2578
 6383TIP3    H240565   6.852   4.352  11.914 -0.5099 -1.5594  1.0019
 6384TIP3   OH240566   3.102   2.657  15.456  0.5787 -0.0479 -0.4554
 6384TIP3    H140567   3.078   2.578  15.505  0.5706 -0.1701 -0.6566
 6384TIP3    H240568   3.105   2.726  15.523 -0.0007 -0.0975 -0.3735
 6385TIP3   OH240569   4.174   3.839  15.472  0.8830 -0.0892  0.4033
 6385TIP3    H140570   4.223   3.922  15.474  0.8036 -0.0657  2.2627
 6385TIP3    H240571   4.184   3.803  15.560 -0.9230 -0.9939  0.2631
 6386TIP3   OH240572   3.838   0.276   1.733 -0.7899 -0.1785 -0.0688
 6386TIP3    H140573   3.862   0.191   1.770  0.7362 -0.0427 -0.6746
 6386TIP3    H240574   3.898   0.287   1.659 -2.2290  0.5866 -1.1443
 6387TIP3   OH240575   1.333   4.207   5.104  0.5346  0.4131  0.9041
 6387TIP3    H140576   1.339   4.245   5.192 -0.9015  1.4841  0.5601
 6387TIP3    H240577   1.258   4.148   5.110 -0.5201  1.6406 -0.0041
 6388TIP3   OH240578   1.696   5.666   5.172  0.3849  0.2538 -0.4721
 6388TIP3    H140579   1.610   5.708   5.170 -0.4224 -1.3811 -0.8037
 6388TIP3    H240580   1.691   5.604   5.245  1.3846  0.3528 -0.3075
 6389TIP3   OH240581   2.662   0.004   0.888  0.5834  0.1362 -0.7623
 6389TIP3    H140582   2.635   0.092   0.917  1.0471 -0.4806  1.6676
 6389TIP3    H240583   2.693  -0.039   0.968  1.1945 -1.9510 -2.0807
 6390TIP3   OH240584   3.640   1.784  14.629  0.0215  0.0560 -0.4642
 6390TIP3    H140585   3.615   1.824  14.545 -2.6897 -0.0356  0.2713
 6390TIP3    H240586   3.586   1.706  14.635  0.6325 -0.2559  1.1398
 6391TIP3   OH240587   5.974   3.194   1.329  0.0428 -0.0373  0.1401
 6391TIP3    H140588   6.064   3.175   1.356 -0.0407  0.0992  0.5248
 6391TIP3    H240589   5.949   3.121   1.274  0.5848  0.2005 -0.4220
 6392TIP3   OH240590   0.349   6.608   2.664  0.0024 -0.0323 -0.0038
 6392TIP3    H140591   0.421   6.551   2.690  0.2708 -0.5217 -1.7485
 6392TIP3    H240592   0.347   6.602   2.568 -0.9439  1.6926 -0.1119
 6393TIP3   OH240593   2.168   3.200   3.916 -0.3675 -0.8363  0.1797
 6393TIP3    H140594   2.166   3.274   3.977 -0.6231  1.6598 -2.7615
 6393TIP3    H240595   2.247   3.152   3.940 -0.5268  0.0151  2.5454
 6394TIP3   OH240596   5.196   4.895   1.324  0.2101  0.1210  0.0747
 6394TIP3    H140597   5.193   4.799   1.323 -1.5936  0.1636  0.2867
 6394TIP3    H240598   5.278   4.915   1.369  1.4130 -1.3065 -1.3701
 6395TIP3   OH240599   6.355   2.574   4.368 -0.2502 -0.0973 -0.0102
 6395TIP3    H140600   6.442   2.582   4.328  0.3939 -0.0820  1.3677
 6395TIP3    H240601   6.312   2.657   4.348  0.7297  0.6300  0.8836
 6396TIP3   OH240602   4.879   6.109   2.884 -0.2535 -0.0150  0.5536
 6396TIP3    H140603   4.844   6.183   2.834 -0.5990  0.0887  0.9495
 6396TIP3    H240604   4.973   6.109   2.865 -0.4733 -0.3391 -0.5758
 6397TIP3   OH240605   3.453   3.180   2.169  0.1806  0.0845 -0.8000
 6397TIP3    H140606   3.532   3.161   2.119  1.7182  0.7245  1.3195
 6397TIP3    H240607   3.476   3.161   2.260 -1.8973  0.8919 -0.0608
 6398TIP3   OH240608   1.677   3.195   5.950  0.0575 -0.2142 -0.8536
 6398TIP3    H140609   1.710   3.282   5.970  0.3550 -0.5150  0.0035
 6398TIP3    H240610   1.647   3.200   5.859  0.6188  0.6130 -0.9927
 6399TIP3   OH240611   1.026   0.725  15.319 -0.6779 -0.3491 -0.4305
 6399TIP3    H140612   0.943   0.763  15.347 -0.3028 -0.0173  0.2267
 6399TIP3    H240613   1.053   0.779  15.245 -0.1415  0.6748  0.5076
 6400TIP3   OH240614   0.253   3.974  11.416  0.7341 -0.1595  0.3581
 6400TIP3    H140615   0.185   4.018  11.466  1.2822 -2.7772  3.5457
 6400TIP3    H240616   0.216   3.963  11.329 -2.3020 -0.1139  1.6010
 6401TIP3   OH240617   2.075   6.486   4.496 -0.3069  0.0234 -0.0334
 6401TIP3    H140618   2.145   6.474   4.559 -1.1019  1.0187  1.0517
 6401TIP3    H240619   2.020   6.554   4.533 -2.0772 -1.0139 -0.6857
 6402TIP3   OH240620   0.871   1.874   6.577 -0.0509 -0.8308 -0.0966
 6402TIP3    H140621   0.911   1.942   6.523  0.0814  0.4325  1.5671
 6402TIP3    H240622   0.900   1.792   6.537  1.7072  0.0792 -0.7433
 6403TIP3   OH240623   3.199   5.848   0.342 -0.8199 -0.4267 -0.6629
 6403TIP3    H140624   3.289   5.873   0.322 -1.1829 -0.1445 -2.0500
 6403TIP3    H240625   3.205   5.756   0.370  0.0533  0.0065  0.5699
 6404TIP3   OH240626   5.603   0.837   5.022 -0.0889 -0.1541 -0.5368
 6404TIP3    H140627   5.561   0.787   4.952  0.5086 -2.1501  0.4889
 6404TIP3    H240628   5.589   0.784   5.100  0.1283  1.5556  0.6847
 6405TIP3   OH240629   3.131   6.444   5.706  0.3750  0.2215  0.2179
 6405TIP3    H140630   3.158   6.533   5.729  1.4334 -0.1691  0.5245
 6405TIP3    H240631   3.059   6.424   5.766  0.1371  0.8665  0.1498
 6406TIP3   OH240632   2.692   6.535   1.516  0.7745 -0.2018  0.7870
 6406TIP3    H140633   2.677   6.491   1.599  0.7928  0.4025  1.1150
 6406TIP3    H240634   2.611   6.583   1.499  0.6730 -0.5317  0.3257
 6407TIP3   OH240635   1.856   1.557   0.103 -0.1308 -0.0114  0.4896
 6407TIP3    H140636   1.922   1.549   0.171  0.8842  0.9005 -0.3761
 6407TIP3    H240637   1.905   1.566   0.022 -1.3014  0.9236 -0.1426
 6408TIP3   OH240638   6.534   5.842   5.543 -0.4332 -0.2887 -0.2269
 6408TIP3    H140639   6.484   5.869   5.465 -2.9952 -0.9787  1.0996
 6408TIP3    H240640   6.504   5.902   5.612  1.5789  0.1226  0.3191
 6409TIP3   OH240641   6.531   4.064  12.327 -0.1182 -0.4257 -0.2796
 6409TIP3    H140642   6.560   4.103  12.244  1.0836 -0.3089  0.1920
 6409TIP3    H240643   6.566   3.975  12.325 -1.7483 -1.0645 -0.7640
 6410TIP3   OH240644   2.537   3.334   4.943  0.2796  0.2735  0.0184
 6410TIP3    H140645   2.452   3.372   4.919  0.5531  0.4537 -0.6935
 6410TIP3    H240646   2.523   3.239   4.938 -0.5466  0.2617  2.2983
 6411TIP3   OH240647   4.469   3.576  14.290 -0.3529  0.4966  0.1322
 6411TIP3    H140648   4.432   3.660  14.266  1.8361  1.1779 -1.0211
 6411TIP3    H240649   4.394   3.517  14.298 -1.7191  2.0119 -1.2981
 6412TIP3   OH240650   2.192   4.800  17.192 -0.3227  0.0372 -0.3419
 6412TIP3    H140651   2.167   4.737  17.124  0.3587  0.0090 -0.5698
 6412TIP3    H240652   2.197   4.884  17.146  0.3182 -0.0129 -0.3708
 6413TIP3   OH240653   2.827   4.476  12.259 -0.4926 -0.3550 -0.2231
 6413TIP3    H140654   2.776   4.555  12.274  0.8875  0.6289 -0.5444
 6413TIP3    H240655   2.840   4.473  12.164  0.4094 -0.3321 -0.1135
 6414TIP3   OH240656   5.121   2.895  15.953 -0.7651 -0.7599 -0.1477
 6414TIP3    H140657   5.076   2.876  15.870  1.3583 -1.9437 -1.0781
 6414TIP3    H240658   5.197   2.948  15.927  1.1299 -2.9461  0.7040
 6415TIP3   OH240659   6.152   4.170   4.480  0.0349 -0.2670  0.4756
 6415TIP3    H140660   6.090   4.115   4.529  0.8222 -1.6670 -0.0733
 6415TIP3    H240661   6.136   4.147   4.388 -0.1542  0.9979  0.1821
 6416TIP3   OH240662   3.963   1.212   4.235  0.4644 -0.6563  0.3073
 6416TIP3    H140663   4.041   1.166   4.204  2.4218  2.2741  0.6928
 6416TIP3    H240664   3.961   1.294   4.185 -0.6530  0.6679  2.4036
 6417TIP3   OH240665   1.421   4.812  10.766 -0.8430  0.6533  0.0066
 6417TIP3    H140666   1.358   4.882  10.780  0.9670  2.2826  0.3037
 6417TIP3    H240667   1.482   4.820  10.840  0.7320  0.2919 -1.2170
 6418TIP3   OH240668   1.009   4.782  13.177  0.3290  0.7119  0.0324
 6418TIP3    H140669   1.003   4.686  13.171  0.8051  0.6546  0.4202
 6418TIP3    H240670   0.978   4.801  13.266  0.4748  0.8971  0.0429
 6419TIP3   OH240671   4.994   1.730   2.576  0.2367  0.2249 -0.0116
 6419TIP3    H140672   5.073   1.679   2.557 -0.5385  0.3147 -4.0593
 6419TIP3    H240673   4.996   1.800   2.510 -2.8660  0.6156  0.2659
 6420TIP3   OH240674   0.625   6.702   6.226 -0.3557 -0.2100 -0.1508
 6420TIP3    H140675   0.668   6.751   6.295 -1.4038  0.5728 -0.0257
 6420TIP3    H240676   0.555   6.654   6.270  0.4181 -1.5148 -0.3351
 6421TIP3   OH240677   6.607   0.286   2.704  0.1850  0.4852 -0.4110
 6421TIP3    H140678   6.662   0.362   2.720  0.0401  0.4280  0.3473
 6421TIP3    H240679   6.569   0.265   2.789  0.6734 -0.7779 -0.4899
 6422TIP3   OH240680   6.344   0.163   4.034 -0.1410 -0.6259  0.2157
 6422TIP3    H140681   6.313   0.144   4.123  0.3732  2.2843  1.0787
 6422TIP3    H240682   6.439   0.167   4.043 -0.0196 -1.3994 -0.7151
 6423TIP3   OH240683   1.966   4.752   0.564 -0.1313  0.5425 -0.3256
 6423TIP3    H140684   2.024   4.806   0.510  0.7465 -0.2394 -0.1752
 6423TIP3    H240685   1.972   4.791   0.651 -1.1531  1.4906 -0.6561
 6424TIP3   OH240686   2.213   1.125  10.803 -0.2691 -0.1378  0.4669
 6424TIP3    H140687   2.128   1.154  10.836  0.6523  0.2021  2.5798
 6424TIP3    H240688   2.204   1.030  10.795 -1.1072 -0.0151 -0.1029
 6425TIP3   OH240689   3.665   6.650  13.039 -0.2634  0.4773  0.1996
 6425TIP3    H140690   3.624   6.696  13.112  1.0251 -0.0924  1.2777
 6425TIP3    H240691   3.759   6.660  13.053  0.0144  1.7133 -2.2322
 6426TIP3   OH240692   0.652   4.326  16.805  0.3562  0.0083  0.2859
 6426TIP3    H140693   0.726   4.270  16.783 -0.6651 -0.8690 -1.0242
 6426TIP3    H240694   0.635   4.376  16.724  0.8766  1.7889  1.2380
 6427TIP3   OH240695   2.669   1.484   4.970 -0.0516 -0.0235  0.2023
 6427TIP3    H140696   2.625   1.568   4.982  1.0605  0.7289 -0.8983
 6427TIP3    H240697   2.630   1.427   5.036 -1.2195  1.1953  0.5826
 6428TIP3   OH240698   2.261   2.907   5.633 -0.7964 -0.3675  0.2620
 6428TIP3    H140699   2.253   2.836   5.569 -0.3613  0.7016 -0.9880
 6428TIP3    H240700   2.309   2.868   5.706  0.9019 -0.8863 -1.1188
 6429TIP3   OH240701   3.797   2.700  13.676 -0.9114 -0.6557 -0.5010
 6429TIP3    H140702   3.795   2.624  13.618  1.2108 -0.1158 -1.3088
 6429TIP3    H240703   3.875   2.688  13.730 -0.0143  1.3884 -1.2768
 6430TIP3   OH240704   1.209   5.690   3.723 -0.2460  0.7082  0.7311
 6430TIP3    H140705   1.281   5.728   3.672  1.1635  0.1145  2.2310
 6430TIP3    H240706   1.174   5.620   3.668  0.1416  1.1669 -0.1105
 6431TIP3   OH240707   1.329   5.556   2.978  0.1572 -0.4906 -0.0205
 6431TIP3    H140708   1.394   5.493   3.012 -0.8913 -1.4642  0.2232
 6431TIP3    H240709   1.253   5.502   2.956 -0.4320  0.5919 -0.6743
 6432TIP3   OH240710   3.622   3.578  14.200 -0.0251 -0.0473 -0.9230
 6432TIP3    H140711   3.645   3.527  14.122  1.6737 -0.7868  0.0391
 6432TIP3    H240712   3.667   3.534  14.272 -2.2648  0.1205  0.6263
 6433TIP3   OH240713   6.273   2.263  11.572  0.1483 -0.5767 -0.5668
 6433TIP3    H140714   6.261   2.256  11.477  2.1345 -0.6345 -0.8273
 6433TIP3    H240715   6.362   2.232  11.587  0.5904  1.4176  1.0741
 6434TIP3   OH240716   5.269   3.106   2.027  0.1993  0.1780  0.3036
 6434TIP3    H140717   5.201   3.103   2.094 -1.0270  1.6344 -0.8224
 6434TIP3    H240718   5.229   3.064   1.951  0.5977  0.9669 -0.3416
 6435TIP3   OH240719   4.207   0.835  17.164 -0.3692  0.5694  0.0502
 6435TIP3    H140720   4.157   0.874  17.092 -1.3415 -2.6863 -1.1208
 6435TIP3    H240721   4.147   0.834  17.238 -0.4628  0.9456 -0.0202
 6436TIP3   OH240722   2.752   2.370   3.782 -0.1925 -1.1588 -0.1290
 6436TIP3    H140723   2.678   2.342   3.836 -0.5834 -1.1394 -0.6548
 6436TIP3    H240724   2.807   2.421   3.842 -1.7385  0.7450 -0.2944
 6437TIP3   OH240725   5.395   0.809  12.543  0.2470  0.4153  0.3179
 6437TIP3    H140726   5.420   0.895  12.510  0.1739  0.5967  0.7317
 6437TIP3    H240727   5.402   0.816  12.638 -1.5975  0.5637  0.4729
 6438TIP3   OH240728   3.273   1.297   0.393  0.4887  0.3209 -0.5059
 6438TIP3    H140729   3.229   1.226   0.441  2.6483 -0.4779  0.3581
 6438TIP3    H240730   3.219   1.374   0.410 -0.6570 -0.6511  0.3926
 6439TIP3   OH240731   2.016   2.993  14.073  0.0788  0.3538 -0.2663
 6439TIP3    H140732   2.073   2.929  14.114  1.9808  0.4937 -2.5448
 6439TIP3    H240733   2.031   2.981  13.979 -2.9103  1.0984 -0.8874
 6440TIP3   OH240734   0.424   5.749   0.948  0.4502 -0.5710 -0.3432
 6440TIP3    H140735   0.445   5.736   0.856 -1.1015  0.5669 -0.8818
 6440TIP3    H240736   0.358   5.819   0.948  0.0716 -0.9003  1.5902
 6441TIP3   OH240737   1.608   3.395   3.490  0.6091 -0.2053 -0.2477
 6441TIP3    H140738   1.657   3.477   3.490  1.5325 -0.7134  1.4896
 6441TIP3    H240739   1.524   3.417   3.530  0.3367  0.1768 -1.0319
 6442TIP3   OH240740   3.947   2.168  12.677 -0.1554  0.4407 -0.3429
 6442TIP3    H140741   3.989   2.156  12.592 -0.0403  0.3087 -0.2699
 6442TIP3    H240742   4.020   2.179  12.738 -0.2711  3.9275 -0.7472
 6443TIP3   OH240743   6.542   2.692  13.070 -0.3676 -0.1270  0.5484
 6443TIP3    H140744   6.550   2.787  13.075  0.7232 -0.1219 -1.0983
 6443TIP3    H240745   6.590   2.660  13.147  1.5932  0.5623 -0.3653
 6444TIP3   OH240746   3.670   1.559  12.166 -0.4585  0.0373 -0.3340
 6444TIP3    H140747   3.647   1.638  12.215 -0.4956  0.3935 -0.9260
 6444TIP3    H240748   3.763   1.545  12.186 -1.4747 -2.2850  3.3068
 6445TIP3   OH240749   5.168   2.110   2.060  0.0784  0.5018 -0.2463
 6445TIP3    H140750   5.178   2.017   2.080  0.9899  0.6413 -0.0579
 6445TIP3    H240751   5.229   2.155   2.119 -0.6114  1.2464 -0.0897
 6446TIP3   OH240752   2.484   3.944  11.497  0.4400  0.5361 -0.5801
 6446TIP3    H140753   2.412   4.006  11.482 -0.6003 -0.1719  1.2593
 6446TIP3    H240754   2.441   3.863  11.525  1.9425  0.1404  0.6912
 6447TIP3   OH240755   1.081   1.488  16.836 -0.2060  0.4711 -0.4834
 6447TIP3    H140756   1.038   1.486  16.922 -1.7993 -1.1152 -1.2855
 6447TIP3    H240757   1.174   1.500  16.857 -0.5259 -0.1977  1.4848
 6448TIP3   OH240758   3.152   2.596   4.692  0.0899  0.7626 -0.3401
 6448TIP3    H140759   3.141   2.583   4.598  1.3329  0.1557 -0.4077
 6448TIP3    H240760   3.127   2.513   4.731  0.3339  0.7541 -0.1991
 6449TIP3   OH240761   2.268   6.238   2.227  0.0092  0.9116 -0.3837
 6449TIP3    H140762   2.352   6.284   2.239  0.2035  0.5112 -0.1867
 6449TIP3    H240763   2.209   6.280   2.289  0.4325  0.2970  0.4561
 6450TIP3   OH240764   2.806   0.912   0.312 -0.7165 -0.0795 -0.1425
 6450TIP3    H140765   2.866   0.987   0.306  0.0270 -0.8391 -3.0490
 6450TIP3    H240766   2.719   0.951   0.320 -0.0784  1.0586  1.3876
 6451TIP3   OH240767   5.065   6.394   6.483  0.5418  0.3595 -0.1342
 6451TIP3    H140768   5.085   6.480   6.446  2.2856 -0.4601 -1.1325
 6451TIP3    H240769   5.144   6.369   6.530  0.2273 -0.9391 -0.2841
 6452TIP3   OH240770   2.728   0.341  15.325  0.0848  0.0743  0.4148
 6452TIP3    H140771   2.778   0.295  15.393 -1.5166 -0.8016  1.0283
 6452TIP3    H240772   2.747   0.294  15.244 -0.9449 -1.2279  0.9111
 6453TIP3   OH240773   0.745   1.117   5.181 -0.4618 -0.5017  0.7264
 6453TIP3    H140774   0.828   1.121   5.134 -0.4700 -2.9781  0.4071
 6453TIP3    H240775   0.682   1.162   5.125  0.4744  0.6154  0.5620
 6454TIP3   OH240776   4.033   4.349   3.804  0.1584  0.5957  0.6039
 6454TIP3    H140777   4.050   4.385   3.716  1.1390  1.1272  0.9960
 6454TIP3    H240778   3.939   4.331   3.805  0.1892  0.3045 -0.6608
 6455TIP3   OH240779   4.299   2.567   5.285  0.5835 -0.4583 -0.9097
 6455TIP3    H140780   4.351   2.546   5.207 -1.2310 -4.3020 -1.1962
 6455TIP3    H240781   4.211   2.538   5.264 -0.5892  1.1373  1.5380
 6456TIP3   OH240782   1.716   3.717  13.493 -0.4130  0.6042  0.3423
 6456TIP3    H140783   1.749   3.767  13.567 -1.8714  1.2386  0.5793
 6456TIP3    H240784   1.756   3.630  13.503  0.2224  0.9937  1.2747
 6457TIP3   OH240785   5.064   1.241   1.579 -0.0299  0.2600  0.4023
 6457TIP3    H140786   5.083   1.181   1.652  0.6513 -0.6577 -0.5129
 6457TIP3    H240787   5.150   1.261   1.542 -0.4180  0.2886 -0.4903
 6458TIP3   OH240788   6.020   6.125  14.249 -0.0033  0.4108  0.3697
 6458TIP3    H140789   5.950   6.190  14.246 -0.4237 -0.0577 -0.2303
 6458TIP3    H240790   6.021   6.087  14.161  1.1512  0.5559  0.3081
 6459TIP3   OH240791   4.961   5.565   2.552 -0.3627  0.1650 -0.2210
 6459TIP3    H140792   5.000   5.599   2.632  1.3034 -0.4338 -0.7473
 6459TIP3    H240793   4.867   5.563   2.569 -0.0288  0.1177  1.6753
 6460TIP3   OH240794   3.136   4.837  12.876 -0.0156 -0.4631  0.6426
 6460TIP3    H140795   3.227   4.826  12.906  1.1983  0.7514 -2.3265
 6460TIP3    H240796   3.123   4.931  12.875 -0.6336 -0.5596 -0.8118
 6461TIP3   OH240797   2.432   4.116  12.739 -0.5342 -0.3609 -0.2124
 6461TIP3    H140798   2.359   4.145  12.684  0.1075 -2.0945 -2.0436
 6461TIP3    H240799   2.404   4.136  12.828 -2.6338  0.3370 -0.9947
 6462TIP3   OH240800   0.345   4.638  15.187 -0.1340 -0.1770 -0.2198
 6462TIP3    H140801   0.314   4.669  15.102 -1.0663 -2.1623 -0.6432
 6462TIP3    H240802   0.280   4.670  15.250  0.8474  1.7530 -0.1671
 6463TIP3   OH240803   2.865   2.625  15.653  0.0388  0.2268 -0.2864
 6463TIP3    H140804   2.844   2.694  15.716 -0.3080 -0.6110  0.5214
 6463TIP3    H240805   2.782   2.607  15.610  0.1332  0.3131 -0.5057
 6464TIP3   OH240806   6.518   2.503   2.441  0.6530 -0.0545 -0.1997
 6464TIP3    H140807   6.521   2.599   2.445 -0.8381  0.0871 -1.8554
 6464TIP3    H240808   6.585   2.479   2.377  1.0835 -0.1280  0.2762
 6465TIP3   OH240809   5.711   1.577   2.029  0.1235 -0.3714 -0.5785
 6465TIP3    H140810   5.754   1.507   1.978 -0.2309 -0.1928 -1.1231
 6465TIP3    H240811   5.702   1.649   1.967  0.2618  0.0746 -0.0806
 6466TIP3   OH240812   0.249   1.544   3.257 -0.0163  0.0401  0.1723
 6466TIP3    H140813   0.202   1.538   3.174 -1.1066  0.5464  0.7444
 6466TIP3    H240814   0.197   1.604   3.310  0.5520 -0.4528  1.3080
 6467TIP3   OH240815   6.756   4.717   3.033  0.6620 -0.0337  0.1888
 6467TIP3    H140816   6.814   4.685   2.964  0.5001 -0.9381  0.4570
 6467TIP3    H240817   6.799   4.796   3.066  0.7337  0.4208 -0.9454
 6468TIP3   OH240818   1.201   5.720  11.376 -0.3691 -0.2116 -0.3007
 6468TIP3    H140819   1.266   5.709  11.307 -0.6050 -1.3450 -0.3400
 6468TIP3    H240820   1.240   5.678  11.453 -1.3850 -1.6236 -0.5335
 6469TIP3   OH240821   6.374   3.326  11.470  0.0158 -0.0816 -0.1929
 6469TIP3    H140822   6.453   3.370  11.438 -0.7187  0.5096 -1.2502
 6469TIP3    H240823   6.303   3.388  11.453 -0.6197 -0.4027  1.2035
 6470TIP3   OH240824   4.569   5.358  16.086  0.1218 -0.6161 -0.6064
 6470TIP3    H140825   4.649   5.343  16.035 -0.5416 -1.1803 -1.4811
 6470TIP3    H240826   4.600   5.403  16.165  0.8823  2.6754 -2.6649
 6471TIP3   OH240827   6.031   5.942   5.853 -0.1540 -0.4295  0.0918
 6471TIP3    H140828   6.084   6.016   5.822  0.7763 -0.9433  0.4176
 6471TIP3    H240829   6.013   5.962   5.945  0.9267 -1.0617  0.4513
 6472TIP3   OH240830   3.322   0.692   0.487 -0.3867  0.4060  0.0115
 6472TIP3    H140831   3.332   0.676   0.393  1.2016  0.2803  0.1827
 6472TIP3    H240832   3.344   0.608   0.527  0.5963  0.9245  0.5721
 6473TIP3   OH240833   1.510   2.991   1.773 -0.4926  0.1475 -0.3156
 6473TIP3    H140834   1.569   3.064   1.753  0.1445 -1.0163 -2.8569
 6473TIP3    H240835   1.435   3.003   1.715 -0.4950 -1.0783 -0.5810
 6474TIP3   OH240836   1.521   3.303   2.242  0.2062  0.4235  0.2473
 6474TIP3    H140837   1.446   3.319   2.299  0.2891  0.8439  0.2398
 6474TIP3    H240838   1.482   3.288   2.156  0.0133 -1.2813  0.6131
 6475TIP3   OH240839   2.053   4.873   0.797  0.7171  0.7825 -0.4632
 6475TIP3    H140840   1.983   4.848   0.858  2.0067 -0.3590  0.5812
 6475TIP3    H240841   2.054   4.968   0.799 -1.5455  0.8748 -1.3555
 6476TIP3   OH240842   3.250   1.685  11.144  0.4784  0.2822 -0.0126
 6476TIP3    H140843   3.249   1.780  11.129 -0.1095  0.0865 -1.1898
 6476TIP3    H240844   3.334   1.656  11.108  0.5975  0.3270  0.2248
 6477TIP3   OH240845   2.054   5.890  15.780  0.6110 -0.1493  0.3237
 6477TIP3    H140846   2.089   5.948  15.713  1.4363  1.0146  1.7198
 6477TIP3    H240847   2.120   5.821  15.789  1.8907  1.2294  1.8930
 6478TIP3   OH240848   5.564   4.821  12.580 -0.4883  0.7712  0.2146
 6478TIP3    H140849   5.537   4.913  12.579 -0.8150  0.6755 -1.4092
 6478TIP3    H240850   5.556   4.795  12.671 -0.0983  2.4445  0.7464
 6479TIP3   OH240851   4.866   2.556   4.185  0.3719  0.4560  0.1650
 6479TIP3    H140852   4.923   2.601   4.247 -0.0267 -1.1697  1.7521
 6479TIP3    H240853   4.777   2.576   4.215  0.1665  0.1467 -0.2244
 6480TIP3   OH240854   0.815   6.187   3.443  0.0491 -0.1429 -0.1589
 6480TIP3    H140855   0.775   6.103   3.465 -1.7673  0.5195 -0.8162
 6480TIP3    H240856   0.870   6.208   3.518  1.0253 -2.2141 -0.2733
 6481TIP3   OH240857   3.792   0.269  15.643  0.2211 -0.5339  0.2926
 6481TIP3    H140858   3.835   0.239  15.723 -0.2169 -0.5822  0.5129
 6481TIP3    H240859   3.863   0.284  15.581  0.7634  1.7234  1.4182
 6482TIP3   OH240860   1.270   6.703   6.115 -0.3956 -0.0886 -0.3612
 6482TIP3    H140861   1.214   6.656   6.177 -0.8686  0.0605 -0.6787
 6482TIP3    H240862   1.334   6.748   6.170  0.4071 -1.5440 -0.0763
 6483TIP3   OH240863   4.216   1.065   2.895 -0.7099  0.1731 -0.3191
 6483TIP3    H140864   4.306   1.094   2.877  0.1167 -1.3861  1.1761
 6483TIP3    H240865   4.170   1.076   2.812  0.7992  1.2368 -1.0311
 6484TIP3   OH240866   0.953   1.462   4.152  0.4684 -0.0546  0.3420
 6484TIP3    H140867   0.892   1.516   4.202  0.9048  1.7958 -1.0865
 6484TIP3    H240868   0.899   1.389   4.120 -0.8402  1.1283 -0.2287
 6485TIP3   OH240869   1.555   0.055   0.893 -0.3064  0.0496  0.6255
 6485TIP3    H140870   1.608  -0.017   0.858 -0.6475  0.5730 -0.9947
 6485TIP3    H240871   1.573   0.053   0.987  0.6283 -1.3851  0.4490
 6486TIP3   OH240872   2.292   0.410   1.876  0.0233  0.9297  0.0003
 6486TIP3    H140873   2.226   0.355   1.835  2.3119 -1.1128 -1.0593
 6486TIP3    H240874   2.243   0.464   1.938 -2.6708 -0.2232 -1.0575
 6487TIP3   OH240875   1.858   4.512  13.621 -0.3188  0.1691 -0.4150
 6487TIP3    H140876   1.814   4.513  13.536 -2.4460 -0.4212  0.6525
 6487TIP3    H240877   1.804   4.454  13.675  1.6477 -0.3674  1.0098
 6488TIP3   OH240878   4.747   2.139   1.641  0.3071 -0.3956 -0.1735
 6488TIP3    H140879   4.708   2.173   1.721  0.7982 -1.3316  0.4736
 6488TIP3    H240880   4.692   2.175   1.571  0.0033  0.5963  0.5607
 6489TIP3   OH240881   4.014   2.225   1.611  0.0722 -0.9066 -0.1257
 6489TIP3    H140882   4.091   2.179   1.576  0.1242 -1.0356  0.1539
 6489TIP3    H240883   4.002   2.188   1.699  2.2322  2.0308  1.5158
 6490TIP3   OH240884   3.205   2.580  13.457 -0.2740  0.5586 -0.5799
 6490TIP3    H140885   3.259   2.643  13.505 -0.6430  0.9877 -0.7178
 6490TIP3    H240886   3.138   2.634  13.414 -0.9741  0.0110 -0.1914
 6491TIP3   OH240887   2.308   3.733   4.722  0.4744  0.0010  0.2171
 6491TIP3    H140888   2.305   3.825   4.696  3.0122  0.4289  1.3041
 6491TIP3    H240889   2.400   3.708   4.713 -0.1296 -2.3485  0.2492
 6492TIP3   OH240890   6.093   0.246  12.989  0.3351  0.4954 -0.0195
 6492TIP3    H140891   6.154   0.266  12.917 -0.2618  2.3865 -0.0370
 6492TIP3    H240892   6.150   0.238  13.066  0.7464  0.8880 -0.2756
 6493TIP3   OH240893   4.268   6.366   1.839  0.2095 -0.5821 -0.4692
 6493TIP3    H140894   4.329   6.303   1.878  1.0884  0.7315  0.3073
 6493TIP3    H240895   4.181   6.330   1.859  0.6850 -1.2442  0.4906
 6494TIP3   OH240896   5.698   1.992   3.351  0.7805 -0.1801  0.1720
 6494TIP3    H140897   5.783   1.961   3.321  0.4870 -1.5611  0.7400
 6494TIP3    H240898   5.707   1.998   3.446  0.6461  0.9232  0.1222
 6495TIP3   OH240899   5.523   0.187   0.160 -0.3680 -0.3787  0.1144
 6495TIP3    H140900   5.591   0.254   0.154  0.8860 -1.6587 -0.3328
 6495TIP3    H240901   5.463   0.206   0.087 -0.9651  1.2358  0.9958
 6496TIP3   OH240902   2.615   3.958  17.017 -0.6217 -0.4597 -0.0379
 6496TIP3    H140903   2.607   3.986  17.109  0.4962 -1.4431  0.3753
 6496TIP3    H240904   2.536   3.907  17.001  0.2052 -2.1576  1.0824
 6497TIP3   OH240905   1.159   2.168  13.326  0.2046 -0.1706 -0.0584
 6497TIP3    H140906   1.246   2.132  13.340  0.4089  0.4966  0.4158
 6497TIP3    H240907   1.156   2.186  13.231  0.6132 -0.1226 -0.0632
 6498TIP3   OH240908   0.505   2.201  14.658 -0.3635 -0.1230 -0.7629
 6498TIP3    H140909   0.423   2.240  14.689 -0.7095 -0.8208 -0.7916
 6498TIP3    H240910   0.481   2.111  14.635  0.7223 -0.8116  0.6713
 6499TIP3   OH240911   6.375   2.183  15.831 -0.4546  1.0380 -0.7465
 6499TIP3    H140912   6.466   2.184  15.862 -0.4895 -0.4760 -0.5634
 6499TIP3    H240913   6.366   2.265  15.782  0.8023  1.5298 -0.1897
 6500TIP3   OH240914   5.714   3.601  16.578 -0.2992 -0.1851 -0.0635
 6500TIP3    H140915   5.793   3.550  16.559 -0.7754 -0.9388 -0.0185
 6500TIP3    H240916   5.748   3.686  16.606  0.4967 -0.4285 -0.2573
 6501TIP3   OH240917   2.511   5.179   4.724  0.5986 -0.4511  0.3074
 6501TIP3    H140918   2.503   5.274   4.715  0.4996 -0.3524  1.3939
 6501TIP3    H240919   2.552   5.167   4.809 -2.3681 -1.4909  1.6360
 6502TIP3   OH240920   2.985   1.081  15.858  0.0151  0.0287 -0.3894
 6502TIP3    H140921   3.035   1.021  15.914 -2.4935  0.0456  1.9781
 6502TIP3    H240922   2.912   1.029  15.825 -0.3438  0.9158 -1.0057
 6503TIP3   OH240923   0.249   0.683   4.522  0.1118  0.0767  0.3820
 6503TIP3    H140924   0.193   0.695   4.599 -1.4132 -0.5473 -0.6108
 6503TIP3    H240925   0.206   0.614   4.472  1.7655 -0.3764 -0.4313
 6504TIP3   OH240926   2.864   5.000  12.012  0.6218  0.0015  0.5870
 6504TIP3    H140927   2.861   4.908  11.985 -0.8170 -0.1746  1.3306
 6504TIP3    H240928   2.797   5.043  11.959  1.2147  0.6054  0.3240
 6505TIP3   OH240929   1.024   1.816  15.379  0.4329  0.7310 -0.4732
 6505TIP3    H140930   0.950   1.830  15.439  0.1190  0.2336 -0.7412
 6505TIP3    H240931   1.074   1.745  15.419 -1.0682 -1.2311 -1.9882
 6506TIP3   OH240932   2.353   6.200   4.232  0.0356 -0.4350 -0.2964
 6506TIP3    H140933   2.391   6.152   4.306 -1.8347 -0.4104  0.7075
 6506TIP3    H240934   2.368   6.143   4.156  1.1168 -0.8983  0.2517
 6507TIP3   OH240935   0.908   1.077  14.546  0.6263 -0.2970  0.3570
 6507TIP3    H140936   0.941   1.072  14.456  1.1664  0.2748  0.5166
 6507TIP3    H240937   0.829   1.022  14.546  0.8999 -0.7000 -0.3389
 6508TIP3   OH240938   3.697   4.442   3.917 -0.1984 -0.3548 -0.1422
 6508TIP3    H140939   3.768   4.504   3.935  1.1925 -1.1966 -2.5057
 6508TIP3    H240940   3.730   4.388   3.845 -2.2920 -2.3585  0.3455
 6509TIP3   OH240941   0.526   0.664  12.011 -0.6190  0.0743  0.1636
 6509TIP3    H140942   0.615   0.633  12.028  0.3515  2.6856  0.1871
 6509TIP3    H240943   0.474   0.585  11.997  1.5770 -1.5110  0.7812
 6510TIP3   OH240944   6.664   4.427  11.171  0.6758  0.8923  0.4682
 6510TIP3    H140945   6.718   4.412  11.094 -0.2198  0.3197 -0.0419
 6510TIP3    H240946   6.727   4.454  11.239  1.3431  2.4525 -0.7402
 6511TIP3   OH240947   1.076   1.023  12.728  0.1572  0.1205 -0.7718
 6511TIP3    H140948   1.010   1.020  12.657 -0.8035 -2.1289  0.1483
 6511TIP3    H240949   1.151   1.067  12.689 -1.7170  2.3151 -2.0175
 6512TIP3   OH240950   0.188   4.276   1.332 -0.0122 -0.1413 -0.1431
 6512TIP3    H140951   0.250   4.213   1.368 -1.4897 -1.5567 -0.0271
 6512TIP3    H240952   0.159   4.237   1.249 -0.9885  0.3578 -0.0440
 6513TIP3   OH240953   5.808   4.448   2.743  0.3729  0.2279 -0.3802
 6513TIP3    H140954   5.871   4.452   2.816 -0.5992 -1.4000  0.5651
 6513TIP3    H240955   5.850   4.391   2.679  0.5200  0.3727 -0.4141
 6514TIP3   OH240956   6.498   5.765   5.073  0.2616 -0.1315  0.4593
 6514TIP3    H140957   6.412   5.742   5.036  1.0288 -1.1866 -0.6767
 6514TIP3    H240958   6.478   5.794   5.162 -1.3575  0.2741 -0.0111
 6515TIP3   OH240959   0.204   3.674  16.766 -0.3684 -0.2876 -0.1619
 6515TIP3    H140960   0.223   3.760  16.728 -0.7532 -0.2268 -0.2242
 6515TIP3    H240961   0.123   3.647  16.723 -1.0264 -0.0440  0.9095
 6516TIP3   OH240962   2.855   5.630  13.231 -0.0775  0.6256  0.0837
 6516TIP3    H140963   2.848   5.570  13.305  0.6998  1.3277  0.7372
 6516TIP3    H240964   2.799   5.704  13.254 -1.0248  0.1802 -0.7151
 6517TIP3   OH240965   4.169   6.538  14.275 -0.0284 -0.3799  0.3944
 6517TIP3    H140966   4.184   6.448  14.244 -1.4487 -0.4480 -0.1082
 6517TIP3    H240967   4.102   6.528  14.343 -0.0353  0.2770  0.4812
 6518TIP3   OH240968   4.686   1.775  11.917  0.1185  0.0960  0.0254
 6518TIP3    H140969   4.594   1.801  11.918 -0.1689 -0.9755  0.8972
 6518TIP3    H240970   4.686   1.686  11.883  0.5835 -0.8928  2.5221
 6519TIP3   OH240971   2.938   4.373  16.506 -0.5038 -0.1710 -0.5220
 6519TIP3    H140972   2.876   4.446  16.503 -1.5585 -0.9869  0.6106
 6519TIP3    H240973   3.018   4.411  16.542 -1.0968  0.4064  0.2120
 6520TIP3   OH240974   3.106   6.620  10.874 -0.1301  0.0295  0.0179
 6520TIP3    H140975   3.197   6.647  10.872  1.4655 -4.8961  0.4017
 6520TIP3    H240976   3.083   6.617  10.967 -0.1552 -0.3667  0.0010
 6521TIP3   OH240977   1.975   2.396   0.064 -0.1904  0.0196  0.2812
 6521TIP3    H140978   2.022   2.367   0.142 -0.0064  1.1581  0.6059
 6521TIP3    H240979   1.883   2.400   0.090 -0.0891  0.7032  0.5280
 6522TIP3   OH240980   3.550   0.906  12.599 -0.0694  0.0242 -0.2236
 6522TIP3    H140981   3.590   0.824  12.567  0.5646  0.3552 -0.2949
 6522TIP3    H240982   3.478   0.922  12.539  1.0762  0.6121 -1.4845
 6523TIP3   OH240983   0.870   1.588  16.664  0.3679 -0.1290 -0.6078
 6523TIP3    H140984   0.920   1.613  16.742 -0.6481  2.1360 -0.6171
 6523TIP3    H240985   0.821   1.511  16.691  2.2154 -1.0972  0.0699
 6524TIP3   OH240986   2.484   2.994   2.955  0.5194  0.2182 -0.2625
 6524TIP3    H140987   2.520   3.077   2.986 -0.1961  0.3235  0.2976
 6524TIP3    H240988   2.391   2.998   2.978  0.4373 -0.6419 -0.4312
 6525TIP3   OH240989   2.350   3.140   0.265 -0.3548 -0.0823  0.4179
 6525TIP3    H140990   2.287   3.160   0.335  1.7099  0.4939  2.1717
 6525TIP3    H240991   2.371   3.225   0.227 -0.7716 -0.2954 -0.2918
 6526TIP3   OH240992   5.338   3.871  12.823  0.2319 -0.0587 -0.2810
 6526TIP3    H140993   5.288   3.840  12.748  0.6955  0.0661 -0.6448
 6526TIP3    H240994   5.301   3.958  12.842  0.4888  0.1464 -0.7165
 6527TIP3   OH240995   6.454   2.738  13.396 -0.2776 -0.0159  0.7044
 6527TIP3    H140996   6.449   2.812  13.335  1.1143 -1.2135 -0.8837
 6527TIP3    H240997   6.547   2.729  13.416 -0.7026  0.2480  2.8868
 6528TIP3   OH240998   1.129   0.378  16.033  0.4214 -0.6077  0.3683
 6528TIP3    H140999   1.081   0.401  16.113 -0.5091  0.1571 -0.3960
 6528TIP3    H241000   1.062   0.343  15.974  0.9201 -0.1814 -0.4573
 6529TIP3   OH241001   4.874   4.033   0.543 -0.4469  0.0066 -0.5865
 6529TIP3    H141002   4.952   4.088   0.531 -1.6021  1.2067 -2.7399
 6529TIP3    H241003   4.878   3.969   0.472 -0.9441 -0.5325 -0.1398
 6530TIP3   OH241004   4.411   5.551  14.193  0.6016 -0.2334 -0.1213
 6530TIP3    H141005   4.463   5.480  14.156 -0.8981 -0.9458 -0.9215
 6530TIP3    H241006   4.328   5.546  14.146 -0.1358  0.9656  1.0349
 6531TIP3   OH241007   5.882   0.605   1.742  0.2888  0.2955 -0.0823
 6531TIP3    H141008   5.905   0.665   1.671 -1.1507  0.4681 -0.4184
 6531TIP3    H241009   5.849   0.661   1.812  2.1094  0.1641  0.9186
 6532TIP3   OH241010   0.284   1.760  13.582 -0.3313 -0.9414  0.2109
 6532TIP3    H141011   0.301   1.678  13.628  1.3205 -1.1920 -0.8032
 6532TIP3    H241012   0.299   1.828  13.648 -1.3777 -1.4250  0.9621
 6533TIP3   OH241013   4.264   5.395  16.283 -0.5041 -0.0078 -0.1851
 6533TIP3    H141014   4.222   5.436  16.360 -1.2013 -1.1481  0.0531
 6533TIP3    H241015   4.358   5.410  16.297 -0.7213  1.1480  0.1062
 6534TIP3   OH241016   0.275   0.423   6.888 -0.7896 -0.8843  0.1740
 6534TIP3    H141017   0.348   0.384   6.936 -0.2581 -0.6477 -0.4284
 6534TIP3    H241018   0.264   0.510   6.926 -0.8353 -0.9688  0.3512
 6535TIP3   OH241019   3.834   1.608  13.276 -0.1936 -0.2559  0.1257
 6535TIP3    H141020   3.787   1.597  13.193 -0.4402  0.4690  0.1613
 6535TIP3    H241021   3.765   1.631  13.339  0.2651  1.3667  0.0622
 6536TIP3   OH241022   4.487   4.756   0.458  0.4110 -0.2146  0.1474
 6536TIP3    H141023   4.548   4.799   0.398  0.4641 -0.6676 -0.1264
 6536TIP3    H241024   4.542   4.702   0.514  0.3801  0.3534  0.7352
 6537TIP3   OH241025   3.258   4.121  12.503 -0.5500  0.1247  0.6483
 6537TIP3    H141026   3.182   4.086  12.455 -0.0809 -3.1721  2.1960
 6537TIP3    H241027   3.327   4.125  12.437 -0.8902 -0.9712  0.2035
 6538TIP3   OH241028   4.185   3.126   3.962 -0.7840 -0.9580  0.0775
 6538TIP3    H141029   4.125   3.195   3.992 -1.9980 -1.5608 -0.9010
 6538TIP3    H241030   4.242   3.110   4.037 -1.0244  0.5301  0.5902
 6539TIP3   OH241031   1.389   6.236   4.153 -0.0517 -0.1341  0.3274
 6539TIP3    H141032   1.445   6.268   4.223 -0.0363 -0.1174  0.3073
 6539TIP3    H241033   1.448   6.186   4.096 -0.1959 -0.7134  0.6906
 6540TIP3   OH241034   6.205   0.792  14.253  0.5332  0.0651 -0.4609
 6540TIP3    H141035   6.245   0.705  14.265  1.9072  1.0530  2.7794
 6540TIP3    H241036   6.146   0.801  14.328  0.2341  1.8559 -0.9013
 6541TIP3   OH241037   1.041   0.554   0.964  0.0853 -0.3261 -0.2014
 6541TIP3    H141038   1.031   0.549   1.059 -2.9008  0.0995 -0.4420
 6541TIP3    H241039   0.998   0.474   0.932  0.5208 -0.1506 -1.2283
 6542TIP3   OH241040   0.805   0.896   1.937  0.4455  0.0377 -0.3869
 6542TIP3    H141041   0.722   0.939   1.915  1.5992  2.1661 -0.6077
 6542TIP3    H241042   0.785   0.848   2.018 -0.9753  0.5951 -0.3825
 6543TIP3   OH241043   2.762   0.539  12.874  0.2133 -0.6318  0.8103
 6543TIP3    H141044   2.748   0.445  12.887  2.2942 -0.9739  0.7826
 6543TIP3    H241045   2.685   0.568  12.825 -0.6267 -2.2429  1.1266
 6544TIP3   OH241046   5.478   0.733   4.790 -0.6920 -0.4870  0.1119
 6544TIP3    H141047   5.424   0.660   4.823 -1.6419  0.2402  0.1699
 6544TIP3    H241048   5.500   0.707   4.701 -0.5317 -1.1230  0.3284
 6545TIP3   OH241049   0.722   1.250   5.952  0.2782  0.1958 -0.5040
 6545TIP3    H141050   0.677   1.200   5.884 -0.7659  0.2223  0.1371
 6545TIP3    H241051   0.755   1.183   6.012  1.5230  0.1568 -1.2267
 6546TIP3   OH241052   2.572   4.824  17.146  0.3345  0.0588 -0.3928
 6546TIP3    H141053   2.526   4.872  17.076  0.0888  0.6432  0.1719
 6546TIP3    H241054   2.507   4.762  17.178  0.0123  0.7146  0.2323
 6547TIP3   OH241055   0.456   3.296  11.674 -0.4907 -0.0224  0.1509
 6547TIP3    H141056   0.522   3.229  11.694 -0.5395  0.7529  3.0402
 6547TIP3    H241057   0.505   3.366  11.631  0.4883  0.2353  1.6403
 6548TIP3   OH241058   4.316   2.215   5.260 -0.0331 -1.3225 -0.0701
 6548TIP3    H141059   4.260   2.207   5.337 -0.8852  0.9792 -0.4009
 6548TIP3    H241060   4.257   2.242   5.190  1.2254 -0.4457 -0.8054
 6549TIP3   OH241061   1.417   6.041   5.373  0.1984 -0.5352  0.1160
 6549TIP3    H141062   1.407   5.946   5.372  0.3834 -0.5571  0.2795
 6549TIP3    H241063   1.507   6.056   5.400  0.6063 -0.3423 -1.2894
 6550TIP3   OH241064   5.019   5.703   5.244 -0.4676 -0.0898  0.2769
 6550TIP3    H141065   4.955   5.720   5.174  1.0115  0.3235 -1.0012
 6550TIP3    H241066   5.049   5.790   5.270  0.1789 -0.3194  0.3016
 6551TIP3   OH241067   4.459   6.609   5.493  0.0698  0.4525 -0.5418
 6551TIP3    H141068   4.549   6.610   5.525 -0.2927  2.0350  0.5154
 6551TIP3    H241069   4.444   6.698   5.462 -1.4448  0.4899  0.2339
 6552TIP3   OH241070   6.213   2.781  15.105 -0.7587 -0.3117  0.2141
 6552TIP3    H141071   6.289   2.765  15.161 -0.1019 -0.2291 -0.6534
 6552TIP3    H241072   6.191   2.873  15.122  1.1179  0.5367 -1.6734
 6553TIP3   OH241073   0.103   0.996   3.175  0.1439  0.3148  0.3579
 6553TIP3    H141074   0.110   1.091   3.178  0.4502  0.2628  1.4500
 6553TIP3    H241075   0.046   0.978   3.101 -0.0963  1.3563  0.2911
 6554TIP3   OH241076   5.185   6.201  15.595 -0.3582 -0.0188  0.6033
 6554TIP3    H141077   5.107   6.240  15.634  0.7033  1.8915  0.8752
 6554TIP3    H241078   5.223   6.149  15.666 -0.8252 -0.1321  0.7742
 6555TIP3   OH241079   2.186   1.328  15.966 -0.7574  0.2307 -0.4735
 6555TIP3    H141080   2.244   1.286  16.029  0.2496  3.3178  0.7389
 6555TIP3    H241081   2.145   1.256  15.919 -0.1648 -2.0871  2.4788
 6556TIP3   OH241082   3.002   3.267   3.611  0.1910 -0.0124 -0.1156
 6556TIP3    H141083   2.910   3.291   3.613 -0.1123 -1.1634  0.0276
 6556TIP3    H241084   3.020   3.233   3.699  0.8446  0.5419 -0.0292
 6557TIP3   OH241085   6.127   2.073  11.731 -0.5727 -0.2327 -0.1046
 6557TIP3    H141086   6.221   2.085  11.720 -0.8453 -0.3223 -2.6852
 6557TIP3    H241087   6.120   1.997  11.789  0.9287 -1.8824 -2.0201
 6558TIP3   OH241088   5.307   4.556   3.427 -0.1428 -0.0255  0.5187
 6558TIP3    H141089   5.247   4.547   3.353 -0.5805 -0.8585  0.9570
 6558TIP3    H241090   5.387   4.593   3.390 -0.1193 -1.0728 -0.4994
 6559TIP3   OH241091   4.909   6.698  12.073 -0.8160  0.0769  1.1020
 6559TIP3    H141092   4.959   6.685  11.992 -2.0750  1.8618 -0.0029
 6559TIP3    H241093   4.849   6.624  12.077  0.9701 -1.3648  1.7346
 6560TIP3   OH241094   2.542   3.020  16.631 -0.1998  0.4041  0.1401
 6560TIP3    H141095   2.541   2.952  16.564 -1.1452  0.7561 -0.2088
 6560TIP3    H241096   2.494   2.983  16.704  2.8018 -0.8764  1.5490
 6561TIP3   OH241097   6.563   4.150   3.410  0.1082  0.3239 -0.0162
 6561TIP3    H141098   6.562   4.114   3.321 -0.3634 -0.1977  0.1908
 6561TIP3    H241099   6.494   4.101   3.456 -1.2923  2.2702 -0.0247
 6562TIP3   OH241100   3.736   2.817   3.181 -0.1519  0.6204 -0.9571
 6562TIP3    H141101   3.773   2.853   3.100  0.5120 -1.1954 -1.4995
 6562TIP3    H241102   3.689   2.738   3.152  0.8863 -0.5697  0.5353
 6563TIP3   OH241103   2.723   1.543   4.165  0.2984  0.3714 -0.8839
 6563TIP3    H141104   2.754   1.632   4.184  0.6564  0.1613 -0.4778
 6563TIP3    H241105   2.632   1.543   4.194  0.2133  0.6881 -1.1433
 6564TIP3   OH241106   3.276   4.937   6.156  0.3609 -0.4433  0.4310
 6564TIP3    H141107   3.246   4.904   6.241  1.2352 -2.7327 -0.1084
 6564TIP3    H241108   3.229   4.883   6.092  0.1423  0.8805 -0.5409
 6565TIP3   OH241109   0.134   5.753   4.624  0.3792  0.5852 -0.8372
 6565TIP3    H141110   0.076   5.796   4.561  0.4852  0.2258 -1.1832
 6565TIP3    H241111   0.113   5.660   4.616 -1.9090  0.7641  1.9574
 6566TIP3   OH241112   0.815   4.254  15.632  0.2355  0.0348  0.4682
 6566TIP3    H141113   0.784   4.342  15.656 -0.5599 -0.4040  1.0888
 6566TIP3    H241114   0.859   4.222  15.711 -0.5136 -0.5774  0.6482
 6567TIP3   OH241115   5.958   0.084   1.885 -0.6434 -0.4642 -0.3507
 6567TIP3    H141116   5.884   0.142   1.904 -0.5937 -0.3840 -0.4047
 6567TIP3    H241117   6.023   0.140   1.844 -0.6450 -0.5851 -0.5183
 6568TIP3   OH241118   2.059   2.397   5.160 -0.5977  0.1711 -0.7493
 6568TIP3    H141119   2.039   2.317   5.112 -1.1623  1.3372 -2.4886
 6568TIP3    H241120   2.038   2.468   5.100 -1.9310  1.7043  1.4238
 6569TIP3   OH241121   4.448   5.022   0.591 -0.0062  0.1412  0.1187
 6569TIP3    H141122   4.410   5.035   0.505  1.4473  1.9944 -0.2864
 6569TIP3    H241123   4.442   4.927   0.606 -0.3947 -0.1881 -1.9411
 6570TIP3   OH241124   3.089   6.588  15.711  0.8611  0.0282 -0.5127
 6570TIP3    H141125   3.085   6.673  15.666  1.1711  0.7661  0.8329
 6570TIP3    H241126   3.115   6.609  15.800  0.4028 -1.4378 -0.0174
 6571TIP3   OH241127   0.510   2.542   4.076 -0.6644 -0.4150  0.1268
 6571TIP3    H141128   0.504   2.570   3.984  0.1188  0.1230  0.2378
 6571TIP3    H241129   0.478   2.617   4.126 -1.3124 -0.7965  0.2809
 6572TIP3   OH241130   5.641   4.529   1.756  0.4183 -0.1357  0.6193
 6572TIP3    H141131   5.620   4.550   1.847 -2.2366 -1.7348  0.4250
 6572TIP3    H241132   5.557   4.530   1.711  1.4000 -1.6998 -1.3307
 6573TIP3   OH241133   4.704   2.833  13.826 -0.3946  0.1204 -0.2935
 6573TIP3    H141134   4.679   2.876  13.908 -3.3227  0.6086 -1.3846
 6573TIP3    H241135   4.777   2.777  13.850 -0.1626  1.4721  2.3242
 6574TIP3   OH241136   2.905   3.023  12.628 -0.2598 -0.3870 -0.1559
 6574TIP3    H141137   2.868   3.097  12.677 -1.1449 -1.1209  0.3182
 6574TIP3    H241138   2.993   3.012  12.664  0.2903  1.1189 -0.9922
 6575TIP3   OH241139   4.143   5.930  10.847  0.9661 -0.0572 -0.1309
 6575TIP3    H141140   4.171   5.843  10.818  0.4545 -0.5202  0.7583
 6575TIP3    H241141   4.081   5.913  10.918 -1.5797  0.9539 -2.0466
 6576TIP3   OH241142   4.001   3.705  11.919  0.7251  0.7567  0.3522
 6576TIP3    H141143   3.928   3.644  11.929 -0.1057  1.5630 -0.7278
 6576TIP3    H241144   3.960   3.791  11.910  1.7363  1.0344 -1.9320
 6577TIP3   OH241145   0.552   1.377   5.081 -0.4915 -0.0838 -0.2569
 6577TIP3    H141146   0.605   1.352   5.005 -1.6702  1.0839 -1.4950
 6577TIP3    H241147   0.473   1.324   5.074 -1.7257  1.8033 -1.3047
 6578TIP3   OH241148   4.956   2.862  11.147  0.0202  0.6198  0.2805
 6578TIP3    H141149   5.050   2.866  11.129  0.0436  0.7761  0.4334
 6578TIP3    H241150   4.937   2.944  11.192 -0.2603  0.7572 -0.0860
 6579TIP3   OH241151   0.086   2.130  16.344  0.1229 -0.5385 -0.0998
 6579TIP3    H141152   0.072   2.224  16.332 -0.1131 -0.6621 -0.8583
 6579TIP3    H241153   0.181   2.120  16.347  0.1753 -0.3766 -0.9711
 6580TIP3   OH241154   0.178   5.570   2.605 -0.8007  0.0710  0.3576
 6580TIP3    H141155   0.162   5.518   2.684 -1.0412  0.0956  0.3240
 6580TIP3    H241156   0.128   5.526   2.537 -0.9774  0.3285  0.3207
 6581TIP3   OH241157   1.080   5.139   1.501 -0.0679  0.5614  0.1145
 6581TIP3    H141158   1.172   5.116   1.492 -0.0970  1.0787 -1.6297
 6581TIP3    H241159   1.046   5.139   1.412 -0.6281  5.0183  0.2071
 6582TIP3   OH241160   0.867   2.416   2.409  0.4778  0.0922  0.3431
 6582TIP3    H141161   0.871   2.511   2.402  1.0081  0.0114 -0.4482
 6582TIP3    H241162   0.942   2.393   2.463  1.1635  0.0046 -0.6414
 6583TIP3   OH241163   2.807   1.246  12.054  0.0864  0.3095  0.6127
 6583TIP3    H141164   2.859   1.190  11.996 -2.4417 -0.4805 -0.9888
 6583TIP3    H241165   2.814   1.333  12.014  1.8802  0.6544  1.6220
 6584TIP3   OH241166   5.319   4.870   3.072 -0.9584  0.2467  0.1192
 6584TIP3    H141167   5.373   4.823   3.009 -2.3651 -1.4980  0.1404
 6584TIP3    H241168   5.246   4.904   3.021 -0.5690  1.3966  0.3166
 6585TIP3   OH241169   4.648   5.699  12.190 -0.2707  0.6122  0.0763
 6585TIP3    H141170   4.727   5.644  12.191 -0.4023  0.4064 -0.4078
 6585TIP3    H241171   4.590   5.656  12.127 -1.4506 -0.1657  1.6657
 6586TIP3   OH241172   5.135   4.771  11.811  0.2416  0.1240  0.5491
 6586TIP3    H141173   5.104   4.687  11.778  1.4304 -0.4846  0.9178
 6586TIP3    H241174   5.056   4.821  11.830 -0.4775  0.3509 -2.8139
 6587TIP3   OH241175   1.112   1.742  16.550 -0.2715  1.1678 -0.2476
 6587TIP3    H141176   1.095   1.683  16.476 -0.4160  1.0471 -0.1187
 6587TIP3    H241177   1.050   1.714  16.617  0.3918  0.7707  0.1975
 6588TIP3   OH241178   6.747   0.449  15.088  0.4243 -0.5898  0.1765
 6588TIP3    H141179   6.810   0.500  15.037  0.1983 -0.1645  0.3276
 6588TIP3    H241180   6.661   0.477  15.056  0.2945 -0.6971  0.4318
 6589TIP3   OH241181   4.313   5.670   2.061 -0.6781  0.0456 -0.1591
 6589TIP3    H141182   4.399   5.680   2.102 -0.2400 -0.6695 -0.8991
 6589TIP3    H241183   4.299   5.752   2.014  0.2092 -0.3654 -1.1693
 6590TIP3   OH241184   4.226   1.262  11.527  0.1165  0.0328 -0.1356
 6590TIP3    H141185   4.157   1.205  11.494 -0.3227 -0.1004  1.0151
 6590TIP3    H241186   4.249   1.226  11.613  0.2190  1.2606  0.3609
 6591TIP3   OH241187   0.198   4.569  14.267 -0.2176  0.2147  0.1920
 6591TIP3    H141188   0.261   4.507  14.302  1.2095  2.2305  1.3163
 6591TIP3    H241189   0.113   4.533  14.292  0.5979 -1.1028  1.1372
 6592TIP3   OH241190   4.821   2.733  15.301 -0.0603 -0.0004  0.0460
 6592TIP3    H141191   4.813   2.640  15.278  0.6210 -0.7391  2.5532
 6592TIP3    H241192   4.908   2.758  15.270 -0.4331 -0.0731 -1.0574
 6593TIP3   OH241193   6.384   6.202   6.204 -0.0481 -0.3637 -0.2652
 6593TIP3    H141194   6.449   6.272   6.216  0.7376 -1.2815  1.0279
 6593TIP3    H241195   6.334   6.228   6.127  0.4219  1.4824  0.0386
 6594TIP3   OH241196   6.080   4.090  16.723  0.5664 -0.0606  0.1753
 6594TIP3    H141197   6.094   4.183  16.709  1.7900 -0.4673 -1.4498
 6594TIP3    H241198   6.030   4.085  16.804  0.2871  2.0131  0.1515
 6595TIP3   OH241199   3.863   1.238   4.700  0.0093 -0.2288 -0.0196
 6595TIP3    H141200   3.885   1.287   4.621  0.7352 -0.9827 -0.2946
 6595TIP3    H241201   3.859   1.147   4.672 -1.0609 -0.3672  0.5460
 6596TIP3   OH241202   2.935   1.917  13.742 -0.2663 -0.3994 -0.7212
 6596TIP3    H141203   2.875   1.872  13.801  0.3124  2.2067  1.9399
 6596TIP3    H241204   3.022   1.886  13.766  0.1377  1.9766  1.1240
 6597TIP3   OH241205   3.780   0.048  12.873  0.4209 -0.0578  0.7371
 6597TIP3    H141206   3.717   0.015  12.936 -1.5466 -1.0513 -1.6776
 6597TIP3    H241207   3.808  -0.029  12.824  3.0633  0.4608  1.3594
 6598TIP3   OH241208   4.564   2.283   2.990 -0.0200  0.5353  0.3224
 6598TIP3    H141209   4.524   2.327   2.915 -0.4452 -1.7583 -0.8490
 6598TIP3    H241210   4.493   2.231   3.027  0.6492  0.2849  1.2537
 6599TIP3   OH241211   3.188   2.185   3.331 -0.2227 -0.1134 -0.6646
 6599TIP3    H141212   3.098   2.152   3.325  0.5146 -2.6297  1.3833
 6599TIP3    H241213   3.241   2.120   3.286  0.9132 -0.1502  0.6923
 6600TIP3   OH241214   0.870   3.876   2.083  0.1205  0.1555  0.0408
 6600TIP3    H141215   0.777   3.896   2.077  0.4304  1.7972  0.5243
 6600TIP3    H241216   0.890   3.879   2.177  1.1795  2.2728 -0.2375
 6601TIP3   OH241217   4.736   5.956  13.172  0.1010 -0.2333 -0.0701
 6601TIP3    H141218   4.717   6.016  13.100 -0.3786  0.3906  0.5795
 6601TIP3    H241219   4.676   5.982  13.242  0.3045 -1.0806  0.4241
 6602TIP3   OH241220   2.455   3.539  12.285 -0.0060 -0.2237 -0.3954
 6602TIP3    H141221   2.427   3.486  12.210  0.9150 -1.3198  0.0253
 6602TIP3    H241222   2.513   3.481  12.335 -0.4223  0.5776  1.0383
 6603TIP3   OH241223   1.930   3.951   0.432  0.2175 -0.5712 -0.2407
 6603TIP3    H141224   1.890   3.867   0.457  1.8166 -1.3209 -0.1413
 6603TIP3    H241225   2.018   3.947   0.469  0.7732  0.5892 -1.4091
 6604TIP3   OH241226   3.542   4.207   4.460 -0.2232 -0.1791  0.3992
 6604TIP3    H141227   3.504   4.263   4.392 -1.4856  2.0648  2.8865
 6604TIP3    H241228   3.527   4.254   4.542  0.4229 -3.2578  2.3765
 6605TIP3   OH241229   0.809   4.133   5.399  0.1351 -0.2919 -0.5069
 6605TIP3    H141230   0.779   4.165   5.484 -0.4540  0.6719 -1.0650
 6605TIP3    H241231   0.824   4.039   5.412  1.2592  0.0718  0.9945
 6606TIP3   OH241232   2.899   1.131   2.653  0.0503 -0.5160  0.2328
 6606TIP3    H141233   2.844   1.054   2.669  1.9995 -1.7437  1.2769
 6606TIP3    H241234   2.901   1.139   2.557  0.0095 -1.9350  0.0995
 6607TIP3   OH241235   4.725   5.644  17.087 -0.0549  0.3053  0.1501
 6607TIP3    H141236   4.635   5.612  17.082  0.2779 -1.1201  2.4793
 6607TIP3    H241237   4.768   5.607  17.010 -0.9309 -0.8626  0.2133
 6608TIP3   OH241238   3.044   2.437   0.493 -0.4019  0.1030  0.1908
 6608TIP3    H141239   2.984   2.509   0.471 -2.8796 -1.6428  1.0206
 6608TIP3    H241240   3.112   2.479   0.546 -0.4229  2.2848 -1.4267
 6609TIP3   OH241241   2.544   5.998  12.014  0.0973  0.4822 -0.0684
 6609TIP3    H141242   2.618   6.039  11.969  0.1509  0.0347 -0.3980
 6609TIP3    H241243   2.491   6.071  12.045  0.2259  0.8013 -0.5846
 6610TIP3   OH241244   3.155   2.853   0.479  0.1836 -0.4201 -0.1685
 6610TIP3    H141245   3.159   2.792   0.553  1.2126  1.3547  1.2979
 6610TIP3    H241246   3.065   2.848   0.448  0.1235 -2.2935  0.2311
 6611TIP3   OH241247   5.731   2.061   4.307  0.0879 -0.3200  0.5261
 6611TIP3    H141248   5.736   2.132   4.370 -0.0057 -0.4130  0.6387
 6611TIP3    H241249   5.693   1.988   4.356  2.2082 -1.1293  1.0037
 6612TIP3   OH241250   4.983   0.333   2.873  0.7771  0.1592  0.0776
 6612TIP3    H141251   5.039   0.405   2.901  0.6410 -0.4066  1.8411
 6612TIP3    H241252   4.935   0.307   2.951 -0.4900 -0.6783 -0.9585
 6613TIP3   OH241253   5.828   4.287  16.361  0.1143 -0.3273  0.1397
 6613TIP3    H141254   5.845   4.270  16.454  0.7213 -2.9880 -0.4036
 6613TIP3    H241255   5.914   4.307  16.324  0.2363 -1.6097 -0.2856
 6614TIP3   OH241256   4.023   2.597  14.313 -0.1790 -0.1122  0.0576
 6614TIP3    H141257   4.003   2.522  14.257 -0.2543  0.2756 -0.4447
 6614TIP3    H241258   3.975   2.670  14.273  2.4971  0.9125 -1.3764
 6615TIP3   OH241259   1.977   4.409  16.399  0.2338  0.0408  0.5396
 6615TIP3    H141260   1.993   4.436  16.490 -1.2777 -0.0867  0.8526
 6615TIP3    H241261   1.985   4.490  16.348  1.6969  0.0063  0.6998
 6616TIP3   OH241262   5.948   1.857   3.319 -0.6814 -0.1455  0.1239
 6616TIP3    H141263   5.928   1.807   3.399  0.2715 -1.7625 -0.6076
 6616TIP3    H241264   6.007   1.926   3.349  0.9507 -1.6930  0.6162
 6617TIP3   OH241265   2.851   4.737   4.855  0.1395 -0.4711 -0.1617
 6617TIP3    H141266   2.770   4.688   4.840 -0.4877 -0.0486  1.7452
 6617TIP3    H241267   2.833   4.791   4.932  2.3037 -0.5246  0.4138
 6618TIP3   OH241268   5.078   5.624  10.844 -0.5131  0.0728 -0.3438
 6618TIP3    H141269   5.097   5.715  10.819 -3.2999  1.2608  1.5326
 6618TIP3    H241270   5.037   5.585  10.767  0.6546  0.4194 -1.1447
 6619TIP3   OH241271   1.312   5.018   2.844  0.1274 -0.1229  0.7117
 6619TIP3    H141272   1.328   4.993   2.753 -1.2541  0.7056  0.2265
 6619TIP3    H241273   1.399   5.033   2.881  0.6029  1.5407 -1.0564
 6620TIP3   OH241274   2.384   4.692  15.848 -0.2129 -0.0800 -0.5629
 6620TIP3    H141275   2.469   4.680  15.891 -1.4771 -2.0040  1.5542
 6620TIP3    H241276   2.369   4.611  15.800 -0.4696  0.6134 -1.6773
 6621TIP3   OH241277   2.612   0.051   4.076 -0.4794 -0.4753 -0.6470
 6621TIP3    H141278   2.520   0.072   4.060 -0.6041 -0.5878 -0.0854
 6621TIP3    H241279   2.624  -0.035   4.035 -0.2129  0.2480 -2.1098
 6622TIP3   OH241280   0.205   1.599  15.987  0.4940  0.3076  0.2884
 6622TIP3    H141281   0.248   1.582  16.071 -1.4365 -1.0116  1.0268
 6622TIP3    H241282   0.139   1.530  15.979  1.3565 -0.2812 -2.8243
 6623TIP3   OH241283   3.572   5.359  16.461  0.2871 -0.5036 -0.0339
 6623TIP3    H141284   3.654   5.400  16.432  0.9995 -1.4808  0.5874
 6623TIP3    H241285   3.515   5.433  16.483  1.5702  0.1780  1.0918
 6624TIP3   OH241286   1.801   5.096  13.312  0.2424  0.0441  0.3429
 6624TIP3    H141287   1.713   5.058  13.309  0.1672  0.2934 -0.5809
 6624TIP3    H241288   1.846   5.058  13.237  0.8867  0.0189  0.7354
 6625TIP3   OH241289   2.218   4.988  14.706  0.1034  0.3260 -0.0977
 6625TIP3    H141290   2.281   4.916  14.709 -0.1850  0.1223  3.5572
 6625TIP3    H241291   2.271   5.066  14.722 -0.3297  0.2909  1.6281
 6626TIP3   OH241292   5.682   5.109   0.146  0.0293 -0.1298  0.0001
 6626TIP3    H141293   5.608   5.069   0.190 -0.0013 -0.8357 -0.6868
 6626TIP3    H241294   5.670   5.088   0.054  1.6313 -1.1674 -0.0002
 6627TIP3   OH241295   1.734   6.576   2.412 -0.2105 -0.2325  0.1804
 6627TIP3    H141296   1.732   6.497   2.358 -1.5228  1.2331 -1.9977
 6627TIP3    H241297   1.642   6.595   2.431  0.0493  1.0786  0.2080
 6628TIP3   OH241298   2.118   0.364   1.642  0.6597  0.3562  0.4362
 6628TIP3    H141299   2.134   0.282   1.597  0.4606 -0.0941  1.1744
 6628TIP3    H241300   2.077   0.339   1.725  0.1922  1.2229  0.4798
 6629TIP3   OH241301   6.664   1.863  16.032 -0.3169 -0.1896 -0.9274
 6629TIP3    H141302   6.636   1.933  16.092  0.0493 -0.6557 -0.2098
 6629TIP3    H241303   6.583   1.826  15.999 -0.5215  0.1122 -0.7698
 6630TIP3   OH241304   0.374   6.749  16.146 -0.6734  0.5284 -0.1439
 6630TIP3    H141305   0.431   6.713  16.078 -1.9306 -1.2803 -0.2688
 6630TIP3    H241306   0.395   6.843  16.147  1.5610  0.0820 -0.8831
 6631TIP3   OH241307   2.821   3.452   1.052 -0.0937 -0.3768  0.4395
 6631TIP3    H141308   2.896   3.403   1.085  0.6807  0.2327 -0.3705
 6631TIP3    H241309   2.844   3.474   0.962 -1.9613 -1.5889 -0.3589
 6632TIP3   OH241310   3.830   2.298   1.410  0.3919 -0.0423 -0.0909
 6632TIP3    H141311   3.866   2.272   1.325 -1.2033  0.8420 -1.0558
 6632TIP3    H241312   3.894   2.265   1.473  0.8388 -2.0848 -1.5285
 6633TIP3   OH241313   0.132   2.917  13.190  0.3536  0.0247  0.2570
 6633TIP3    H141314   0.094   3.000  13.219  0.0576 -0.1453  0.3595
 6633TIP3    H241315   0.207   2.942  13.137  1.1402  0.3305  1.4891
 6634TIP3   OH241316   2.158   1.357  16.376 -0.2770  0.0148 -1.5694
 6634TIP3    H141317   2.243   1.359  16.332 -0.3022  1.5340 -1.5619
 6634TIP3    H241318   2.094   1.369  16.306 -0.4345 -0.0909 -1.4458
 6635TIP3   OH241319   2.511   6.211   2.037  0.3828 -0.4374  0.3010
 6635TIP3    H141320   2.555   6.285   2.079 -1.6919  0.8215  0.3061
 6635TIP3    H241321   2.525   6.225   1.943 -1.1147  0.6849  0.2365
 6636TIP3   OH241322   1.708   5.885   4.267  0.0309 -0.1257  0.3615
 6636TIP3    H141323   1.777   5.898   4.332 -1.1759 -0.8544  1.8066
 6636TIP3    H241324   1.626   5.898   4.315 -0.8925 -1.1381 -0.8940
 6637TIP3   OH241325   3.331   1.389  11.940 -0.2589 -0.0358 -0.3827
 6637TIP3    H141326   3.255   1.391  11.998  0.8153 -2.5297  1.1665
 6637TIP3    H241327   3.402   1.427  11.993  0.0782  0.3469 -1.0988
 6638TIP3   OH241328   5.408   0.776  11.098 -0.1544 -0.1518 -0.2734
 6638TIP3    H141329   5.346   0.772  11.025 -2.1606 -0.1538  1.3824
 6638TIP3    H241330   5.377   0.710  11.160  0.9444  0.5082  1.0138
 6639TIP3   OH241331   2.112   5.312   3.881  0.0795 -0.4432  0.3624
 6639TIP3    H141332   2.042   5.300   3.945 -1.9182  1.4616 -1.3703
 6639TIP3    H241333   2.188   5.268   3.920 -0.8557  1.2134  4.3362
 6640TIP3   OH241334   5.890   0.291  15.849 -0.1122 -0.2090 -0.7280
 6640TIP3    H141335   5.847   0.345  15.915  1.9410  1.2315 -0.5295
 6640TIP3    H241336   5.868   0.333  15.766  1.9942  1.3834 -0.5356
 6641TIP3   OH241337   5.459   3.811   3.812  0.1172 -0.5510 -0.0175
 6641TIP3    H141338   5.389   3.872   3.834  0.8849  0.4295 -0.2927
 6641TIP3    H241339   5.442   3.787   3.721  1.3302  1.3214 -0.7668
 6642TIP3   OH241340   5.097   3.575  13.951 -0.3142  0.8891  0.3630
 6642TIP3    H141341   5.079   3.508  14.017  1.8092 -0.1828 -0.1055
 6642TIP3    H241342   5.028   3.562  13.885 -1.0014  0.3878  1.1668
 6643TIP3   OH241343   1.248   1.169  13.005 -0.4554 -0.8165 -0.3631
 6643TIP3    H141344   1.155   1.162  12.985 -0.4787 -1.5593 -0.0356
 6643TIP3    H241345   1.268   1.262  12.999 -1.4636 -0.5247  0.6323
 6644TIP3   OH241346   0.699   5.295  14.928  0.3221  0.6791 -0.1691
 6644TIP3    H141347   0.627   5.347  14.893  0.6538  1.4736  0.3157
 6644TIP3    H241348   0.687   5.297  15.022 -0.3338 -1.1276 -0.1854
 6645TIP3   OH241349   5.508   4.117  13.659 -0.4285  0.1644  0.0973
 6645TIP3    H141350   5.532   4.094  13.569 -0.0215 -1.2388  0.5582
 6645TIP3    H241351   5.438   4.055  13.682  0.3723 -0.3527  1.1955
 6646TIP3   OH241352   0.147   6.482  15.669  0.2235  0.3802  0.0516
 6646TIP3    H141353   0.061   6.456  15.703  0.2073  0.6158  0.1953
 6646TIP3    H241354   0.128   6.557  15.612  0.4520  1.0924  0.9010
 6647TIP3   OH241355   1.020   1.793  12.906  0.5022 -0.2197  0.0546
 6647TIP3    H141356   0.983   1.732  12.970 -0.6090  0.3043 -0.0739
 6647TIP3    H241357   1.114   1.795  12.926  0.3806 -1.1294  0.7547
 6648TIP3   OH241358   6.211   6.046  11.057  0.2699  0.1235  0.0453
 6648TIP3    H141359   6.244   6.086  10.977 -0.3599  0.5575 -0.0007
 6648TIP3    H241360   6.269   5.972  11.073 -0.2373 -0.5830 -1.3659
 6649TIP3   OH241361   5.581   1.035  10.865  0.2392 -1.2636 -0.6405
 6649TIP3    H141362   5.663   0.986  10.852 -1.2097 -3.0189 -3.7016
 6649TIP3    H241363   5.598   1.120  10.825  0.9440 -1.1812 -0.1912
 6650TIP3   OH241364   6.512   3.157  16.966  1.0169  0.2810 -0.5941
 6650TIP3    H141365   6.520   3.242  17.010  1.5117  0.1918 -0.5048
 6650TIP3    H241366   6.594   3.112  16.986  0.8579 -0.1241 -0.8438
 6651TIP3   OH241367   1.390   4.259  17.095 -0.1513 -0.2520  0.6165
 6651TIP3    H141368   1.451   4.221  17.158  0.3070 -0.9060 -0.2182
 6651TIP3    H241369   1.313   4.201  17.098 -0.9845  0.8825  2.0759
 6652TIP3   OH241370   4.568   4.810  12.719 -0.2391  0.2353  0.3684
 6652TIP3    H141371   4.614   4.848  12.794 -1.2478 -0.0564  1.1462
 6652TIP3    H241372   4.529   4.885  12.674 -1.1789  0.2561  1.1931
 6653TIP3   OH241373   1.517   3.923   4.002 -0.4147 -0.0504 -0.1693
 6653TIP3    H141374   1.598   3.890   4.040  0.5447  0.3130 -1.8525
 6653TIP3    H241375   1.509   4.012   4.035  1.2094  0.7925 -1.9684
 6654TIP3   OH241376   5.585   2.159   2.732 -0.2663  0.1782 -0.3480
 6654TIP3    H141377   5.586   2.178   2.826 -3.1131 -1.7613  0.1495
 6654TIP3    H241378   5.675   2.173   2.704  1.1443 -1.2448  3.1163
 6655TIP3   OH241379   1.186   4.464  12.708 -0.3146  0.4488 -0.5792
 6655TIP3    H141380   1.156   4.382  12.668  0.0815 -1.1645  2.3010
 6655TIP3    H241381   1.280   4.466  12.689 -0.6279  1.1342 -2.1324
 6656TIP3   OH241382   4.073   6.547   3.506  0.3444 -0.4495  0.0646
 6656TIP3    H141383   4.101   6.494   3.432 -1.1759 -1.3441  0.1118
 6656TIP3    H241384   4.079   6.637   3.475  2.8274 -0.6119 -0.0586
 6657TIP3   OH241385   6.434   5.305  12.552  0.2761 -0.3355 -0.6608
 6657TIP3    H141386   6.423   5.210  12.557 -0.7504 -0.2493 -1.1203
 6657TIP3    H241387   6.467   5.331  12.638  0.4452 -1.0897 -0.4988
 6658TIP3   OH241388   2.761   0.306  14.181 -0.0094 -0.0919  0.3138
 6658TIP3    H141389   2.833   0.242  14.178 -0.6839 -0.8114 -1.4610
 6658TIP3    H241390   2.802   0.389  14.155  0.0549 -0.6353 -1.3478
 6659TIP3   OH241391   5.666   5.948   0.167 -0.2306 -0.0348 -0.2416
 6659TIP3    H141392   5.741   5.888   0.155 -0.2871 -0.1700  0.0728
 6659TIP3    H241393   5.621   5.914   0.245  0.9407  1.6659  1.2125
 6660TIP3   OH241394   6.117   6.046   0.598 -0.3185  0.1891  0.0779
 6660TIP3    H141395   6.211   6.031   0.611 -0.0263  1.2710 -0.7291
 6660TIP3    H241396   6.088   5.974   0.543  0.0931  0.0042  0.1032
 6661TIP3   OH241397   5.864   2.798  14.099 -0.3850 -0.0893 -0.2496
 6661TIP3    H141398   5.927   2.842  14.041 -1.4418  0.6224 -0.8785
 6661TIP3    H241399   5.918   2.761  14.169  1.0823 -2.0289 -2.3151
 6662TIP3   OH241400   6.455   3.047   3.469  0.1620  0.3930 -1.3240
 6662TIP3    H141401   6.531   3.096   3.501 -0.8771 -0.6418  2.9776
 6662TIP3    H241402   6.380   3.103   3.487 -0.6651 -1.1486  0.1332
 6663TIP3   OH241403   2.265   5.409   3.227  0.8214  0.1971 -0.0147
 6663TIP3    H141404   2.179   5.393   3.188  0.6595  0.8903  0.0532
 6663TIP3    H241405   2.324   5.349   3.180  0.7144  1.3506 -1.6877
 6664TIP3   OH241406   6.556   4.915   1.407 -0.4378 -0.0323  0.3427
 6664TIP3    H141407   6.506   4.885   1.331 -0.5450  1.0085 -0.0128
 6664TIP3    H241408   6.639   4.868   1.402 -1.1310 -1.3169  0.5892
 6665TIP3   OH241409   0.260   2.505  11.759 -0.2909 -0.2961  0.1748
 6665TIP3    H141410   0.318   2.443  11.803 -0.4815 -1.0992 -0.6821
 6665TIP3    H241411   0.257   2.474  11.669 -0.1110  1.1852 -0.3374
 6666TIP3   OH241412   4.182   5.539  14.487 -0.1064  0.4307 -0.4050
 6666TIP3    H141413   4.135   5.456  14.476  0.4615  0.2349 -1.4379
 6666TIP3    H241414   4.121   5.606  14.458 -0.0687  0.2545 -0.8871
 6667TIP3   OH241415   0.491   2.696   0.957 -0.0366  0.0668 -0.1510
 6667TIP3    H141416   0.465   2.749   0.881 -1.4859 -2.2429 -1.3182
 6667TIP3    H241417   0.508   2.609   0.920 -0.5191 -1.0216  2.1380
 6668TIP3   OH241418   5.780   4.372   3.055 -0.0500 -0.1630 -0.5412
 6668TIP3    H141419   5.723   4.449   3.057  0.2716  0.0786 -0.6213
 6668TIP3    H241420   5.858   4.402   3.010 -0.2772 -0.7747 -1.3622
 6669TIP3   OH241421   4.927   2.762   3.971 -0.0461 -0.0891  0.1743
 6669TIP3    H141422   4.898   2.723   3.889 -1.2375 -0.4797  0.7654
 6669TIP3    H241423   4.919   2.692   4.036 -1.4524  0.8733  1.0842
 6670TIP3   OH241424   6.714   0.981  13.280 -0.3492  0.1017 -0.2021
 6670TIP3    H141425   6.710   0.917  13.209  1.8878 -0.0519 -0.2178
 6670TIP3    H241426   6.650   0.949  13.344 -0.2618 -1.3974 -0.8345
 6671TIP3   OH241427   1.511   0.845  11.586 -0.1675  0.0458  0.5588
 6671TIP3    H141428   1.574   0.861  11.516  0.3179  0.3594  1.0711
 6671TIP3    H241429   1.440   0.907  11.569  0.5031  0.9533  1.0339
 6672TIP3   OH241430   1.991   2.423   0.578  0.6353 -0.2719 -0.2693
 6672TIP3    H141431   2.004   2.512   0.545  0.1337 -0.0294  0.1835
 6672TIP3    H241432   1.986   2.434   0.673 -2.6483 -0.3570 -0.3688
 6673TIP3   OH241433   3.351   3.334  14.729  0.0593  0.8025  0.1129
 6673TIP3    H141434   3.366   3.311  14.821  0.5634 -0.3689 -0.2532
 6673TIP3    H241435   3.427   3.300  14.683  0.2721  2.2339 -0.6231
 6674TIP3   OH241436   2.858   5.161  11.051 -0.8366  0.0431  0.3500
 6674TIP3    H141437   2.865   5.084  10.995  0.2238  0.6698 -0.4193
 6674TIP3    H241438   2.792   5.215  11.008 -0.2853  0.3600 -0.1087
 6675TIP3   OH241439   1.032   5.813  14.848  0.0753  0.1711  0.0860
 6675TIP3    H141440   1.052   5.859  14.929 -1.3788 -0.4627  0.8397
 6675TIP3    H241441   1.024   5.721  14.875  1.0252 -0.2475 -1.0387
 6676TIP3   OH241442   2.860   0.718  12.037 -0.3780  0.6264 -0.0677
 6676TIP3    H141443   2.918   0.768  12.094 -0.0506 -0.3290  0.4534
 6676TIP3    H241444   2.779   0.769  12.033 -0.1639  1.0239  0.7177
 6677TIP3   OH241445   5.945   3.045  16.068  0.0964 -0.0339 -0.7603
 6677TIP3    H141446   6.015   3.027  16.005  0.6122  1.9069 -0.7686
 6677TIP3    H241447   5.952   2.974  16.132  0.1077 -1.5418 -2.4152
 6678TIP3   OH241448   5.499   1.965  15.326  0.1945  0.3336  0.5155
 6678TIP3    H141449   5.518   2.041  15.381 -1.5043  1.0066  0.2027
 6678TIP3    H241450   5.416   1.987  15.282 -0.3182 -1.6920  0.4187
 6679TIP3   OH241451   6.667   1.628  11.518  0.5527  0.1070 -0.8549
 6679TIP3    H141452   6.651   1.630  11.424  0.2871  0.0642 -0.8095
 6679TIP3    H241453   6.684   1.719  11.542 -0.6800  0.3137 -0.7162
 6680TIP3   OH241454   1.156   1.480   5.541 -0.5051  0.7488 -0.0258
 6680TIP3    H141455   1.147   1.484   5.636 -0.5040  0.4935 -0.0163
 6680TIP3    H241456   1.250   1.470   5.526 -0.6550 -0.7503 -0.0082
 6681TIP3   OH241457   3.439   2.005  13.440  0.9909  0.1818  0.4998
 6681TIP3    H141458   3.474   1.957  13.516  2.4860  1.5404  0.6944
 6681TIP3    H241459   3.451   2.097  13.462 -1.7307  0.6956  0.0631
 6682TIP3   OH241460   4.072   3.669   5.379  0.5682 -0.1780 -0.2315
 6682TIP3    H141461   4.082   3.705   5.468  0.3124  1.5377 -0.8677
 6682TIP3    H241462   4.092   3.576   5.388  0.4909 -0.0338  1.6390
 6683TIP3   OH241463   1.030   2.491   6.794  0.3253  0.1479  0.8295
 6683TIP3    H141464   1.083   2.569   6.778  1.8021 -0.8088  0.9734
 6683TIP3    H241465   0.945   2.510   6.753 -0.0427  2.6706  2.6582
 6684TIP3   OH241466   6.532   3.364  17.155  0.0612  0.4560 -0.3846
 6684TIP3    H141467   6.553   3.449  17.116  1.5558 -0.0420 -0.6940
 6684TIP3    H241468   6.607   3.344  17.211 -0.3378 -0.6122 -0.2239
 6685TIP3   OH241469   1.987   2.610   5.950  0.4526 -0.9318 -0.5807
 6685TIP3    H141470   1.914   2.668   5.973  0.2348 -1.1184 -0.7914
 6685TIP3    H241471   2.016   2.573   6.034  1.8602  0.9671 -0.2177
 6686TIP3   OH241472   3.790   6.359  12.024 -0.0545 -0.8362  0.5612
 6686TIP3    H141473   3.770   6.296  11.955 -1.6883 -1.0773  1.2158
 6686TIP3    H241474   3.723   6.342  12.091 -1.3880  2.4660  0.1644
 6687TIP3   OH241475   3.838   1.624   0.404  0.0037  0.1598  0.0691
 6687TIP3    H141476   3.753   1.587   0.381 -0.2880  1.7532 -1.5566
 6687TIP3    H241477   3.821   1.681   0.479  0.0441 -1.2331  1.1383
 6688TIP3   OH241478   6.247   0.951   1.106  0.2192  0.2377 -0.3052
 6688TIP3    H141479   6.265   0.940   1.199 -1.9397  0.2266  0.1397
 6688TIP3    H241480   6.252   0.862   1.070  0.0926  0.1044 -0.0006
 6689TIP3   OH241481   4.731   1.199   4.026 -0.0397 -0.2700  0.5242
 6689TIP3    H141482   4.747   1.115   3.982 -2.2929  1.0913 -3.0953
 6689TIP3    H241483   4.667   1.178   4.094 -0.4669 -1.5206 -0.2385
 6690TIP3   OH241484   0.393   0.980   4.804  0.2250  0.4520  0.8209
 6690TIP3    H141485   0.390   1.051   4.868 -1.5350 -0.1807  1.4504
 6690TIP3    H241486   0.304   0.945   4.801  0.6318 -0.5135 -0.8689
 6691TIP3   OH241487   4.937   4.951  13.925  0.2483 -0.1526  0.1098
 6691TIP3    H141488   5.010   4.944  13.986  0.6508 -0.7826 -0.4478
 6691TIP3    H241489   4.890   5.030  13.954  1.2354  0.3506  0.3630
 6692TIP3   OH241490   4.412   5.549   0.774  0.4832 -0.5575  0.1464
 6692TIP3    H141491   4.414   5.550   0.678 -1.5463 -0.7213  0.0678
 6692TIP3    H241492   4.383   5.637   0.797 -1.9192 -1.3971  0.4704
 6693TIP3   OH241493   2.985   0.163  16.582 -0.2998  0.2125  0.5867
 6693TIP3    H141494   3.079   0.158  16.569 -0.5469  1.2029 -1.9039
 6693TIP3    H241495   2.974   0.219  16.658  1.1004  1.2049  0.0794
 6694TIP3   OH241496   1.683   0.948  15.277  0.6783  0.2333  0.6143
 6694TIP3    H141497   1.648   1.031  15.310 -0.8872  0.0020 -0.3874
 6694TIP3    H241498   1.721   0.970  15.192  0.0332 -0.1143  0.2331
 6695TIP3   OH241499   3.897   4.815  16.930 -0.0133 -0.0798 -0.0389
 6695TIP3    H141500   3.950   4.888  16.961  0.3821 -0.4550  0.1626
 6695TIP3    H241501   3.825   4.809  16.993  0.2632 -0.2269  0.2618
 6696TIP3   OH241502   1.431   3.923   1.646  0.4939  0.0246 -0.8422
 6696TIP3    H141503   1.417   3.935   1.740 -0.3815 -3.2030 -0.5139
 6696TIP3    H241504   1.441   3.829   1.634  1.5821  0.4517 -3.8788
 6697TIP3   OH241505   6.409   5.688  14.867 -0.3068  0.0971  0.5837
 6697TIP3    H141506   6.481   5.627  14.854  0.4459  0.9853  0.5874
 6697TIP3    H241507   6.417   5.750  14.795 -2.5494 -1.2320 -0.8701
 6698TIP3   OH241508   6.377   5.979   4.181  0.1928 -0.9011  0.6639
 6698TIP3    H141509   6.327   5.991   4.101  1.5823 -1.5287 -0.3093
 6698TIP3    H241510   6.348   6.050   4.239  1.4954  1.5140 -1.5523
 6699TIP3   OH241511   4.425   5.470  11.868 -0.4663  0.6022  0.3136
 6699TIP3    H141512   4.430   5.487  11.962 -0.1219 -0.3621  0.4789
 6699TIP3    H241513   4.481   5.536  11.828  0.6026  0.0760  0.9155
 6700TIP3   OH241514   4.367   0.540   3.973 -0.2474 -0.1748  0.3115
 6700TIP3    H141515   4.452   0.559   4.013  0.3690  0.5968 -1.2949
 6700TIP3    H241516   4.311   0.613   3.999 -0.5116 -0.8389  1.6225
 6701TIP3   OH241517   6.073   0.413   2.921 -0.3757 -0.0200 -0.1143
 6701TIP3    H141518   6.015   0.399   2.847  0.9038 -1.5879 -0.8518
 6701TIP3    H241519   6.159   0.428   2.881  0.4034 -1.2618  1.0414
 6702TIP3   OH241520   3.549   5.005  12.960 -0.8042  0.0256  0.1902
 6702TIP3    H141521   3.584   4.924  12.923  0.1005  0.7784 -0.6355
 6702TIP3    H241522   3.483   5.033  12.896 -0.1539  0.6464 -0.2147
 6703TIP3   OH241523   0.916   1.209  15.713 -0.1252  0.0959  0.1420
 6703TIP3    H141524   0.913   1.145  15.784  0.2962 -0.2970 -0.1897
 6703TIP3    H241525   0.907   1.294  15.757 -0.3675 -0.1707  0.6161
 6704TIP3   OH241526   3.296   2.872  11.538  0.2129  0.0194  0.0563
 6704TIP3    H141527   3.257   2.794  11.578  0.8587 -0.2393  0.1867
 6704TIP3    H241528   3.271   2.866  11.446 -1.6009  0.8146  0.4719
 6705TIP3   OH241529   4.232   4.743  16.848 -0.1885 -0.0611  0.4578
 6705TIP3    H141530   4.282   4.724  16.927  0.7316 -0.2388 -0.1606
 6705TIP3    H241531   4.297   4.776  16.786 -0.6347 -1.3307 -0.7162
 6706TIP3   OH241532   0.083   3.962  13.210 -0.3718 -0.0021 -0.1922
 6706TIP3    H141533   0.093   4.037  13.269  1.5754 -0.2399 -0.1953
 6706TIP3    H241534   0.003   3.981  13.161 -0.1496  1.8508  0.1172
 6707TIP3   OH241535   1.509   2.631   1.966 -0.5532 -1.0843  0.2102
 6707TIP3    H141536   1.569   2.614   2.038 -1.2329  0.0090  1.0580
 6707TIP3    H241537   1.565   2.664   1.895 -0.0235 -1.0467  0.6428
 6708TIP3   OH241538   6.635   0.905  11.958  0.1315 -0.4084  0.0852
 6708TIP3    H141539   6.709   0.901  11.898 -0.4721 -2.1278 -0.6101
 6708TIP3    H241540   6.643   0.825  12.011 -1.7476 -1.1623 -0.7043
 6709TIP3   OH241541   2.426   2.456   0.660 -0.6755 -0.0820  0.1622
 6709TIP3    H141542   2.360   2.473   0.728  0.6464 -0.3715  1.5267
 6709TIP3    H241543   2.494   2.521   0.676 -0.3345 -0.1789 -0.8731
 6710TIP3   OH241544   3.288   6.324   3.539  0.1899  0.1381  0.1718
 6710TIP3    H141545   3.340   6.289   3.611 -1.6462 -1.1891  0.8843
 6710TIP3    H241546   3.277   6.417   3.560  0.5179 -0.0264  1.0742
 6711TIP3   OH241547   3.841   0.952  13.412  0.2977  0.2107 -0.5227
 6711TIP3    H141548   3.874   1.009  13.342  0.1627 -1.2848 -1.8359
 6711TIP3    H241549   3.806   0.876  13.366 -0.2600 -0.5677  1.1625
 6712TIP3   OH241550   5.184   0.800   2.663 -0.7341 -0.5709 -0.9468
 6712TIP3    H141551   5.219   0.810   2.574 -0.1951  1.6165 -0.5066
 6712TIP3    H241552   5.096   0.837   2.659 -0.8343 -0.7772 -0.6562
 6713TIP3   OH241553   5.810   1.721  12.787 -0.5165  0.1014 -1.0678
 6713TIP3    H141554   5.799   1.808  12.826 -1.7880  0.5926 -2.4643
 6713TIP3    H241555   5.812   1.738  12.692  0.2235 -1.2916 -1.3037
 6714TIP3   OH241556   3.836   5.248  11.882 -0.6305  0.1480  0.0923
 6714TIP3    H141557   3.778   5.317  11.851 -1.6078  0.3530  2.3154
 6714TIP3    H241558   3.872   5.281  11.965 -0.3220 -1.5596  0.6752
 6715TIP3   OH241559   1.816   5.265   4.869 -0.3439  0.2431 -0.4833
 6715TIP3    H141560   1.721   5.277   4.868 -0.3917 -0.1283 -0.5544
 6715TIP3    H241561   1.831   5.184   4.819 -0.0240  0.0894 -0.1462
 6716TIP3   OH241562   1.321   5.306   0.879  0.1754  0.0881 -0.4324
 6716TIP3    H141563   1.373   5.247   0.934 -0.1551  0.5694  0.3996
 6716TIP3    H241564   1.386   5.348   0.822  0.3105 -1.7571 -1.6893
 6717TIP3   OH241565   0.315   3.852  16.095 -0.5036 -0.4839  0.4390
 6717TIP3    H141566   0.379   3.911  16.056 -0.0743  1.3590  3.7220
 6717TIP3    H241567   0.367   3.795  16.152 -1.1820 -2.6771 -1.0716
 6718TIP3   OH241568   1.573   1.527  16.662 -0.0647  0.4542  0.4879
 6718TIP3    H141569   1.534   1.520  16.575 -0.6639  0.7339  0.7320
 6718TIP3    H241570   1.509   1.578  16.712  0.4532  0.6119  0.9843
 6719TIP3   OH241571   4.449   4.710   0.927 -0.3565  0.4584  0.0901
 6719TIP3    H141572   4.399   4.777   0.975  2.0935  0.3193  2.9554
 6719TIP3    H241573   4.507   4.760   0.870  1.8647  0.8809  2.6287
 6720TIP3   OH241574   2.898   3.217  14.365  0.5276 -0.2967 -0.2609
 6720TIP3    H141575   2.984   3.199  14.402  0.0152 -2.8001 -0.2084
 6720TIP3    H241576   2.837   3.193  14.435 -0.2959 -1.2417 -1.2914
 6721TIP3   OH241577   4.172   1.646  13.331 -0.5359 -0.2271  0.0464
 6721TIP3    H141578   4.177   1.567  13.386 -0.9180 -0.2299  0.0791
 6721TIP3    H241579   4.259   1.686  13.338 -0.3546 -0.6193  0.0687
 6722TIP3   OH241580   5.703   5.588   3.896 -0.6492 -0.1491 -0.1647
 6722TIP3    H141581   5.647   5.529   3.946 -0.8316 -1.1293 -1.4669
 6722TIP3    H241582   5.659   5.673   3.899  0.3148  0.2859  2.8853
 6723TIP3   OH241583   3.496   5.140  13.767 -0.2749 -0.4209 -0.2635
 6723TIP3    H141584   3.487   5.106  13.856 -1.5020  2.1091  0.6290
 6723TIP3    H241585   3.424   5.100  13.718 -1.5314  0.5739  0.7091
 6724TIP3   OH241586   5.522   6.276   6.311 -0.3884 -0.5502  0.0182
 6724TIP3    H141587   5.614   6.287   6.285 -0.9638  2.0706 -1.0980
 6724TIP3    H241588   5.518   6.187   6.347  2.3644 -1.0708 -0.7973
 6725TIP3   OH241589   1.662   2.917   3.839 -0.2518  0.3974 -0.6306
 6725TIP3    H141590   1.592   2.856   3.860 -0.0378  0.4065  0.1238
 6725TIP3    H241591   1.695   2.947   3.924  0.8687  0.1574 -0.9627
 6726TIP3   OH241592   0.330   2.868  15.830  0.6070 -0.2322  0.2565
 6726TIP3    H141593   0.364   2.885  15.918 -1.5780 -1.1510  1.3129
 6726TIP3    H241594   0.328   2.954  15.788 -0.0018  0.4960  1.7426
 6727TIP3   OH241595   4.843   0.801  11.282 -0.7675  0.3207 -0.0099
 6727TIP3    H141596   4.921   0.809  11.227 -1.0913  1.1894 -0.3448
 6727TIP3    H241597   4.869   0.839  11.366 -0.6548  0.1111  0.0490
 6728TIP3   OH241598   5.946   0.839  15.834 -0.2429 -0.1868 -0.7030
 6728TIP3    H141599   6.005   0.781  15.787 -2.7283 -2.2963 -1.3808
 6728TIP3    H241600   5.902   0.890  15.765 -0.0889  0.5065 -0.2988
 6729TIP3   OH241601   2.143   1.077   0.069  0.6571 -0.3749  0.0830
 6729TIP3    H141602   2.049   1.061   0.083  1.0311 -1.5404  1.4023
 6729TIP3    H241603   2.174   0.999   0.024  1.1876 -0.4537  0.5726
 6730TIP3   OH241604   5.324   1.498   4.573 -0.5514 -0.2930  0.4711
 6730TIP3    H141605   5.365   1.413   4.594 -1.9392 -0.3418  3.1645
 6730TIP3    H241606   5.230   1.480   4.570 -1.0276  1.5478  3.2158
 6731TIP3   OH241607   1.498   6.324   5.886 -0.1727  0.0465 -0.6100
 6731TIP3    H141608   1.454   6.406   5.864  1.3953  0.7040 -1.3999
 6731TIP3    H241609   1.591   6.346   5.886  0.2708 -1.7218 -0.8125
 6732TIP3   OH241610   2.875   6.502  14.533  0.5309  0.2167 -0.2659
 6732TIP3    H141611   2.967   6.511  14.509  0.6118 -2.4443 -1.2031
 6732TIP3    H241612   2.834   6.462  14.456 -1.1423  0.2239  0.5889
 6733TIP3   OH241613   2.832   2.565  14.100 -0.2722 -1.0230 -0.3327
 6733TIP3    H141614   2.842   2.511  14.179  2.7345 -0.2154 -0.1143
 6733TIP3    H241615   2.899   2.532  14.040  0.5260  1.4253 -0.8091
 6734TIP3   OH241616   0.486   4.608   4.884  0.0156 -0.1334  0.1571
 6734TIP3    H141617   0.561   4.667   4.878 -0.4126  0.7115  2.7155
 6734TIP3    H241618   0.411   4.662   4.858 -0.2765  0.2475  1.7749
 6735TIP3   OH241619   3.150   3.182   1.523 -0.4051 -0.4738 -0.2326
 6735TIP3    H141620   3.070   3.165   1.473 -1.1909  3.2020 -0.3636
 6735TIP3    H241621   3.145   3.274   1.547  3.2172 -0.4500  0.8405
 6736TIP3   OH241622   4.239   3.888   1.959 -0.4385 -0.0222 -0.0170
 6736TIP3    H141623   4.159   3.896   2.010 -0.0783 -0.5867  0.6563
 6736TIP3    H241624   4.308   3.873   2.025  0.0795 -0.4292 -0.6409
 6737TIP3   OH241625   3.138   0.202   0.329 -0.0834  0.1051 -0.5627
 6737TIP3    H141626   3.227   0.178   0.304  0.2120 -0.3681  0.9149
 6737TIP3    H241627   3.146   0.236   0.418 -1.6344 -1.6407  0.2772
 6738TIP3   OH241628   2.902   2.267  13.202 -0.4756  0.4137 -0.2530
 6738TIP3    H141629   2.984   2.281  13.154 -0.8192  1.8110 -0.4401
 6738TIP3    H241630   2.884   2.173  13.192  0.7176  0.2429 -0.8225
 6739TIP3   OH241631   2.410   0.389   3.485  0.1354 -0.5748  0.3620
 6739TIP3    H141632   2.414   0.384   3.581  1.8167 -2.5709  0.2256
 6739TIP3    H241633   2.324   0.354   3.463  0.8840 -2.9229  1.0147
 6740TIP3   OH241634   4.853   3.838   1.811  0.2773  0.4506 -0.0576
 6740TIP3    H141635   4.797   3.763   1.831  0.4671  0.4949  0.6487
 6740TIP3    H241636   4.792   3.910   1.793  0.0998  1.0661  2.8604
 6741TIP3   OH241637   1.637   6.713   3.630  0.3873  0.0519  0.0019
 6741TIP3    H141638   1.593   6.748   3.553 -0.9600  0.2881  0.8613
 6741TIP3    H241639   1.716   6.767   3.639 -0.0510  0.7879 -0.5161
 6742TIP3   OH241640   2.706   4.368   0.319 -0.3915 -0.2106  0.2910
 6742TIP3    H141641   2.647   4.439   0.293  0.6826  1.2525  1.7920
 6742TIP3    H241642   2.786   4.383   0.267 -1.4459 -2.4688 -2.1068
 6743TIP3   OH241643   0.428   4.581   6.038 -0.0767  0.4810 -0.0215
 6743TIP3    H141644   0.381   4.502   6.066  0.9376  0.0371  0.4548
 6743TIP3    H241645   0.479   4.552   5.962 -1.1078  1.1359 -0.9756
 6744TIP3   OH241646   4.305   1.316   5.827  0.0325 -0.2817 -0.4573
 6744TIP3    H141647   4.291   1.225   5.854  0.4953 -0.8977 -2.2342
 6744TIP3    H241648   4.377   1.347   5.882  1.0712 -1.5641 -1.0875
 6745TIP3   OH241649   5.717   3.832   2.068 -0.3248  0.0740  0.0513
 6745TIP3    H141650   5.641   3.882   2.098  1.0029  2.4051 -0.3184
 6745TIP3    H241651   5.738   3.870   1.983  0.2469 -1.6933 -0.6117
 6746TIP3   OH241652   5.144   6.595  16.094  0.0196  0.2087 -0.3711
 6746TIP3    H141653   5.091   6.604  16.173 -0.1539 -1.0085 -0.3278
 6746TIP3    H241654   5.106   6.657  16.032 -1.4987 -0.6792 -0.3602
 6747TIP3   OH241655   5.392   2.413  13.993  0.2244 -0.5041  0.0685
 6747TIP3    H141656   5.366   2.449  14.077  0.7504  0.1257 -0.0247
 6747TIP3    H241657   5.482   2.382  14.006  0.9593  1.2017 -0.7033
 6748TIP3   OH241658   5.232   0.122  13.754 -0.2851  0.1432 -0.2776
 6748TIP3    H141659   5.139   0.117  13.730 -0.5572 -0.9311  0.9812
 6748TIP3    H241660   5.232   0.153  13.845  0.6125  0.5885 -0.4225
 6749TIP3   OH241661   2.207   6.236  14.333 -0.3213 -0.1381  0.3984
 6749TIP3    H141662   2.299   6.214  14.322 -0.6352 -0.8021 -1.0917
 6749TIP3    H241663   2.194   6.242  14.428  1.1005 -0.6814  0.6310
 6750TIP3   OH241664   6.293   5.685   2.731  0.2284 -0.1835 -0.3487
 6750TIP3    H141665   6.257   5.679   2.820 -1.3219 -1.0610 -1.0011
 6750TIP3    H241666   6.325   5.774   2.723 -0.3079  0.1212  0.8466
 6751TIP3   OH241667   1.111   4.739   4.101  0.1800  0.3697  0.2510
 6751TIP3    H141668   1.116   4.811   4.164  0.3906  0.2825  0.3354
 6751TIP3    H241669   1.017   4.729   4.084  0.2289  1.5198 -0.7557
 6752TIP3   OH241670   4.569   4.749  12.351 -0.0968 -0.3551 -0.3969
 6752TIP3    H141671   4.606   4.690  12.417  0.1328  2.5906  2.2302
 6752TIP3    H241672   4.636   4.752  12.282  1.6714 -0.1154  1.2846
 6753TIP3   OH241673   6.665   4.988   2.532  0.7503  0.4379 -0.0419
 6753TIP3    H141674   6.629   4.926   2.468 -0.0614 -0.7040  1.4929
 6753TIP3    H241675   6.638   5.074   2.499  0.1395 -0.1475 -1.1046
 6754TIP3   OH241676   3.755   6.499   4.038  0.5758  0.0865  0.3033
 6754TIP3    H141677   3.811   6.576   4.036  2.8517 -1.3955  2.7504
 6754TIP3    H241678   3.773   6.454   3.955  0.0756  1.5519 -0.6298
 6755TIP3   OH241679   3.599   0.684  13.482 -0.4374  0.0574  1.1580
 6755TIP3    H141680   3.513   0.724  13.482 -1.4128 -1.9866  1.3980
 6755TIP3    H241681   3.638   0.708  13.398 -3.0327 -2.7422 -0.9321
 6756TIP3   OH241682   6.567   5.800  15.621  0.1349 -0.0928 -0.6230
 6756TIP3    H141683   6.546   5.806  15.527  0.5937  1.0343 -0.6594
 6756TIP3    H241684   6.527   5.878  15.659  0.3158 -0.3321  0.0596
 6757TIP3   OH241685   5.925   6.548  13.562  0.2883 -0.2521  0.2657
 6757TIP3    H141686   5.976   6.577  13.486  0.1868  1.1855  0.7428
 6757TIP3    H241687   5.880   6.469  13.532 -0.3435  0.7297 -1.4157
 6758TIP3   OH241688   2.556   3.633   4.968 -0.2447 -0.0416  0.4415
 6758TIP3    H141689   2.607   3.661   4.891 -2.3570  0.5032 -0.8162
 6758TIP3    H241690   2.542   3.540   4.954  0.2827 -0.1661  0.7249
 6759TIP3   OH241691   4.272   5.408  14.755 -0.3200 -0.1259  0.1741
 6759TIP3    H141692   4.234   5.321  14.743  0.4924 -0.7142  1.7061
 6759TIP3    H241693   4.235   5.460  14.685  1.1970 -2.3426 -2.3513
 6760TIP3   OH241694   3.933   4.844  13.324  0.0632 -0.3997  0.4378
 6760TIP3    H141695   3.948   4.781  13.394 -0.2931  0.1355  1.0011
 6760TIP3    H241696   3.840   4.834  13.302  0.4792 -1.5457 -0.9302
 6761TIP3   OH241697   5.700   3.795   1.248  0.4683  0.2498  0.1700
 6761TIP3    H141698   5.746   3.713   1.265  0.5740 -0.0724 -1.6265
 6761TIP3    H241699   5.768   3.857   1.226  0.1700  0.1440 -1.0649
 6762TIP3   OH241700   1.235   2.826  15.178 -0.2859  0.3720 -0.0231
 6762TIP3    H141701   1.318   2.846  15.135 -0.2769 -0.9442 -0.6385
 6762TIP3    H241702   1.234   2.730  15.187 -1.6881  0.3736  0.0630
 6763TIP3   OH241703   1.476   3.415   4.694  0.2612  0.0274 -0.3494
 6763TIP3    H141704   1.396   3.462   4.719  0.1431 -0.2289 -0.2401
 6763TIP3    H241705   1.531   3.418   4.772  0.3169  0.1122 -0.3909
 6764TIP3   OH241706   5.863   2.123  15.636  0.4600 -0.4628  0.2755
 6764TIP3    H141707   5.810   2.202  15.650 -1.5482 -1.1665 -2.8553
 6764TIP3    H241708   5.947   2.157  15.603  0.9442  0.5160  2.4435
 6765TIP3   OH241709   3.241   2.953   1.350 -0.0422 -0.6326  0.2999
 6765TIP3    H141710   3.320   2.914   1.388 -0.0593 -1.0471 -0.0805
 6765TIP3    H241711   3.200   2.999   1.423  0.6241 -0.2952  0.4659
 6766TIP3   OH241712   1.593   4.231   4.706  0.4371  0.7598 -0.0118
 6766TIP3    H141713   1.668   4.176   4.729 -0.4227 -0.4080  0.0624
 6766TIP3    H241714   1.564   4.269   4.789  0.2913  0.3551  0.1261
 6767TIP3   OH241715   4.502   3.342  16.498  0.5403 -0.6731 -0.0086
 6767TIP3    H141716   4.536   3.258  16.468  1.2059 -0.4231  0.0375
 6767TIP3    H241717   4.577   3.384  16.540  0.5585  0.5265 -1.2414
 6768TIP3   OH241718   5.842   2.298  16.476 -0.0893  0.0880 -0.1347
 6768TIP3    H141719   5.754   2.325  16.501 -0.3261  0.7981 -1.6914
 6768TIP3    H241720   5.899   2.362  16.518 -0.3895  0.4490 -0.2789
 6769TIP3   OH241721   1.263   6.237   3.371 -0.0588  0.1401  0.4458
 6769TIP3    H141722   1.302   6.277   3.449 -0.7224  2.2647 -0.2837
 6769TIP3    H241723   1.188   6.292   3.350 -1.5973 -2.0625 -0.0412
 6770TIP3   OH241724   1.533   1.164   2.342 -0.9639 -0.3053 -0.3132
 6770TIP3    H141725   1.511   1.236   2.282  1.0379  0.7056  0.1103
 6770TIP3    H241726   1.469   1.096   2.322  0.7930 -0.8106 -5.0301
 6771TIP3   OH241727   0.185   1.394   6.093  0.1426 -0.4216 -0.0403
 6771TIP3    H141728   0.235   1.450   6.152 -0.5528  0.5115 -0.3312
 6771TIP3    H241729   0.250   1.337   6.053  0.9236  0.5269 -0.1309
 6772TIP3   OH241730   4.241   6.245  14.623 -0.2586 -0.8826  0.6018
 6772TIP3    H141731   4.287   6.307  14.565  0.0449  0.5750  2.3443
 6772TIP3    H241732   4.149   6.268  14.614 -0.2667 -1.0354  0.2742
 6773TIP3   OH241733   5.115   5.472  17.167  0.9877 -0.4625 -0.1433
 6773TIP3    H141734   5.141   5.546  17.220  0.9955 -0.3037 -0.3685
 6773TIP3    H241735   5.197   5.428  17.144  0.9067 -1.1547  0.8780
 6774TIP3   OH241736   6.451   6.632  16.079 -0.3787 -0.1974 -0.3381
 6774TIP3    H141737   6.385   6.565  16.094 -0.5918  0.3747  1.3998
 6774TIP3    H241738   6.402   6.709  16.051 -0.7255  0.8616  2.9426
 6775TIP3   OH241739   6.148   1.083   2.244 -0.1101  0.2685  0.5128
 6775TIP3    H141740   6.101   1.010   2.284 -1.3044  0.7549  0.0259
 6775TIP3    H241741   6.227   1.043   2.207 -0.4117 -0.6618  0.8624
 6776TIP3   OH241742   4.812   3.700  16.801 -0.7156  0.1486  0.0588
 6776TIP3    H141743   4.749   3.766  16.830  0.1071  1.0959 -0.2805
 6776TIP3    H241744   4.817   3.713  16.706 -0.1015  0.0002  0.0735
 6777TIP3   OH241745   4.203   1.491   1.643  0.2349  0.0417  0.0023
 6777TIP3    H141746   4.204   1.448   1.728 -1.8075 -0.3312 -0.1115
 6777TIP3    H241747   4.277   1.550   1.644  1.3831 -1.3858  1.2893
 6778TIP3   OH241748   1.990   3.246  16.781 -0.4266  0.7983  0.1933
 6778TIP3    H141749   1.937   3.237  16.860  2.0322  0.7731  1.9020
 6778TIP3    H241750   2.045   3.323  16.798  1.1941 -0.0959 -0.8544
 6779TIP3   OH241751   3.137   4.686  11.792  0.1865 -0.7059  0.4196
 6779TIP3    H141752   3.122   4.598  11.828  1.6632 -0.9828  0.3797
 6779TIP3    H241753   3.061   4.702  11.736 -0.3319 -1.7676  0.8145
 6780TIP3   OH241754   1.797   2.634   3.119 -0.9231  0.0201  0.2386
 6780TIP3    H141755   1.800   2.546   3.158  0.2167 -0.5357 -1.0587
 6780TIP3    H241756   1.709   2.640   3.080 -0.5977 -1.0044 -0.6846
 6781TIP3   OH241757   2.927   1.761   3.730  0.0787 -0.2400 -0.6707
 6781TIP3    H141758   2.850   1.818   3.731  0.1140 -0.1401 -2.2095
 6781TIP3    H241759   2.891   1.673   3.720  0.0630 -0.4302  0.9298
 6782TIP3   OH241760   4.671   1.253  15.713  0.2880 -0.1063  0.3543
 6782TIP3    H141761   4.642   1.319  15.777  0.4616  0.6097 -0.2862
 6782TIP3    H241762   4.609   1.181  15.722 -1.1550  1.0213 -0.3553
 6783TIP3   OH241763   3.409   0.508   5.226  0.3640 -0.3948 -0.1042
 6783TIP3    H141764   3.403   0.552   5.141 -0.9950 -0.7832 -0.2164
 6783TIP3    H241765   3.338   0.546   5.278  1.7937  0.5522  1.2088
 6784TIP3   OH241766   4.838   6.442   6.666  0.4003 -0.3678  0.3592
 6784TIP3    H141767   4.911   6.434   6.604  0.3644  0.2901  0.2283
 6784TIP3    H241768   4.858   6.522   6.715  0.1358 -0.5798  0.8154
 6785TIP3   OH241769   1.482   6.710   5.007  0.4457  0.4270 -0.0958
 6785TIP3    H141770   1.422   6.723   4.933 -2.2032 -0.5051  1.8152
 6785TIP3    H241771   1.539   6.787   5.006 -0.1588  0.8778 -2.5363
 6786TIP3   OH241772   3.892   2.312   3.040  0.0549  0.3947  0.2236
 6786TIP3    H141773   3.955   2.284   2.973 -0.0357 -0.7841  0.6222
 6786TIP3    H241774   3.943   2.310   3.121  0.1632  1.8182  0.1958
 6787TIP3   OH241775   5.699   0.797   1.984 -0.0530  0.1895 -0.6090
 6787TIP3    H141776   5.777   0.841   2.017 -1.5776  0.9386  2.1884
 6787TIP3    H241777   5.668   0.852   1.913  1.6431  0.1880 -1.3648
 6788TIP3   OH241778   0.771   6.724  15.807 -0.6880 -0.0076  0.4489
 6788TIP3    H141779   0.733   6.644  15.772  0.7495 -0.1437 -0.8495
 6788TIP3    H241780   0.865   6.706  15.811 -0.5588  0.9071  2.0340
 6789TIP3   OH241781   1.379   1.269  16.701  0.0583 -0.4336  0.4876
 6789TIP3    H141782   1.308   1.206  16.710  0.2717 -0.8017 -0.2864
 6789TIP3    H241783   1.336   1.349  16.671  0.1335 -1.0965 -1.4750
 6790TIP3   OH241784   0.187   2.389  11.275 -0.1068  0.1786  0.3720
 6790TIP3    H141785   0.132   2.410  11.199  0.2318 -0.8381 -0.1765
 6790TIP3    H241786   0.256   2.332  11.240  0.4153  0.2015  1.3299
 6791TIP3   OH241787   2.457   6.214  15.048  0.4237  0.0907  0.1696
 6791TIP3    H141788   2.546   6.200  15.016  0.1025 -1.1940 -0.1671
 6791TIP3    H241789   2.423   6.283  14.991  0.1103 -1.6678 -1.8427
 6792TIP3   OH241790   0.054   6.486  13.637  0.1175  0.4319 -0.1085
 6792TIP3    H141791   0.092   6.566  13.602  0.2313  0.4441  0.0444
 6792TIP3    H241792  -0.026   6.473  13.586 -0.7713  1.5360  0.9801
 6793TIP3   OH241793   6.291   4.795  14.079  0.3128 -0.2920 -0.0690
 6793TIP3    H141794   6.322   4.819  14.166  0.0159 -0.6989  0.1494
 6793TIP3    H241795   6.368   4.757  14.036  0.1234 -1.3517  0.4919
 6794TIP3   OH241796   2.091   5.305  11.578 -0.3865  0.2876 -0.1734
 6794TIP3    H141797   2.080   5.400  11.580 -1.2001  0.2127 -0.8056
 6794TIP3    H241798   2.051   5.275  11.660 -2.1683  0.3010 -1.0168
 6795TIP3   OH241799   4.276   3.631   5.198 -0.7372 -0.3909 -0.0310
 6795TIP3    H141800   4.357   3.672   5.229 -0.3218  0.0499 -1.6623
 6795TIP3    H241801   4.208   3.666   5.256 -0.1193  1.2060 -0.2319
 6796TIP3   OH241802   3.960   1.725  16.158  0.5268 -0.0904 -0.1417
 6796TIP3    H141803   4.002   1.774  16.229 -0.5403  2.3046 -1.0988
 6796TIP3    H241804   3.992   1.766  16.078  0.1664 -1.4652 -1.0122
 6797TIP3   OH241805   1.233   0.521   1.646  0.0094  0.0366 -0.1641
 6797TIP3    H141806   1.312   0.544   1.694 -0.9001 -2.5786  2.7733
 6797TIP3    H241807   1.167   0.583   1.676 -0.1845 -0.6834  0.9444
 6798TIP3   OH241808   4.026   5.288  13.351 -0.2733 -0.5922  0.3498
 6798TIP3    H141809   4.080   5.324  13.281  0.5038  0.1844  1.3372
 6798TIP3    H241810   4.086   5.238  13.405 -0.9036 -1.3520  0.3546
 6799TIP3   OH241811   5.554   0.090  15.656  0.4806 -0.4989  0.1381
 6799TIP3    H141812   5.602   0.098  15.573 -0.4328  1.0559 -0.2689
 6799TIP3    H241813   5.527  -0.002  15.659  0.6746 -0.6129 -1.2124
 6800TIP3   OH241814   3.240   2.456  15.024  0.4779 -0.1478  0.2469
 6800TIP3    H141815   3.236   2.446  15.119  1.4482  1.3452  0.4636
 6800TIP3    H241816   3.213   2.371  14.989  1.2932 -1.0900  1.8685
 6801TIP3   OH241817   5.081   2.448  15.426 -0.1500  0.2443 -0.5167
 6801TIP3    H141818   5.064   2.451  15.520  0.2737  0.8389 -0.4555
 6801TIP3    H241819   5.174   2.427  15.419  0.2771  2.0868 -0.7540
 6802TIP3   OH241820   5.380   5.710   0.590 -0.2011 -0.4542 -0.7283
 6802TIP3    H141821   5.442   5.681   0.657 -0.3381 -1.1666 -0.9051
 6802TIP3    H241822   5.297   5.669   0.616  0.0193 -1.7903 -2.0297
 6803TIP3   OH241823   2.166   6.549  14.209 -0.0028  0.3699  0.3894
 6803TIP3    H141824   2.198   6.581  14.293  4.2600 -1.0905 -0.5745
 6803TIP3    H241825   2.154   6.628  14.156  0.7154  1.0587  1.2431
 6804TIP3   OH241826   3.607   3.543  13.595  0.0519  0.7221 -0.1126
 6804TIP3    H141827   3.566   3.564  13.679 -2.3685 -0.4779 -0.9362
 6804TIP3    H241828   3.642   3.626  13.564 -1.6227  1.7697  0.7259
 6805TIP3   OH241829   3.980   0.337  12.106 -0.0199 -0.7673  0.5592
 6805TIP3    H141830   4.057   0.361  12.054 -1.2887  2.1237 -0.1192
 6805TIP3    H241831   3.932   0.275  12.050  0.3056 -0.2204 -0.3504
 6806TIP3   OH241832   2.656   6.502   3.045  0.4573 -0.1378 -0.2571
 6806TIP3    H141833   2.648   6.551   2.963  0.5172 -0.7719 -0.6490
 6806TIP3    H241834   2.742   6.459   3.039 -0.3320 -1.6893 -0.7064
 6807TIP3   OH241835   5.935   3.920  12.101  0.3235  0.5262  0.4538
 6807TIP3    H141836   5.903   3.904  12.012  0.2754 -0.2504  0.6071
 6807TIP3    H241837   5.859   3.900  12.157  0.3556  1.0078  0.6684
 6808TIP3   OH241838   1.731   5.488   4.145  0.0489 -0.6262 -0.5392
 6808TIP3    H141839   1.759   5.568   4.101 -1.0235 -0.6378 -1.2538
 6808TIP3    H241840   1.807   5.429   4.139  0.9562  0.4389  0.2875
 6809TIP3   OH241841   0.762   2.764   2.994  0.3094  0.2966  0.1928
 6809TIP3    H141842   0.780   2.833   3.058  0.6464 -0.8867  1.3960
 6809TIP3    H241843   0.761   2.683   3.046 -0.3980 -0.5657 -1.1453
 6810TIP3   OH241844   4.446   1.520  10.848 -0.6810  0.0742 -0.5201
 6810TIP3    H141845   4.514   1.528  10.781  0.5912  0.0483  0.7459
 6810TIP3    H241846   4.374   1.575  10.817 -0.1636 -0.0522 -1.9651
 6811TIP3   OH241847   3.935   2.988   4.074 -0.3009 -0.5382  0.0893
 6811TIP3    H141848   4.024   2.998   4.040 -1.0484  0.6381 -1.5816
 6811TIP3    H241849   3.925   2.893   4.087  2.0509 -0.4767  2.7210
 6812TIP3   OH241850   5.921   2.005  12.152 -0.4436 -0.4692  0.7919
 6812TIP3    H141851   5.848   2.012  12.214  0.0975 -2.1413  1.6656
 6812TIP3    H241852   5.972   1.931  12.184  0.6548 -0.4453 -0.8416
 6813TIP3   OH241853   3.357   3.877  15.476  0.3001 -0.3749 -0.7793
 6813TIP3    H141854   3.417   3.952  15.476 -0.8103  0.6463  2.8843
 6813TIP3    H241855   3.274   3.914  15.447 -0.6245  0.2489  2.4627
 6814TIP3   OH241856   5.918   2.468   5.827 -0.5081  0.5126  0.0688
 6814TIP3    H141857   5.940   2.474   5.734 -1.7386 -0.7061 -0.3197
 6814TIP3    H241858   5.930   2.557   5.860  0.8074  0.7736 -1.0451
 6815TIP3   OH241859   5.232   0.301  16.772 -0.7375 -1.0309 -0.2317
 6815TIP3    H141860   5.286   0.241  16.823  0.4979 -0.1293 -0.4639
 6815TIP3    H241861   5.234   0.383  16.822 -1.7735 -0.9441 -0.3192
 6816TIP3   OH241862   6.395   0.101   4.479  0.1951  0.0105 -0.5476
 6816TIP3    H141863   6.460   0.055   4.531  0.0663 -0.4789 -0.8057
 6816TIP3    H241864   6.327   0.126   4.542  1.0680  1.3323 -0.1346
 6817TIP3   OH241865   2.043   0.036  13.615 -0.1922 -0.1838  0.3649
 6817TIP3    H141866   2.085   0.040  13.529  1.1986  0.9429  1.0781
 6817TIP3    H241867   1.952   0.063  13.598  0.3144  0.9532 -0.5905
 6818TIP3   OH241868   3.048   5.814   1.354  0.4453  0.1544  0.1593
 6818TIP3    H141869   2.958   5.848   1.348  0.1794 -0.3977  0.9623
 6818TIP3    H241870   3.096   5.882   1.401  0.5773  0.6782 -0.7081
 6819TIP3   OH241871   4.537   5.283   4.245  0.3025  0.1871 -0.6494
 6819TIP3    H141872   4.627   5.258   4.225  0.2332 -1.7553  1.3105
 6819TIP3    H241873   4.490   5.272   4.163  0.9534 -3.0614 -0.6275
 6820TIP3   OH241874   4.463   1.946   4.858 -0.2189  0.4977  0.2071
 6820TIP3    H141875   4.403   1.904   4.797 -0.4872 -2.3266  2.2946
 6820TIP3    H241876   4.547   1.904   4.842 -0.1178  0.2927  1.2475
 6821TIP3   OH241877   6.017   4.593  11.005 -0.1323  0.1784 -0.1901
 6821TIP3    H141878   5.934   4.637  10.985  0.4813  1.3877 -0.0724
 6821TIP3    H241879   6.072   4.608  10.929  0.2392 -0.0016  0.0415
 6822TIP3   OH241880   2.964   3.206   4.258 -0.6304 -0.3673  0.2233
 6822TIP3    H141881   2.937   3.295   4.284 -0.8278 -0.0487 -1.0268
 6822TIP3    H241882   3.016   3.220   4.179  1.2315 -1.1873  1.2898
 6823TIP3   OH241883   0.435   1.305   4.072 -0.1281  0.0402  0.2327
 6823TIP3    H141884   0.426   1.215   4.102 -0.2952 -0.5497 -1.5500
 6823TIP3    H241885   0.525   1.311   4.041 -0.4067  0.1943 -0.5591
 6824TIP3   OH241886   5.518   3.879  14.801 -0.6501 -0.2755  0.0559
 6824TIP3    H141887   5.527   3.952  14.740 -1.2800  1.4955  1.9846
 6824TIP3    H241888   5.428   3.848  14.789 -0.0625 -1.4165 -1.4777
 6825TIP3   OH241889   3.743   5.781   3.645  0.1361 -0.1780  0.2467
 6825TIP3    H141890   3.788   5.760   3.563 -1.3447 -0.0316 -0.6197
 6825TIP3    H241891   3.789   5.731   3.712  0.9839 -0.7600 -0.7732
 6826TIP3   OH241892   6.382   1.788  15.987 -0.2388 -0.1712 -0.5167
 6826TIP3    H141893   6.294   1.769  16.019 -0.3170 -1.7934 -1.7015
 6826TIP3    H241894   6.370   1.819  15.898  0.2505  1.4666 -0.0450
 6827TIP3   OH241895   4.272   3.326  11.067 -0.0927  0.1143  0.3200
 6827TIP3    H141896   4.250   3.290  11.153 -1.9277  2.7936  1.0262
 6827TIP3    H241897   4.263   3.421  11.077 -1.7665  0.4145 -3.2223
 6828TIP3   OH241898   0.905   5.948   0.549 -0.2000  0.5119 -0.3101
 6828TIP3    H141899   0.889   5.904   0.465  2.6295 -0.2621 -0.5008
 6828TIP3    H241900   0.824   5.995   0.567 -1.3995 -0.5176 -2.7491
 6829TIP3   OH241901   6.389   6.056   2.369  0.3445 -0.3385  0.2508
 6829TIP3    H141902   6.356   6.090   2.452  1.6028  1.0198  0.2106
 6829TIP3    H241903   6.467   6.108   2.351  0.6613 -1.3121 -1.2775
 6830TIP3   OH241904   4.910   4.112  14.019  0.5325 -0.4061  0.1613
 6830TIP3    H141905   4.975   4.181  14.033 -0.9208  1.0665 -0.2021
 6830TIP3    H241906   4.912   4.061  14.100  1.6463  0.0301  0.4293
 6831TIP3   OH241907   4.522   0.221   3.499 -0.5353  0.3273  0.5062
 6831TIP3    H141908   4.519   0.154   3.430  0.3855 -0.2856  1.0533
 6831TIP3    H241909   4.450   0.198   3.558  0.6455 -1.0391  1.4610
 6832TIP3   OH241910   5.863   5.792  11.066 -0.1308 -0.2805  0.0124
 6832TIP3    H141911   5.888   5.880  11.094 -0.2338  0.9157 -3.4618
 6832TIP3    H241912   5.768   5.793  11.065 -0.1809 -1.0526  1.6941
 6833TIP3   OH241913   3.619   1.024  17.184 -0.3492 -0.4007  0.6238
 6833TIP3    H141914   3.664   1.094  17.135 -0.0063 -0.3308  1.0377
 6833TIP3    H241915   3.613   1.058  17.273  0.6487 -1.2954  1.0333
 6834TIP3   OH241916   2.077   0.117   0.959 -0.7951 -0.2379  0.4507
 6834TIP3    H141917   2.100   0.126   1.051  0.9592  1.2255 -0.1135
 6834TIP3    H241918   2.001   0.174   0.947  0.2241  1.1542  0.5476
 6835TIP3   OH241919   2.082   4.639  13.706  0.5026  0.1980  0.0399
 6835TIP3    H141920   2.155   4.584  13.679  0.5335 -0.3455  1.2329
 6835TIP3    H241921   2.005   4.596  13.670  0.5758 -0.3651  0.5445
 6836TIP3   OH241922   0.401   4.086   5.004 -0.4730 -0.1393  0.0749
 6836TIP3    H141923   0.419   4.173   5.038 -0.0952  0.7536 -2.3183
 6836TIP3    H241924   0.488   4.046   4.993 -0.5655 -0.2151 -0.3762
 6837TIP3   OH241925   1.436   2.627   1.131  0.0642 -0.0119  0.0775
 6837TIP3    H141926   1.486   2.557   1.090 -0.5543 -1.3665  1.5630
 6837TIP3    H241927   1.346   2.613   1.100 -0.0485  0.1462  0.3330
 6838TIP3   OH241928   2.129   1.533  12.645  0.2446  0.2066  0.0418
 6838TIP3    H141929   2.056   1.582  12.607  0.7154  0.3032 -0.7516
 6838TIP3    H241930   2.192   1.524  12.573  1.3682  0.8293  0.9279
 6839TIP3   OH241931   0.066   4.390  14.556  0.4261  0.6227 -0.1537
 6839TIP3    H141932   0.026   4.316  14.602 -1.0637  1.7142  0.3403
 6839TIP3    H241933   0.021   4.393  14.472  0.8881  0.6273 -0.4043
 6840TIP3   OH241934   5.059   2.279   4.362  0.2526  0.0338  0.7038
 6840TIP3    H141935   5.032   2.306   4.450  0.5641  0.8245  0.5597
 6840TIP3    H241936   4.979   2.284   4.310  0.6742  2.6209  0.2193
 6841TIP3   OH241937   3.530   3.656   1.342 -0.3715  0.1934  0.4366
 6841TIP3    H141938   3.522   3.568   1.378  0.8364 -1.0450 -2.1474
 6841TIP3    H241939   3.440   3.681   1.319 -0.8233 -0.0105  1.9826
 6842TIP3   OH241940   4.621   2.699   5.858  0.3221  0.0440  0.2634
 6842TIP3    H141941   4.611   2.677   5.951  0.0578  2.8721  0.9334
 6842TIP3    H241942   4.677   2.776   5.857 -0.9889  1.0241 -1.8260
 6843TIP3   OH241943   0.886   6.019  14.202  0.0283 -0.4197 -0.7830
 6843TIP3    H141944   0.953   5.973  14.251  0.1817 -1.6898 -2.1320
 6843TIP3    H241945   0.847   5.951  14.145 -0.9161  0.7467 -1.5635
 6844TIP3   OH241946   3.779   6.766  13.428 -0.8503  0.0261 -0.2078
 6844TIP3    H141947   3.830   6.755  13.348 -1.9184  2.1633 -1.2157
 6844TIP3    H241948   3.700   6.812  13.400 -1.0019  1.2639  2.1560
 6845TIP3   OH241949   1.024   0.695   1.500  0.6770 -0.4339 -0.7252
 6845TIP3    H141950   1.072   0.774   1.525  3.1121 -2.1184  0.0415
 6845TIP3    H241951   0.998   0.655   1.582 -2.0114  0.3644 -1.1257
 6846TIP3   OH241952   3.174   4.217  15.431 -0.6816  0.4129  0.2600
 6846TIP3    H141953   3.245   4.204  15.493 -0.9490 -0.8233  0.3346
 6846TIP3    H241954   3.185   4.306  15.399  0.7830  0.2937  0.4144
 6847TIP3   OH241955   4.625   6.154   1.730 -0.5679 -0.2404  0.1361
 6847TIP3    H141956   4.678   6.233   1.718  1.0577 -1.2332  0.6607
 6847TIP3    H241957   4.684   6.091   1.771 -1.7709 -1.8351 -0.5279
 6848TIP3   OH241958   3.240   6.690   5.229 -0.2333  0.1141  0.2484
 6848TIP3    H141959   3.334   6.710   5.235 -0.7775  2.4011  2.0990
 6848TIP3    H241960   3.213   6.726   5.145  0.2901  0.6741  0.3193
 6849TIP3   OH241961   1.770   0.800  16.778 -0.4178 -0.0219 -0.8944
 6849TIP3    H141962   1.727   0.768  16.857  1.5428  0.0302  0.2340
 6849TIP3    H241963   1.732   0.748  16.707 -1.3591 -0.8710  0.2145
 6850TIP3   OH241964   1.782   2.296  16.201  0.1192  0.3698 -0.1331
 6850TIP3    H141965   1.871   2.331  16.200 -0.2037  1.2235  0.3513
 6850TIP3    H241966   1.726   2.374  16.203 -0.6568 -0.1431 -1.2914
 6851TIP3   OH241967   3.007   5.673  15.173 -0.2710 -0.3124 -0.0804
 6851TIP3    H141968   3.001   5.615  15.097 -0.4289  0.0071 -0.3112
 6851TIP3    H241969   3.100   5.672  15.196  0.0835  1.0530 -1.4226
 6852TIP3   OH241970   5.784   3.581  13.111 -0.6666 -0.1098 -0.3427
 6852TIP3    H141971   5.784   3.573  13.016  0.0118 -1.1434 -0.2593
 6852TIP3    H241972   5.702   3.627  13.131 -0.6786  0.3503 -1.4392
 6853TIP3   OH241973   6.320   6.241   1.053 -0.4180 -0.7874  0.6848
 6853TIP3    H141974   6.365   6.162   1.025  2.5980  1.0862  0.0837
 6853TIP3    H241975   6.258   6.259   0.982 -1.0986 -2.5261  0.8021
 6854TIP3   OH241976   4.336   0.299  11.438  0.3398 -0.1589 -0.1230
 6854TIP3    H141977   4.332   0.273  11.346  1.5283 -0.6695 -0.0395
 6854TIP3    H241978   4.429   0.306  11.457  0.0975  0.4364  0.9139
 6855TIP3   OH241979   5.979   3.968   3.194 -0.2615 -0.0249 -0.0722
 6855TIP3    H141980   6.061   3.918   3.200 -0.5034 -0.3535  0.5086
 6855TIP3    H241981   5.948   3.951   3.105  0.9069  1.0655 -0.7187
 6856TIP3   OH241982   5.250   3.601   2.147  0.4210 -0.5230 -0.3099
 6856TIP3    H141983   5.342   3.588   2.120  0.4570  0.3616 -0.6227
 6856TIP3    H241984   5.254   3.665   2.218  0.2886 -2.6180  1.6424
 6857TIP3   OH241985   2.689   3.857  13.417 -0.0855  0.0700  0.0122
 6857TIP3    H141986   2.778   3.890  13.428 -0.6042  0.9380  1.8609
 6857TIP3    H241987   2.669   3.813  13.500 -1.7044  0.7232 -0.0125
 6858TIP3   OH241988   5.221   0.987   6.072 -0.3547 -0.1381  0.0903
 6858TIP3    H141989   5.195   1.067   6.026  0.4301 -0.3252 -0.6975
 6858TIP3    H241990   5.198   1.003   6.163 -0.9654  0.6622 -0.1951
 6859TIP3   OH241991   2.612   3.572   3.992 -0.6415 -0.2529  0.0513
 6859TIP3    H141992   2.651   3.644   3.943  0.5858 -2.4399 -2.2825
 6859TIP3    H241993   2.614   3.602   4.083  2.3739  1.5413 -0.5323
 6860TIP3   OH241994   1.486   4.985  15.547  0.9345 -0.1976 -0.5024
 6860TIP3    H141995   1.554   4.926  15.581 -0.7423 -2.0818 -0.2856
 6860TIP3    H241996   1.422   4.991  15.618 -0.4455 -0.6460 -1.6839
 6861TIP3   OH241997   2.255   2.105  14.707 -0.0259 -0.1054 -0.7432
 6861TIP3    H141998   2.244   2.198  14.727  0.8356  0.1525 -1.4667
 6861TIP3    H241999   2.347   2.087  14.724  0.1164 -0.5069 -1.9080
 6862TIP3   OH242000   2.747   6.653  13.344 -0.8763  0.3049  0.3398
 6862TIP3    H142001   2.687   6.601  13.291 -1.3341  0.2727  0.8811
 6862TIP3    H242002   2.783   6.590  13.408 -1.6379  0.6951  1.1697
 6863TIP3   OH242003   4.683   0.430   3.275 -0.1738  0.2971 -0.1447
 6863TIP3    H142004   4.598   0.393   3.255 -0.6014  1.6016 -0.8364
 6863TIP3    H242005   4.664   0.506   3.330  0.5647  0.3226  0.0795
 6864TIP3   OH242006   6.621   1.587   0.332  0.5650 -0.2078 -0.0631
 6864TIP3    H142007   6.616   1.681   0.314  0.1803 -0.2137  0.0015
 6864TIP3    H242008   6.674   1.581   0.411  0.4600 -0.0324  0.0225
 6865TIP3   OH242009   6.388   0.498   3.602 -0.1540  0.6922  0.0202
 6865TIP3    H142010   6.313   0.549   3.632 -0.3919  0.3391  0.0299
 6865TIP3    H242011   6.362   0.407   3.615  0.9256  0.5806  1.6009
 6866TIP3   OH242012   3.713   2.158  14.411  0.0894  0.1929 -0.2465
 6866TIP3    H142013   3.714   2.161  14.315 -0.5875  2.0189 -0.2223
 6866TIP3    H242014   3.794   2.203  14.437  0.2987 -0.3475  0.0512
 6867TIP3   OH242015   5.187   1.066   5.107  1.0085  0.5181 -0.1565
 6867TIP3    H142016   5.132   1.017   5.045 -1.5230  3.2153 -0.1249
 6867TIP3    H242017   5.238   1.125   5.052  3.7759 -1.8028 -0.1617
 6868TIP3   OH242018   6.118   3.144  11.879  0.3936  0.2710  0.4420
 6868TIP3    H142019   6.065   3.214  11.919  0.4797  1.0627 -0.8199
 6868TIP3    H242020   6.206   3.159  11.913  0.6318  1.4328 -0.6420
 6869TIP3   OH242021   0.834   5.049   2.157 -0.2644 -0.7636 -0.2143
 6869TIP3    H142022   0.884   4.968   2.156 -0.5253 -1.0543  3.0223
 6869TIP3    H242023   0.743   5.022   2.143 -0.1081 -0.7903 -1.1830
 6870TIP3   OH242024   1.309   0.515   0.997 -0.4866  0.1661  0.1102
 6870TIP3    H142025   1.317   0.431   1.043 -0.9235 -0.3247 -0.6785
 6870TIP3    H242026   1.219   0.543   1.014 -0.2921  0.5478  0.4984
 6871TIP3   OH242027   2.485   2.364  15.227  0.6670  0.0947 -0.1145
 6871TIP3    H142028   2.422   2.318  15.284  1.5563 -0.9707  0.0241
 6871TIP3    H242029   2.437   2.441  15.196 -0.3459 -0.1251  0.8569
 6872TIP3   OH242030   3.831   5.500   5.002 -0.2599  0.5182  0.0572
 6872TIP3    H142031   3.782   5.574   5.037 -0.5270  0.4723 -0.2214
 6872TIP3    H242032   3.779   5.423   5.026  0.5292  0.3332  1.2437
 6873TIP3   OH242033   0.585   2.736   4.796  0.4621  0.0447 -0.2238
 6873TIP3    H142034   0.494   2.715   4.817  0.5260 -0.2201 -0.2073
 6873TIP3    H242035   0.636   2.671   4.844  0.5615 -1.3241 -2.1388
 6874TIP3   OH242036   6.490   6.229   3.106  0.5184  0.2877  1.1235
 6874TIP3    H142037   6.527   6.250   3.021 -0.0008  0.1315  0.8607
 6874TIP3    H242038   6.534   6.290   3.166  0.9640  0.3205  0.7686
 6875TIP3   OH242039   3.460   0.518  15.088 -0.2837 -0.1969 -0.2234
 6875TIP3    H142040   3.433   0.471  15.167 -1.7456  0.8113 -0.1145
 6875TIP3    H242041   3.379   0.535  15.041  0.2636  1.7825 -0.5000
 6876TIP3   OH242042   6.629   4.270  15.820 -0.4375 -0.2561 -0.4857
 6876TIP3    H142043   6.565   4.292  15.752  1.4920  2.4678 -1.5165
 6876TIP3    H242044   6.712   4.263  15.773  0.6280 -0.1650  1.3256
 6877TIP3   OH242045   5.293   4.297  13.407  0.1935 -0.2399  0.6820
 6877TIP3    H142046   5.252   4.361  13.349 -1.6544 -1.4842  0.5706
 6877TIP3    H242047   5.321   4.349  13.483 -0.2397  0.8839  0.0910
 6878TIP3   OH242048   5.019   2.928  12.469  0.3302 -0.0572  0.1747
 6878TIP3    H142049   5.003   2.904  12.560  0.2673  0.1428  0.2159
 6878TIP3    H242050   5.084   2.864  12.439 -1.6946 -1.8758 -0.4728
 6879TIP3   OH242051   6.214   5.894   0.347  0.0896 -0.3484 -0.1332
 6879TIP3    H142052   6.278   5.833   0.383  0.5274  0.8513  1.1734
 6879TIP3    H242053   6.130   5.850   0.358  0.4079 -0.7416  0.7439
 6880TIP3   OH242054   6.598   1.294   3.606  0.1674 -0.1111 -0.4830
 6880TIP3    H142055   6.529   1.230   3.622  1.6977 -1.8002 -0.3366
 6880TIP3    H242056   6.616   1.333   3.691 -0.1808 -0.1398 -0.3993
 6881TIP3   OH242057   5.170   1.205  14.209  0.1392 -0.3427 -0.4771
 6881TIP3    H142058   5.186   1.218  14.115  0.0639 -2.1646 -0.7569
 6881TIP3    H242059   5.174   1.293  14.246 -0.3848  0.4600 -2.2709
 6882TIP3   OH242060   4.853   3.460   0.927 -0.1706  0.2725  0.5272
 6882TIP3    H142061   4.924   3.415   0.973 -0.1363 -0.2910 -0.0867
 6882TIP3    H242062   4.897   3.527   0.875  0.0031 -0.8000 -0.7130
 6883TIP3   OH242063   2.326   6.288  10.565  0.5427 -0.0242  0.3716
 6883TIP3    H142064   2.309   6.194  10.564 -0.3587  0.1404 -0.1617
 6883TIP3    H242065   2.249   6.327  10.524  1.3563  0.8759 -0.3154
 6884TIP3   OH242066   2.944   2.035   4.819  0.3326  0.4629 -0.9763
 6884TIP3    H142067   2.896   2.099   4.872  1.1359 -0.2534  0.6649
 6884TIP3    H242068   2.879   2.000   4.758 -1.0959 -0.0454  0.7944
 6885TIP3   OH242069   1.236   1.681  10.525 -0.9201 -0.1579  0.2137
 6885TIP3    H142070   1.237   1.603  10.470  4.5478 -0.2103  0.0775
 6885TIP3    H242071   1.242   1.646  10.614 -1.4363  0.0687  0.3372
 6886TIP3   OH242072   1.791   6.292   0.359  0.5151 -0.5658  0.7435
 6886TIP3    H142073   1.816   6.212   0.405 -0.8570  0.2906  3.0555
 6886TIP3    H242074   1.729   6.335   0.417 -0.7725  0.9138 -1.6400
 6887TIP3   OH242075   2.147   6.520   1.751  0.0507 -0.0451 -0.3570
 6887TIP3    H142076   2.110   6.446   1.799  1.0741  0.9417  2.0235
 6887TIP3    H242077   2.241   6.503   1.750  0.0689  0.1364 -1.7042
 6888TIP3   OH242078   2.797   2.509  14.689  0.5853  0.2061 -0.8532
 6888TIP3    H142079   2.892   2.494  14.693  0.5411  0.1197 -0.1068
 6888TIP3    H242080   2.784   2.559  14.608  1.0996 -1.0979 -1.7570
 6889TIP3   OH242081   1.421   2.271   3.273 -0.3288 -0.6672 -0.3777
 6889TIP3    H142082   1.401   2.301   3.185 -0.6044 -0.5422 -0.2746
 6889TIP3    H242083   1.357   2.316   3.329  0.9666  0.6381  0.0883
 6890TIP3   OH242084   0.702   5.626  11.750 -0.2242  0.4133  0.4061
 6890TIP3    H142085   0.736   5.674  11.674  2.3303 -1.3656  0.3604
 6890TIP3    H242086   0.618   5.592  11.721  1.4569 -1.6891 -2.3328
 6891TIP3   OH242087   2.137   1.856  15.739  0.7972  0.4276  0.1405
 6891TIP3    H142088   2.226   1.865  15.774  1.3862  0.8502 -1.4307
 6891TIP3    H242089   2.116   1.944  15.706 -0.7513  0.6922  1.7481
 6892TIP3   OH242090   4.040   5.107  11.234 -0.0145  0.4547 -0.0392
 6892TIP3    H142091   3.961   5.070  11.193 -0.5994  0.5214  0.9910
 6892TIP3    H242092   4.069   5.174  11.174 -2.3623  2.3407  0.8287
 6893TIP3   OH242093   5.052   4.563   1.821 -0.5692  0.1787 -0.0183
 6893TIP3    H142094   5.037   4.469   1.832 -0.7600  0.1425 -0.6103
 6893TIP3    H242095   5.143   4.576   1.849 -0.9673  0.0452  1.3984
 6894TIP3   OH242096   5.095   1.084   0.639 -0.4475 -0.1111 -0.2042
 6894TIP3    H142097   5.046   1.004   0.620 -0.3798 -0.3750  0.7137
 6894TIP3    H242098   5.135   1.108   0.555 -1.7380 -0.1593 -0.8528
 6895TIP3   OH242099   3.415   6.167  16.759  0.5108 -0.3640  0.2984
 6895TIP3    H142100   3.332   6.150  16.715 -0.6267  0.1922  2.1951
 6895TIP3    H242101   3.396   6.238  16.820  2.8482  1.0921 -0.5939
 6896TIP3   OH242102   4.210   3.422  15.778  0.4373 -0.5742  0.1995
 6896TIP3    H142103   4.193   3.350  15.838 -0.7864 -0.3248  0.1662
 6896TIP3    H242104   4.242   3.380  15.698  0.6295 -1.0070  0.5065
 6897TIP3   OH242105   1.535   3.535   5.271  0.2582 -0.0903  0.1098
 6897TIP3    H142106   1.445   3.566   5.256  1.1729  1.8784 -1.5289
 6897TIP3    H242107   1.526   3.440   5.281 -2.2894  0.3275  2.4565
 6898TIP3   OH242108   2.926   4.778   4.589 -0.0394 -0.4346  0.1139
 6898TIP3    H142109   2.978   4.698   4.578 -1.3591 -1.1228 -1.1905
 6898TIP3    H242110   2.904   4.779   4.683  1.1972 -0.8291  0.4203
 6899TIP3   OH242111   2.750   2.747   3.703 -0.5257 -0.2057 -0.0368
 6899TIP3    H142112   2.733   2.716   3.792  0.3138 -1.6092 -0.3508
 6899TIP3    H242113   2.729   2.672   3.647 -1.3378  0.7678 -1.0449
 6900TIP3   OH242114   2.286   2.192   1.658 -0.1127  0.1658  0.0969
 6900TIP3    H142115   2.354   2.183   1.591 -0.2381  1.4637 -0.2154
 6900TIP3    H242116   2.206   2.160   1.617 -0.2601  1.2718 -0.5127
 6901TIP3   OH242117   0.633   5.550  12.020  0.3903 -0.7426  0.2827
 6901TIP3    H142118   0.643   5.601  11.939 -0.9530 -2.5077 -1.0419
 6901TIP3    H242119   0.616   5.615  12.087  0.7308  0.7064 -1.0033
 6902TIP3   OH242120   5.650   2.003  11.399  1.1564 -0.9768  0.1658
 6902TIP3    H142121   5.614   1.919  11.429  0.0331 -0.3455  0.6416
 6902TIP3    H242122   5.666   1.990  11.306  0.3913 -1.5279  0.0991
 6903TIP3   OH242123   3.107   6.250   1.875  0.5343 -0.5796 -0.3185
 6903TIP3    H142124   3.158   6.276   1.952 -0.5781  0.7710  0.0007
 6903TIP3    H242125   3.157   6.282   1.801  1.4757 -1.6336 -0.1417
 6904TIP3   OH242126   0.538   5.648  16.993 -0.3033  0.3684 -0.2183
 6904TIP3    H142127   0.517   5.604  16.912  1.2924 -0.9441  0.0461
 6904TIP3    H242128   0.454   5.676  17.029 -1.0661  0.3036 -1.9408
 6905TIP3   OH242129   3.527   0.890  16.570 -0.1535 -0.2770  0.0673
 6905TIP3    H142130   3.572   0.974  16.571 -2.5736  1.0833  0.7706
 6905TIP3    H242131   3.526   0.861  16.662  0.9807 -1.2538 -0.2207
 6906TIP3   OH242132   2.828   6.267   0.249 -0.1356  0.0823  0.1217
 6906TIP3    H142133   2.797   6.262   0.159  2.6039  1.5649 -0.9560
 6906TIP3    H242134   2.923   6.279   0.242  0.1668  0.0322  3.2005
 6907TIP3   OH242135   2.549   5.282  11.285 -0.8117  0.5272 -0.0175
 6907TIP3    H142136   2.528   5.328  11.204 -1.0878  1.5069  0.6064
 6907TIP3    H242137   2.556   5.190  11.259 -2.3367  0.6396 -0.8852
 6908TIP3   OH242138   0.060   6.019  12.828  0.1090  0.0863 -0.0956
 6908TIP3    H142139   0.001   5.954  12.866 -1.4247  1.6727  0.3143
 6908TIP3    H242140   0.064   5.997  12.735 -2.4155  0.9110 -0.4160
 6909TIP3   OH242141   4.940   2.442  15.022 -0.0469 -0.6545 -0.5207
 6909TIP3    H142142   5.003   2.372  15.005 -1.3783 -1.6377 -1.4805
 6909TIP3    H242143   4.878   2.405  15.085 -1.9421 -1.1083 -2.5592
 6910TIP3   OH242144   4.821   0.132   5.122 -0.4658 -0.5783  0.4991
 6910TIP3    H142145   4.899   0.138   5.066 -1.1616 -0.9502 -0.5188
 6910TIP3    H242146   4.819   0.040   5.150 -1.3719 -0.9324 -0.6972
 6911TIP3   OH242147   3.661   1.714   0.150 -0.3786 -0.3342 -0.6336
 6911TIP3    H142148   3.718   1.689   0.223 -0.9399 -0.1784 -0.1366
 6911TIP3    H242149   3.587   1.654   0.156 -1.1235  0.5962 -0.1945
 6912TIP3   OH242150   4.154   4.859  14.765 -0.1589  0.0713 -0.3464
 6912TIP3    H142151   4.158   4.902  14.679  0.5280  0.4969 -0.1048
 6912TIP3    H242152   4.229   4.895  14.813 -0.3808 -0.3761  0.3343
 6913TIP3   OH242153   0.300   4.547  13.030  0.3864 -0.1475 -1.0171
 6913TIP3    H142154   0.380   4.600  13.022  0.6444 -0.1225  1.4095
 6913TIP3    H242155   0.317   4.469  12.977  2.3680 -0.5315  0.1434
 6914TIP3   OH242156   5.298   2.634  17.031  0.0850 -0.6987  0.0711
 6914TIP3    H142157   5.259   2.562  16.982  1.3851 -1.2414 -0.1719
 6914TIP3    H242158   5.301   2.604  17.121 -0.8506 -0.3172  0.2333
 6915TIP3   OH242159   0.675   2.521   5.655  0.1999  0.1076  0.7617
 6915TIP3    H142160   0.720   2.445   5.618 -0.2921  0.3263 -0.2934
 6915TIP3    H242161   0.745   2.583   5.674  0.4706 -0.0405  0.2608
 6916TIP3   OH242162   2.049   4.326   2.778  0.1481 -0.2988 -0.4018
 6916TIP3    H142163   2.054   4.316   2.873 -0.5128 -0.0828 -0.3395
 6916TIP3    H242164   2.139   4.312   2.747  0.6745  1.2000  0.3982
 6917TIP3   OH242165   3.585   2.488   4.886 -0.2496  0.2063  0.6438
 6917TIP3    H142166   3.554   2.500   4.796 -2.0848 -0.9725  1.0906
 6917TIP3    H242167   3.539   2.554   4.937 -0.8052 -0.4618  1.0310
 6918TIP3   OH242168   3.721   2.215   4.215 -0.5974  0.1363 -0.0467
 6918TIP3    H142169   3.696   2.186   4.303 -0.5778 -1.9386 -0.7113
 6918TIP3    H242170   3.812   2.242   4.223 -0.2534 -1.1213  0.3303
 6919TIP3   OH242171   1.718   4.852  13.605  0.0334  0.1972 -0.0623
 6919TIP3    H142172   1.695   4.843  13.513  2.5746  0.1267 -0.7354
 6919TIP3    H242173   1.637   4.879  13.648 -0.9979  0.9620 -2.4269
 6920TIP3   OH242174   6.514   1.391   2.082 -0.3883  0.6084 -0.3148
 6920TIP3    H142175   6.465   1.384   2.163 -1.0910  0.5092 -0.7430
 6920TIP3    H242176   6.606   1.384   2.108 -0.7325 -3.4325  0.0357
 6921TIP3   OH242177   5.907   0.334   0.783 -0.5452 -0.0331 -0.3421
 6921TIP3    H142178   5.912   0.267   0.716 -0.4452  1.8428 -2.2637
 6921TIP3    H242179   5.822   0.376   0.770 -0.4183  0.5136  0.5168
 6922TIP3   OH242180   4.999   1.375  10.735 -0.2224 -0.4473 -0.0695
 6922TIP3    H142181   4.906   1.367  10.753  0.0441 -0.6626  1.2253
 6922TIP3    H242182   5.042   1.339  10.813  0.9324 -1.8136 -1.2921
 6923TIP3   OH242183   0.433   6.616  13.217  0.5778  0.4717 -0.4816
 6923TIP3    H142184   0.390   6.537  13.185  1.0655  0.7721 -1.9553
 6923TIP3    H242185   0.366   6.660  13.270  0.1670 -0.6981 -0.0129
 6924TIP3   OH242186   5.201   6.032  11.050  0.4219  0.0924  0.2948
 6924TIP3    H142187   5.158   5.990  11.125  0.3526  0.1393  0.2825
 6924TIP3    H242188   5.294   6.016  11.063  0.4201  0.2168  0.4636
 6925TIP3   OH242189   0.538   4.728  13.438 -0.4923 -0.7379  0.3585
 6925TIP3    H142190   0.620   4.686  13.462  0.5914  0.5180 -1.1026
 6925TIP3    H242191   0.543   4.740  13.343 -2.4047 -0.7185  0.2277
 6926TIP3   OH242192   2.859   3.592  12.380 -0.1382 -0.1604 -0.3059
 6926TIP3    H142193   2.878   3.642  12.459 -0.7929  2.2938 -1.6417
 6926TIP3    H242194   2.937   3.537  12.366 -0.3888 -1.2999  2.4864
 6927TIP3   OH242195   1.068   0.328  14.706  0.2790 -0.2757 -0.6921
 6927TIP3    H142196   1.153   0.313  14.664  0.0301 -0.7053 -1.0387
 6927TIP3    H242197   1.025   0.393  14.651  0.6983  0.5276 -0.0811
 6928TIP3   OH242198   0.362   1.301   0.253  0.2527 -0.1691 -0.2510
 6928TIP3    H142199   0.299   1.321   0.184 -1.0338 -0.7428  0.7465
 6928TIP3    H242200   0.326   1.343   0.331  1.5733  0.2613  0.1406
 6929TIP3   OH242201   0.057   5.782  15.594  0.0908 -0.1383 -0.1706
 6929TIP3    H142202  -0.014   5.818  15.647  1.6316  0.3751  1.6382
 6929TIP3    H242203   0.069   5.844  15.523 -0.1741  0.6548  0.4712
 6930TIP3   OH242204   3.910   4.063  14.452 -0.0753 -0.0591  0.2661
 6930TIP3    H142205   3.839   4.062  14.388 -0.1113 -0.5198  0.3053
 6930TIP3    H242206   3.872   4.106  14.529 -0.6850 -1.3065  0.6873
 6931TIP3   OH242207   2.079   6.065   4.139 -0.4075  0.0847  0.6880
 6931TIP3    H142208   2.165   6.056   4.098 -0.3921 -0.4164  0.8311
 6931TIP3    H242209   2.070   5.988   4.195 -1.5925 -0.6957 -0.5190
 6932TIP3   OH242210   3.993   4.721   3.370 -0.1228 -0.3470  0.3990
 6932TIP3    H142211   3.982   4.796   3.311 -0.4256 -1.3462 -0.8452
 6932TIP3    H242212   4.024   4.759   3.452 -0.7862  1.1947 -0.0471
 6933TIP3   OH242213   5.146   0.809  13.565 -0.2640  0.3607  0.3633
 6933TIP3    H142214   5.226   0.801  13.514  0.8382  0.4499  2.0213
 6933TIP3    H242215   5.132   0.722  13.601 -1.1988  0.2223 -0.3276
 6934TIP3   OH242216   0.571   4.481   5.319  0.1854  0.0316  0.5987
 6934TIP3    H142217   0.563   4.386   5.306  0.9831 -0.0756  0.8448
 6934TIP3    H242218   0.650   4.505   5.271 -1.5428  1.0528 -1.8226
 6935TIP3   OH242219   2.788   1.260   0.961 -0.2833  0.0093 -0.3949
 6935TIP3    H142220   2.786   1.354   0.942  0.7310  0.2952  0.8265
 6935TIP3    H242221   2.841   1.222   0.891 -0.0730  0.4447 -0.4731
 6936TIP3   OH242222   1.329   2.443  15.450  0.1424  0.2045  0.6002
 6936TIP3    H142223   1.298   2.383  15.517  0.4228 -0.3854  0.2034
 6936TIP3    H242224   1.345   2.388  15.373 -1.3854  1.0622 -0.3451
 6937TIP3   OH242225   3.446   4.563  16.612 -0.3404  0.4535 -0.6431
 6937TIP3    H142226   3.466   4.657  16.607  0.9328  0.1812 -1.0379
 6937TIP3    H242227   3.416   4.549  16.701 -0.4916  1.2337 -0.5685
 6938TIP3   OH242228   3.958   0.819   0.733 -0.0473 -0.1328  0.9590
 6938TIP3    H142229   3.868   0.791   0.747 -0.7406  2.0970  1.0793
 6938TIP3    H242230   3.957   0.862   0.648  1.2986 -1.6176  0.1575
 6939TIP3   OH242231   0.461   4.107   1.660 -0.4491 -0.6602 -0.1300
 6939TIP3    H142232   0.496   4.032   1.708 -0.8084 -0.1371  0.9730
 6939TIP3    H242233   0.490   4.184   1.711 -4.7259 -0.2595  1.9418
 6940TIP3   OH242234   2.940   6.121   3.994 -0.9023  0.7543  0.0470
 6940TIP3    H142235   2.872   6.110   4.060 -1.3574  1.6028 -0.2819
 6940TIP3    H242236   2.893   6.124   3.911 -0.2573 -1.4059 -0.4396
 6941TIP3   OH242237   1.696   5.738   1.444 -0.5866  0.0907 -0.3672
 6941TIP3    H142238   1.776   5.787   1.427 -0.0035 -1.4723 -2.2618
 6941TIP3    H242239   1.699   5.721   1.538  2.1736 -1.3867 -0.6614
 6942TIP3   OH242240   4.738   5.895   2.747 -0.0549 -0.1462 -0.0079
 6942TIP3    H142241   4.782   5.969   2.787 -0.6395  0.1669  0.0690
 6942TIP3    H242242   4.738   5.915   2.654 -2.7188  1.3502  0.2627
 6943TIP3   OH242243   6.702   0.474  13.198 -0.1231  0.1253 -0.1069
 6943TIP3    H142244   6.765   0.450  13.130 -0.8624  0.0806 -0.7759
 6943TIP3    H242245   6.746   0.542  13.248  0.8991 -0.6775  0.1072
 6944TIP3   OH242246   5.160   2.544  11.499 -0.1974 -0.1635  0.1055
 6944TIP3    H142247   5.154   2.455  11.534  1.7485 -0.8453 -1.1928
 6944TIP3    H242248   5.123   2.537  11.410  2.7615 -0.4007 -1.1547
 6945TIP3   OH242249   5.834   4.942  13.953  0.0609  0.1541  0.0745
 6945TIP3    H142250   5.888   4.871  13.917 -0.7269  0.0847 -0.9741
 6945TIP3    H242251   5.810   4.912  14.041  2.2732  0.4758  0.8190
 6946TIP3   OH242252   5.263   0.804  16.177 -0.3445  0.1264 -0.2001
 6946TIP3    H142253   5.293   0.755  16.100 -0.1966  0.4955 -0.3824
 6946TIP3    H242254   5.179   0.842  16.150 -0.2214  0.3766 -0.2346
 6947TIP3   OH242255   0.712   1.406   3.517 -0.0883  0.5692 -0.4001
 6947TIP3    H142256   0.689   1.364   3.434 -0.2632  0.9614 -0.5488
 6947TIP3    H242257   0.808   1.410   3.517 -0.0269 -0.6294  0.0054
 6948TIP3   OH242258   3.683   1.491   1.508  0.1674 -0.2552  0.2637
 6948TIP3    H142259   3.745   1.526   1.573  0.8975  0.2997 -0.7155
 6948TIP3    H242260   3.713   1.401   1.494 -1.1718 -1.0212  2.1213
 6949TIP3   OH242261   0.534   1.167   2.759 -0.5009 -0.1657  0.2741
 6949TIP3    H142262   0.584   1.241   2.792  0.9231 -0.9435 -0.1037
 6949TIP3    H242263   0.578   1.142   2.678 -1.2256 -1.1444  0.1685
 6950TIP3   OH242264   5.279   2.620  16.700 -0.0877 -0.4749  0.2411
 6950TIP3    H142265   5.262   2.596  16.791 -0.4796  0.7738  0.5112
 6950TIP3    H242266   5.194   2.608  16.656  0.4109 -2.3621 -0.2771
 6951TIP3   OH242267   3.193   0.619  14.316 -0.3251 -0.1699 -0.1140
 6951TIP3    H142268   3.281   0.651  14.295 -0.6981  0.6255 -0.5028
 6951TIP3    H242269   3.207   0.555  14.385  0.4823  0.5700  0.4260
 6952TIP3   OH242270   5.778   0.575   5.922  0.1126  0.5003  0.4618
 6952TIP3    H142271   5.807   0.666   5.930  2.7961 -0.3998  1.6818
 6952TIP3    H242272   5.709   0.566   5.987  1.3677  1.1100  1.9078
 6953TIP3   OH242273   1.939   4.386  16.670 -0.0733  0.4577 -0.0917
 6953TIP3    H142274   1.907   4.320  16.732  1.2306 -0.1733 -0.0855
 6953TIP3    H242275   1.888   4.464  16.691 -0.6517 -0.1525  0.8309
 6954TIP3   OH242276   6.136   4.665  11.251  0.2811 -0.3815  0.2614
 6954TIP3    H142277   6.224   4.629  11.236 -0.1092 -1.3268  0.2287
 6954TIP3    H242278   6.091   4.654  11.167  0.4144  0.9231  0.0102
 6955TIP3   OH242279   1.613   5.459   4.847  0.0237  0.2793  0.3147
 6955TIP3    H142280   1.577   5.533   4.797  0.3771 -0.0546 -0.4474
 6955TIP3    H242281   1.700   5.488   4.874 -0.9999  1.2731  2.5775
 6956TIP3   OH242282   2.221   3.321  13.396 -0.4359 -0.0412  0.2394
 6956TIP3    H142283   2.178   3.334  13.480 -0.8703 -0.0177  0.0204
 6956TIP3    H242284   2.199   3.231  13.371  1.4429 -0.7657  1.1244
 6957TIP3   OH242285   5.729   2.772   3.120  0.2477 -0.1225  0.1447
 6957TIP3    H142286   5.756   2.701   3.178  0.5749  0.2257  0.4249
 6957TIP3    H242287   5.634   2.774   3.126  0.1877 -1.0298 -0.4527
 6958TIP3   OH242288   5.553   2.783  12.324 -0.2608  0.2602  0.1203
 6958TIP3    H142289   5.461   2.763  12.339  0.0887 -0.7768  0.8954
 6958TIP3    H242290   5.560   2.793  12.229 -1.1777  0.4422  0.0627
 6959TIP3   OH242291   2.926   5.773  11.656  0.3257 -0.1341  0.2161
 6959TIP3    H142292   2.883   5.721  11.588  1.6307 -0.4697 -0.3685
 6959TIP3    H242293   2.873   5.852  11.663 -1.7229 -1.5580  1.1741
 6960TIP3   OH242294   1.377   1.785  14.576  0.0504  0.8388 -0.2968
 6960TIP3    H142295   1.461   1.825  14.553  0.2774  0.8072  0.4734
 6960TIP3    H242296   1.312   1.846  14.540  0.3871  0.2395 -1.9685
 6961TIP3   OH242297   3.141   1.113  14.779  0.2504  0.4104 -0.3464
 6961TIP3    H142298   3.122   1.047  14.713 -2.9371  0.1590  0.7340
 6961TIP3    H242299   3.200   1.069  14.841  0.4713 -0.4627 -1.1733
 6962TIP3   OH242300   6.743   3.215   5.319 -0.2629  0.1728  0.5399
 6962TIP3    H142301   6.682   3.164   5.266  0.8715 -1.6486  0.8998
 6962TIP3    H242302   6.817   3.232   5.261  0.4196 -0.7183  1.1204
 6963TIP3   OH242303   1.946   6.518   4.049 -0.2976 -0.3532 -0.5548
 6963TIP3    H142304   1.953   6.593   4.109  2.9425  1.0192 -2.5214
 6963TIP3    H242305   1.984   6.445   4.098 -0.6326 -0.0194  0.2256
 6964TIP3   OH242306   2.668   1.890   2.643  0.4362 -0.4749  0.1673
 6964TIP3    H142307   2.740   1.916   2.585 -0.5751  0.5513 -0.6680
 6964TIP3    H242308   2.653   1.798   2.623  1.0515 -0.4981 -0.1845
 6965TIP3   OH242309   0.195   3.948   5.127 -0.3438 -0.1775  0.4112
 6965TIP3    H142310   0.253   4.019   5.097 -2.4385  1.4812  0.1879
 6965TIP3    H242311   0.200   3.882   5.058  1.5154 -0.2002  0.5471
 6966TIP3   OH242312   2.772   4.695   3.793 -0.6121  0.4044  0.1157
 6966TIP3    H142313   2.709   4.634   3.755 -0.0368  0.5922 -1.2065
 6966TIP3    H242314   2.849   4.641   3.813 -0.3741  0.5592 -0.3694
 6967TIP3   OH242315   3.768   0.091  11.669  0.2789  0.4174 -0.2391
 6967TIP3    H142316   3.713   0.016  11.647  1.2621 -0.7781  1.1933
 6967TIP3    H242317   3.801   0.123  11.585 -0.9523 -0.1350 -0.9441
 6968TIP3   OH242318   1.003   0.047   4.402  0.1706 -0.0293  0.7069
 6968TIP3    H142319   1.088   0.046   4.359 -0.3742  2.8469 -0.5343
 6968TIP3    H242320   0.944   0.001   4.342  0.5983 -1.0994  1.0900
 6969TIP3   OH242321   3.411   5.782  14.160 -0.3548  0.2056 -0.2968
 6969TIP3    H142322   3.410   5.840  14.084 -2.1033  0.6049  0.0077
 6969TIP3    H242323   3.447   5.700  14.127  1.3228  1.1785 -0.9364
 6970TIP3   OH242324   3.775   1.704   2.581 -0.3646  0.3287  0.1631
 6970TIP3    H142325   3.855   1.663   2.613 -0.1160  1.6371  1.2822
 6970TIP3    H242326   3.716   1.631   2.561 -0.2748 -0.5798  3.0047
 6971TIP3   OH242327   4.506   0.282  14.602 -0.5457  0.3024  0.0580
 6971TIP3    H142328   4.476   0.296  14.513 -0.2076  0.2940 -0.0582
 6971TIP3    H242329   4.427   0.258  14.651 -0.9101  1.3672 -0.0046
 6972TIP3   OH242330   2.458   1.585  14.598  0.7623 -0.2425  0.4468
 6972TIP3    H142331   2.365   1.603  14.591  1.4152  3.2889  0.2485
 6972TIP3    H242332   2.495   1.614  14.514  2.3192  0.2766  1.2901
 6973TIP3   OH242333   0.205   1.235   4.528 -0.4664 -0.4930  0.2516
 6973TIP3    H142334   0.295   1.212   4.550 -0.4671 -0.6943  0.0365
 6973TIP3    H242335   0.175   1.287   4.603 -0.3737 -0.9365  0.6006
 6974TIP3   OH242336   2.698   2.714   5.890  0.5546  0.0454  0.1446
 6974TIP3    H142337   2.765   2.753   5.834  0.9874  0.1513  0.7332
 6974TIP3    H242338   2.652   2.789   5.928  1.1643 -0.0041  1.0084
 6975TIP3   OH242339   0.448   2.128  15.240  0.0120 -0.2811  0.4821
 6975TIP3    H142340   0.512   2.182  15.194 -0.6821  0.6955  0.6455
 6975TIP3    H242341   0.370   2.183  15.245 -0.8508 -1.4784  0.2520
 6976TIP3   OH242342   0.833   3.080  17.026 -0.2451 -0.1619  0.0079
 6976TIP3    H142343   0.752   3.069  17.076 -1.8572  2.4089 -1.8743
 6976TIP3    H242344   0.900   3.096  17.092 -2.2229  2.6338  1.4638
 6977TIP3   OH242345   4.604   2.873   1.044  0.1803 -0.0913  0.2390
 6977TIP3    H142346   4.518   2.906   1.071 -1.3447 -2.1026 -2.0476
 6977TIP3    H242347   4.640   2.943   0.988  0.3458  1.0181  1.6928
 6978TIP3   OH242348   1.864   3.950   6.430 -0.1388 -0.3392  0.1344
 6978TIP3    H142349   1.942   3.984   6.387 -0.1658 -0.8493 -0.3280
 6978TIP3    H242350   1.791   3.992   6.384 -0.1471 -0.1718  0.2995
 6979TIP3   OH242351   5.764   5.281   0.942  0.0316  0.4279  0.5390
 6979TIP3    H142352   5.820   5.358   0.950  0.6909  0.0968 -0.7831
 6979TIP3    H242353   5.725   5.288   0.855  0.9515 -1.2590 -0.0502
 6980TIP3   OH242354   0.005   5.992  13.907  0.3573  0.0758 -0.2000
 6980TIP3    H142355   0.084   5.955  13.946 -0.5176 -1.2645  0.3257
 6980TIP3    H242356  -0.053   6.009  13.981 -0.5499 -0.6494 -0.7403
 6981TIP3   OH242357   4.048   0.626  16.675 -0.9134  0.0308  0.2951
 6981TIP3    H142358   3.997   0.547  16.653 -1.0483  0.6284 -1.5866
 6981TIP3    H242359   3.985   0.697  16.669 -0.7338  0.3321  1.7812
 6982TIP3   OH242360   0.703   5.512   6.623  0.2254 -0.7205  0.4342
 6982TIP3    H142361   0.784   5.549   6.589 -0.5661 -0.1664 -0.9093
 6982TIP3    H242362   0.685   5.437   6.566 -0.2287 -0.8131  0.6950
 6983TIP3   OH242363   1.677   4.888  15.094  0.0693 -0.6018 -0.2121
 6983TIP3    H142364   1.624   4.945  15.038 -0.3967 -0.0131  0.8049
 6983TIP3    H242365   1.662   4.921  15.183  2.8315  0.1514  0.0372
 6984TIP3   OH242366   2.417   0.206  16.922 -0.1500 -0.3221  0.0266
 6984TIP3    H142367   2.398   0.298  16.939 -0.5698 -0.6964  1.7112
 6984TIP3    H242368   2.460   0.176  17.002 -1.8125 -2.0893  0.2692
 6985TIP3   OH242369   6.251   2.146   0.442  0.2806 -0.1871 -0.1415
 6985TIP3    H142370   6.165   2.143   0.483  0.4734  0.6580  0.3413
 6985TIP3    H242371   6.312   2.131   0.514  0.5381 -0.6937 -0.4676
 6986TIP3   OH242372   0.117   2.868   1.837 -0.3195  0.7430 -0.0278
 6986TIP3    H142373   0.066   2.891   1.915  2.1697  1.3323  1.4886
 6986TIP3    H242374   0.164   2.949   1.815  0.9776 -0.1622 -0.6026
 6987TIP3   OH242375   2.724   1.775  10.681  0.0655 -0.2062 -0.0772
 6987TIP3    H142376   2.761   1.773  10.769  2.4120 -1.1412 -1.0437
 6987TIP3    H242377   2.629   1.779  10.695  0.4956  2.5853  2.4533
 6988TIP3   OH242378   1.902   5.855  13.417  0.3771 -0.0462 -0.0064
 6988TIP3    H142379   1.893   5.848  13.512 -1.5336  1.7269 -0.0090
 6988TIP3    H242380   1.834   5.797  13.382  0.7710 -0.3387 -0.2873
 6989TIP3   OH242381   1.097   5.769   0.156 -0.0302 -0.0567 -0.0775
 6989TIP3    H142382   1.160   5.707   0.119 -2.2071 -1.7265 -1.1196
 6989TIP3    H242383   1.071   5.825   0.082  0.1927  0.6049  0.3355
 6990TIP3   OH242384   1.037   6.647  13.970  0.6299 -0.1294 -0.5325
 6990TIP3    H142385   1.100   6.619  14.037 -0.5089 -1.5448 -0.0071
 6990TIP3    H242386   1.078   6.625  13.887  1.5886  0.6154 -0.2579
 6991TIP3   OH242387   2.950   3.154  17.105  0.3051  0.5431  0.2036
 6991TIP3    H142388   2.951   3.250  17.105  0.4693  0.5388 -0.5456
 6991TIP3    H242389   2.862   3.132  17.136  0.6982  0.9223  1.6484
 6992TIP3   OH242390   1.769   3.601   3.405 -0.7845 -0.1697 -0.3066
 6992TIP3    H142391   1.838   3.651   3.449  1.3234 -2.1174 -1.3105
 6992TIP3    H242392   1.811   3.567   3.326 -2.9289 -1.3218 -0.9664
 6993TIP3   OH242393   5.399   1.680  16.687 -0.1245  0.1052 -0.1887
 6993TIP3    H142394   5.347   1.628  16.748 -0.5200 -0.3412 -0.9068
 6993TIP3    H242395   5.403   1.627  16.608  0.0124  0.8854 -0.7076
 6994TIP3   OH242396   4.155   4.371  11.059  0.1194 -0.5102 -0.5639
 6994TIP3    H142397   4.064   4.368  11.029  0.2818 -0.2268 -1.0839
 6994TIP3    H242398   4.207   4.359  10.980  0.5408 -0.4649 -0.2966
 6995TIP3   OH242399   4.859   5.591  14.081 -0.1011 -0.4683  0.1506
 6995TIP3    H142400   4.944   5.590  14.126 -0.0343 -2.9924  0.0374
 6995TIP3    H242401   4.812   5.664  14.119  1.0567 -0.8013  2.2684
 6996TIP3   OH242402   2.373   3.874  16.916 -0.1528 -0.0460  0.0818
 6996TIP3    H142403   2.281   3.885  16.937 -0.6129 -1.2401 -1.2409
 6996TIP3    H242404   2.388   3.933  16.842  0.0751 -0.1347  0.0560
 6997TIP3   OH242405   6.196   3.688   2.262 -0.3794 -0.3266 -0.1703
 6997TIP3    H142406   6.182   3.778   2.235 -0.7157 -0.3773 -0.1701
 6997TIP3    H242407   6.222   3.643   2.181  1.6065  0.1464  0.1892
 6998TIP3   OH242408   6.522   3.954  15.810 -0.2197  0.1724  0.0004
 6998TIP3    H142409   6.485   4.041  15.820  0.1821  0.4957 -1.1934
 6998TIP3    H242410   6.452   3.894  15.837 -1.4128  0.7851 -1.6826
 6999TIP3   OH242411   3.414   4.931   4.108  0.0958  1.1666  0.3373
 6999TIP3    H142412   3.405   4.975   4.023  0.5298  0.7264  0.0610
 6999TIP3    H242413   3.374   4.991   4.171  0.1988  1.7073 -0.1146
 7000TIP3   OH242414   1.753   6.422   5.834 -0.5892 -0.2467 -0.8345
 7000TIP3    H142415   1.807   6.474   5.893 -2.5249  1.5820 -0.6445
 7000TIP3    H242416   1.816   6.382   5.773  1.2742 -0.9107  1.4645
 7001TIP3   OH242417   4.193   1.009   3.521 -0.2360 -0.0005  0.6206
 7001TIP3    H142418   4.115   0.957   3.504 -0.6829  0.3662  1.5362
 7001TIP3    H242419   4.161   1.090   3.561  0.6468 -0.1917  1.7743
 7002TIP3   OH242420   0.106   5.316  14.848  0.2368  0.1012  0.0748
 7002TIP3    H142421   0.072   5.299  14.760  0.0256 -0.5782  0.2781
 7002TIP3    H242422   0.197   5.286  14.845  0.2870  0.2630  0.0262
 7003TIP3   OH242423   5.229   5.556   0.810 -0.1876 -0.2510 -0.0908
 7003TIP3    H142424   5.278   5.481   0.842 -1.2113 -0.4313  1.0645
 7003TIP3    H242425   5.235   5.621   0.880  1.0806  0.9455 -1.2640
 7004TIP3   OH242426   4.650   5.629  14.435 -0.6341 -0.6936  0.5791
 7004TIP3    H142427   4.727   5.607  14.487 -1.1185 -2.7339  0.4757
 7004TIP3    H242428   4.685   5.665  14.354  0.2495 -2.6615  0.0746
 7005TIP3   OH242429   1.291   0.172  17.070 -0.0091 -0.0582  0.1881
 7005TIP3    H142430   1.373   0.159  17.119  0.1807 -1.0216 -0.3618
 7005TIP3    H242431   1.306   0.251  17.019  0.8128 -0.5577 -0.3630
 7006TIP3   OH242432   3.923   1.483   4.195  0.2256  0.0625 -0.3767
 7006TIP3    H142433   3.840   1.436   4.191 -0.3735  1.0727  0.2084
 7006TIP3    H242434   3.899   1.575   4.191  1.1590  0.4400  2.1184
 7007TIP3   OH242435   3.196   3.070   5.184 -0.0637 -0.3833 -0.0640
 7007TIP3    H142436   3.160   3.020   5.257  1.0554 -0.7015  0.2720
 7007TIP3    H242437   3.202   3.159   5.217  1.5676 -0.7455  0.6508
 7008TIP3   OH242438   3.008   2.638  11.347  0.5393  0.2275 -0.2418
 7008TIP3    H142439   3.030   2.627  11.439  1.9592 -1.0808 -0.7339
 7008TIP3    H242440   2.993   2.550  11.314  1.6105  0.5434 -1.6438
 7009TIP3   OH242441   1.599   3.996  16.891  1.0462 -0.5308  0.3028
 7009TIP3    H142442   1.649   3.993  16.973 -0.9027 -1.2085  1.5154
 7009TIP3    H242443   1.582   4.089  16.877  2.0189 -0.3534  0.2609
 7010TIP3   OH242444   5.920   2.500  16.660  0.1891  0.5754  0.2984
 7010TIP3    H142445   6.010   2.518  16.686  0.4076 -1.1273  0.7797
 7010TIP3    H242446   5.870   2.506  16.742  0.4868 -2.3071  0.7293
 7011TIP3   OH242447   0.631   0.892   0.522  0.1520  0.6560 -0.0141
 7011TIP3    H142448   0.656   0.862   0.434  0.5664  0.7911  0.0540
 7011TIP3    H242449   0.702   0.861   0.579 -0.2820  0.2845  0.3251
 7012TIP3   OH242450   6.163   2.371   4.269  0.6053 -0.5164 -0.3084
 7012TIP3    H142451   6.225   2.442   4.253 -0.3665  0.7116  1.2042
 7012TIP3    H242452   6.217   2.299   4.303  1.3706  0.0530 -0.3060
 7013TIP3   OH242453   6.682   6.213   5.458 -0.0214  0.7865 -0.3740
 7013TIP3    H142454   6.595   6.200   5.497  0.0495  1.4214  0.0012
 7013TIP3    H242455   6.675   6.297   5.412 -0.0248  0.1718 -1.5154
 7014TIP3   OH242456   0.809   0.023  15.344  0.4892 -0.5440 -0.3295
 7014TIP3    H142457   0.832   0.092  15.282 -0.0465 -1.3619 -1.4410
 7014TIP3    H242458   0.861  -0.053  15.317  0.0687 -0.9787  0.0580
 7015TIP3   OH242459   1.752   4.014   2.470  0.7181 -0.3445 -0.1383
 7015TIP3    H142460   1.715   3.992   2.385 -0.2057  0.5456  0.0175
 7015TIP3    H242461   1.676   4.014   2.530  1.1960  0.0332  0.4741
 7016TIP3   OH242462   6.605   0.564  16.076 -0.0247  0.1315  0.0720
 7016TIP3    H142463   6.538   0.602  16.132 -0.2805 -0.1155 -0.0704
 7016TIP3    H242464   6.682   0.620  16.091 -0.6921  1.3361 -0.8946
 7017TIP3   OH242465   1.230   1.633   3.579  0.0136  0.1288 -0.1424
 7017TIP3    H142466   1.263   1.553   3.620 -0.4754 -0.8331 -1.6082
 7017TIP3    H242467   1.308   1.676   3.544  0.0069 -0.8873 -1.4155
 7018TIP3   OH242468   1.334   3.739  15.565 -0.6361 -0.4298  0.1894
 7018TIP3    H142469   1.393   3.748  15.490 -0.8134 -1.5558 -0.0983
 7018TIP3    H242470   1.271   3.672  15.537 -0.9419 -0.5624  1.1895
 7019TIP3   OH242471   2.482   0.198   1.208 -0.0453 -0.0473 -0.1306
 7019TIP3    H142472   2.530   0.223   1.128  1.3898  0.4340  0.8660
 7019TIP3    H242473   2.548   0.162   1.266 -0.9714  0.1811  1.0927
 7020TIP3   OH242474   1.657   2.583   3.816  0.5205  0.2702 -0.1164
 7020TIP3    H142475   1.569   2.592   3.851  0.4474  2.2169 -0.7461
 7020TIP3    H242476   1.665   2.490   3.796 -1.5467  0.1351 -0.4424
 7021TIP3   OH242477   5.207   4.833   5.437 -0.0972  0.3601  0.0453
 7021TIP3    H142478   5.125   4.882   5.426 -1.3454 -1.0650  2.5766
 7021TIP3    H242479   5.213   4.780   5.358 -0.8339  1.5730 -0.8552
 7022TIP3   OH242480   6.342   5.143  11.640 -0.2706  0.1602 -0.0879
 7022TIP3    H142481   6.260   5.099  11.663  0.2694  0.2898  2.2012
 7022TIP3    H242482   6.392   5.145  11.722  0.9573  2.3654 -0.8496
 7023TIP3   OH242483   2.456   5.853  12.674 -0.0609  0.2121 -0.3105
 7023TIP3    H142484   2.479   5.806  12.754  0.5275  0.7090 -0.1797
 7023TIP3    H242485   2.538   5.859  12.625 -0.3711  0.1094 -0.8495
 7024TIP3   OH242486   1.212   3.319  13.903 -0.3799 -0.5455  0.1654
 7024TIP3    H142487   1.206   3.270  13.821 -1.0735  0.8127 -0.6072
 7024TIP3    H242488   1.277   3.388  13.886 -0.8093 -0.0202  0.6296
 7025TIP3   OH242489   5.833   6.207  13.751  0.8064 -0.3844  0.0754
 7025TIP3    H142490   5.882   6.166  13.679  0.7691  1.2077 -0.8691
 7025TIP3    H242491   5.754   6.154  13.759  1.2675 -1.1628 -0.4128
 7026TIP3   OH242492   3.644   0.069   3.886  0.6996 -0.6816  0.2737
 7026TIP3    H142493   3.631   0.120   3.807  0.2679 -2.1535 -0.6183
 7026TIP3    H242494   3.644   0.134   3.957  1.5839  0.7001 -0.9572
 7027TIP3   OH242495   4.478   4.198  15.914 -0.4990  0.1570  0.1916
 7027TIP3    H142496   4.436   4.282  15.934  0.0001  0.6122 -0.6657
 7027TIP3    H242497   4.439   4.137  15.976 -1.9449  0.7118 -0.1491
 7028TIP3   OH242498   0.058   4.265  17.023 -0.4571  0.1045 -0.2662
 7028TIP3    H142499   0.081   4.324  16.951 -1.0481  0.8801  0.1787
 7028TIP3    H242500   0.140   4.252  17.071 -0.5304  1.3658  0.2136
 7029TIP3   OH242501   2.578   1.358   1.364  0.4702  0.2487  0.0691
 7029TIP3    H142502   2.580   1.331   1.456 -0.2550  0.2874  0.1034
 7029TIP3    H242503   2.517   1.296   1.323 -0.7359  1.4625  0.0195
 7030TIP3   OH242504   1.076   2.376   5.590  0.4865  0.3623  0.5237
 7030TIP3    H142505   1.137   2.359   5.662  1.1753  2.5751  0.4789
 7030TIP3    H242506   1.106   2.458   5.551 -0.7954 -0.0252 -1.3402
 7031TIP3   OH242507   2.873   0.150   3.257  0.1023 -0.2258 -0.2059
 7031TIP3    H142508   2.788   0.194   3.256 -0.4713 -1.3215 -1.0830
 7031TIP3    H242509   2.937   0.221   3.246 -0.6340  0.7022  1.3277
 7032TIP3   OH242510   6.160   2.830   2.655 -0.8775 -0.5309  0.2545
 7032TIP3    H142511   6.195   2.776   2.726 -1.0172 -1.6023 -0.4932
 7032TIP3    H242512   6.224   2.901   2.645  0.3324 -1.6780 -0.1299
 7033TIP3   OH242513   5.918   1.625  13.916 -0.5357 -0.2216  0.5798
 7033TIP3    H142514   5.860   1.562  13.958  3.2201 -4.4786 -0.1830
 7033TIP3    H242515   5.973   1.658  13.987 -0.4938 -0.1416  0.5111
 7034TIP3   OH242516   4.688   2.801   1.301  0.2771  0.3789 -0.1645
 7034TIP3    H142517   4.699   2.706   1.311 -0.6960  0.1282 -1.3140
 7034TIP3    H242518   4.651   2.811   1.213 -1.6323  1.6473  0.7432
 7035TIP3   OH242519   4.494   0.287   1.599  0.3122 -0.7264  0.1208
 7035TIP3    H142520   4.574   0.283   1.547 -1.2660 -0.4878 -2.4227
 7035TIP3    H242521   4.491   0.204   1.646  0.9009 -1.7409 -1.5814
 7036TIP3   OH242522   6.620   3.232  15.772  0.2358 -0.0748 -0.1678
 7036TIP3    H142523   6.525   3.223  15.761  0.3644 -0.1887 -1.2164
 7036TIP3    H242524   6.653   3.142  15.769  0.7816  0.1832 -3.6998
 7037TIP3   OH242525   2.578   0.035  11.460 -0.1235 -0.4615 -0.1409
 7037TIP3    H142526   2.652   0.022  11.519  2.1981  0.6401 -2.7257
 7037TIP3    H242527   2.513   0.080  11.514  1.7278  0.0772  1.7138
 7038TIP3   OH242528   1.820   4.350   4.915 -0.2580  0.2736 -0.2040
 7038TIP3    H142529   1.734   4.381   4.941 -0.4908 -1.0583  0.6566
 7038TIP3    H242530   1.820   4.354   4.819 -1.2065  0.4380 -0.1927
 7039TIP3   OH242531   5.221   1.251  12.362 -0.5442 -0.2496 -0.7863
 7039TIP3    H142532   5.237   1.173  12.308 -1.2220 -1.3971  0.6185
 7039TIP3    H242533   5.136   1.235  12.402  0.0523  0.4561  0.8048
 7040TIP3   OH242534   3.729   3.556  15.804  0.1391  0.3302  0.0434
 7040TIP3    H142535   3.635   3.553  15.822 -0.0427 -0.5222 -0.9735
 7040TIP3    H242536   3.735   3.577  15.711  0.8672 -2.3177 -0.5599
 7041TIP3   OH242537   5.971   6.525   0.189 -0.1899  0.6012  0.3670
 7041TIP3    H142538   5.988   6.431   0.199 -1.8690  0.3440  1.0831
 7041TIP3    H242539   5.980   6.540   0.095 -1.1397 -0.5602  0.0650
 7042TIP3   OH242540   4.146   3.437   5.442 -0.7770  0.0490 -0.2779
 7042TIP3    H142541   4.097   3.370   5.488  0.5526 -1.9204 -1.6192
 7042TIP3    H242542   4.223   3.453   5.496 -0.6401 -0.1736 -0.4069
 7043TIP3   OH242543   2.962   0.022   0.593 -0.0070 -0.2436  0.5547
 7043TIP3    H142544   2.997  -0.028   0.667 -0.2331 -0.6508  0.3873
 7043TIP3    H242545   2.870  -0.005   0.588 -0.2954  0.6708  0.8651
 7044TIP3   OH242546   1.321   4.156   1.267  0.9073 -0.1402 -0.6025
 7044TIP3    H142547   1.324   4.131   1.174  0.4014  0.2707 -0.7351
 7044TIP3    H242548   1.407   4.133   1.301  0.9134 -0.7839 -1.0490
 7045TIP3   OH242549   0.926   5.742  10.632 -0.1223  0.1156 -0.3494
 7045TIP3    H142550   0.951   5.820  10.584 -1.4136 -0.0091 -1.2368
 7045TIP3    H242551   0.831   5.737  10.623 -0.0896 -1.3870 -0.0561
 7046TIP3   OH242552   0.449   2.658   3.112 -0.4747  0.2299 -0.3371
 7046TIP3    H142553   0.464   2.699   3.027  2.2920  0.3225  0.1663
 7046TIP3    H242554   0.475   2.724   3.176  0.4244 -0.9308  0.5319
 7047TIP3   OH242555   2.700   1.516   5.841  0.2628 -0.4597  0.0710
 7047TIP3    H142556   2.641   1.588   5.863  2.5310  2.0578 -1.7016
 7047TIP3    H242557   2.780   1.535   5.890  1.0433 -1.5162 -0.7624
 7048TIP3   OH242558   5.881   4.351  11.108  0.2286  0.4425 -0.3036
 7048TIP3    H142559   5.923   4.435  11.089  1.3932  0.1751  0.9850
 7048TIP3    H242560   5.896   4.297  11.031  1.1885  0.7695 -0.3414
 7049TIP3   OH242561   4.256   6.754  14.117 -0.5274  0.1708  0.6114
 7049TIP3    H142562   4.235   6.708  14.198  0.0204  0.0740  0.6993
 7049TIP3    H242563   4.317   6.696  14.072  0.3469  0.9073  0.8305
 7050TIP3   OH242564   3.325   4.724   2.697  0.1463 -0.2011  0.1331
 7050TIP3    H142565   3.280   4.680   2.770  1.0563 -0.3087  0.6324
 7050TIP3    H242566   3.416   4.697   2.706  0.3975  0.4216 -0.5865
 7051TIP3   OH242567   6.524   0.477   6.007 -0.3325  0.4323 -0.3031
 7051TIP3    H142568   6.457   0.433   5.955  1.1435 -1.6859 -0.4671
 7051TIP3    H242569   6.576   0.527   5.943 -0.6460  0.6293 -0.4037
 7052TIP3   OH242570   4.897   5.081   1.707  0.6497  0.3941  0.3142
 7052TIP3    H142571   4.934   5.003   1.665 -1.0823 -1.1971  1.6926
 7052TIP3    H242572   4.966   5.147   1.699  2.6078 -1.6062  0.1665
 7053TIP3   OH242573   0.316   0.126  15.882  0.3303 -0.2611  0.8707
 7053TIP3    H142574   0.412   0.132  15.886  0.3056  0.4965  0.4191
 7053TIP3    H242575   0.298   0.078  15.802  0.2932  1.2322 -0.0460
 7054TIP3   OH242576   1.379   2.296  12.254 -0.2815  0.3596  0.4519
 7054TIP3    H142577   1.470   2.276  12.277 -0.1526  0.3621 -0.0497
 7054TIP3    H242578   1.344   2.212  12.222  0.4920  1.0769 -2.4190
 7055TIP3   OH242579   1.294   1.107  12.563  0.4070  0.3282  0.0803
 7055TIP3    H142580   1.259   1.138  12.480 -0.8245  0.3713  0.6010
 7055TIP3    H242581   1.345   1.181  12.597  0.8682  0.3256 -0.6107
 7056TIP3   OH242582   2.533   6.662  15.996 -0.3427 -0.0184 -0.2058
 7056TIP3    H142583   2.572   6.582  16.034 -0.3785 -0.0923 -0.3236
 7056TIP3    H242584   2.572   6.733  16.047 -1.0129 -0.1589  0.5101
 7057TIP3   OH242585   5.804   0.715  11.674  0.3522  0.3704 -0.3059
 7057TIP3    H142586   5.742   0.692  11.744  1.0468 -0.2593  0.1066
 7057TIP3    H242587   5.878   0.656  11.687  0.8953  0.8897 -1.0077
 7058TIP3   OH242588   3.875   0.876  12.076  0.4728 -0.5163  0.0675
 7058TIP3    H142589   3.827   0.952  12.041 -1.0834 -0.9745  1.1608
 7058TIP3    H242590   3.966   0.891  12.050 -0.4125 -0.2334 -3.1718
 7059TIP3   OH242591   3.939   5.618   3.784 -0.4628 -0.8068 -0.0432
 7059TIP3    H142592   4.005   5.687   3.775 -0.7188 -0.6989 -1.1687
 7059TIP3    H242593   3.988   5.536   3.780 -0.5657 -0.7925 -2.9690
 7060TIP3   OH242594   4.874   5.959  12.262 -0.0061 -0.0845  0.1392
 7060TIP3    H142595   4.822   6.037  12.237  0.8021  0.8264  1.2487
 7060TIP3    H242596   4.816   5.911  12.321 -0.2446  0.0398  0.0117
 7061TIP3   OH242597   2.999   4.750  12.342 -0.5323 -0.0737  0.1424
 7061TIP3    H142598   3.021   4.677  12.285  0.6667  1.0705 -0.8688
 7061TIP3    H242599   3.065   4.748  12.410 -0.5134  0.0662  0.1282
 7062TIP3   OH242600   6.036   4.242   1.983  0.1551 -0.2605 -0.3271
 7062TIP3    H142601   6.035   4.178   2.054  0.1500  2.0870  1.8200
 7062TIP3    H242602   5.945   4.271   1.976  0.6467  1.5410  0.5878
 7063TIP3   OH242603   4.037   0.066   2.593 -0.0053  0.1929  0.4399
 7063TIP3    H142604   4.021   0.158   2.573 -1.1532  0.0314  0.5804
 7063TIP3    H242605   4.059   0.027   2.509  0.1660  0.5269  0.3281
 7064TIP3   OH242606   6.347   0.106   2.675  0.4431 -0.1108 -0.0377
 7064TIP3    H142607   6.354   0.178   2.738  2.4199 -0.2488 -0.0730
 7064TIP3    H242608   6.308   0.034   2.725  0.9778  0.1215  0.7246
 7065TIP3   OH242609   0.902   6.131   2.427 -0.3013  0.0784 -0.1488
 7065TIP3    H142610   0.989   6.157   2.396 -0.4845  0.4090 -0.3966
 7065TIP3    H242611   0.910   6.038   2.447  0.0692  0.0741 -0.3097
 7066TIP3   OH242612   5.899   6.260  15.936  0.3416 -0.1263 -0.3548
 7066TIP3    H142613   5.969   6.198  15.918 -0.0419 -0.6836  0.0750
 7066TIP3    H242614   5.830   6.208  15.978 -1.1777 -0.0222 -2.5855
 7067TIP3   OH242615   6.272   5.128  17.206  0.2606  0.8297 -0.0057
 7067TIP3    H142616   6.291   5.053  17.262 -0.9662 -0.0044 -0.6769
 7067TIP3    H242617   6.208   5.179  17.255  0.5164  1.0288  0.1176
 7068TIP3   OH242618   2.197   1.415  12.917 -0.2517 -0.1276  0.3059
 7068TIP3    H142619   2.275   1.465  12.939 -1.7822  2.6441 -0.2221
 7068TIP3    H242620   2.183   1.431  12.823 -1.0821 -1.1027  0.2481
 7069TIP3   OH242621   2.037   1.819   4.639  0.4039  0.0328 -0.1109
 7069TIP3    H142622   1.980   1.894   4.624  0.3139  0.0772  0.4198
 7069TIP3    H242623   2.001   1.777   4.718  0.7102 -0.3164 -0.1550
 7070TIP3   OH242624   3.456   3.907  12.313 -0.0846 -0.2455 -0.4259
 7070TIP3    H142625   3.405   3.909  12.232 -0.8330  0.6407  0.0581
 7070TIP3    H242626   3.511   3.985  12.309  1.3791 -1.2789 -1.0186
 7071TIP3   OH242627   6.074   5.371  12.125 -0.6239  0.3311 -0.2932
 7071TIP3    H142628   6.138   5.300  12.123  2.0703  2.6818 -0.7344
 7071TIP3    H242629   6.019   5.356  12.049  0.9713 -0.3797 -1.3265
 7072TIP3   OH242630   5.927   1.969   1.406 -0.5705  0.2199  0.6606
 7072TIP3    H142631   5.939   1.892   1.350  0.8037 -0.5336  1.9322
 7072TIP3    H242632   5.993   2.032   1.374 -2.0981  1.1483 -0.7758
 7073TIP3   OH242633   1.421   1.441   5.571  0.1742 -0.8168 -0.0581
 7073TIP3    H142634   1.497   1.415   5.521  0.6801 -2.8408  1.6941
 7073TIP3    H242635   1.393   1.361   5.616 -1.5333  0.4384  1.1808
 7074TIP3   OH242636   5.353   0.905   2.083  0.1094 -0.0707 -0.1195
 7074TIP3    H142637   5.271   0.893   2.130 -1.0891  0.1885 -2.0747
 7074TIP3    H242638   5.335   0.872   1.995  1.4949  1.7451 -1.1305
 7075TIP3   OH242639   2.395   2.626  12.035  0.6261 -0.0939 -0.3577
 7075TIP3    H142640   2.432   2.567  12.100  0.0373 -1.2040 -1.0121
 7075TIP3    H242641   2.413   2.584  11.951 -0.1352  0.4587 -0.8068
 7076TIP3   OH242642   4.782   3.674   1.571 -0.4616  0.1454 -0.0086
 7076TIP3    H142643   4.839   3.695   1.645 -2.6022  0.0451  1.7590
 7076TIP3    H242644   4.748   3.759   1.542 -1.5763 -0.0014  0.8092
 7077TIP3   OH242645   3.062   3.979   3.651  0.6733  0.3956 -0.3982
 7077TIP3    H142646   2.970   3.959   3.633  1.3284 -2.1993 -0.9473
 7077TIP3    H242647   3.074   3.953   3.743  0.8419  0.8415 -0.2934
 7078TIP3   OH242648   6.490   1.219   1.746  0.1082 -0.3090  0.1214
 7078TIP3    H142649   6.519   1.131   1.767  1.9500  0.6588  1.8374
 7078TIP3    H242650   6.492   1.223   1.650 -0.2643 -2.1799  0.0167
 7079TIP3   OH242651   1.300   2.038  12.559 -0.4615  0.6343 -0.3184
 7079TIP3    H142652   1.278   1.992  12.478 -0.5505  2.3749 -1.3006
 7079TIP3    H242653   1.219   2.040  12.609 -0.6634  0.4561 -0.6426
 7080TIP3   OH242654   2.855   1.286  16.547  0.2347 -0.2039  0.3168
 7080TIP3    H142655   2.869   1.380  16.536  0.7036 -0.1717  1.2176
 7080TIP3    H242656   2.894   1.264  16.631  0.3228 -1.2521  0.0195
 7081TIP3   OH242657   6.375   0.032   4.980  0.3556  0.4851 -0.5066
 7081TIP3    H142658   6.302   0.092   4.995  1.4936  2.1838 -1.6774
 7081TIP3    H242659   6.433   0.079   4.920  2.7987 -0.5479  1.0130
 7082TIP3   OH242660   4.603   3.039  15.012  0.7931  0.0017 -0.6778
 7082TIP3    H142661   4.665   2.967  15.001 -0.4979 -1.0391 -1.2618
 7082TIP3    H242662   4.632   3.105  14.949  2.6935  0.5161  0.6920
 7083TIP3   OH242663   0.408   2.080   5.852 -0.2670  0.5688  0.6387
 7083TIP3    H142664   0.474   2.107   5.916 -0.3711  1.9002  0.1911
 7083TIP3    H242665   0.395   1.987   5.869  0.3581  0.7153  1.9777
 7084TIP3   OH242666   3.067   1.322  14.580  0.3754  0.0957 -0.1065
 7084TIP3    H142667   3.152   1.286  14.555  1.2744  0.6844  1.9833
 7084TIP3    H242668   3.087   1.385  14.649 -1.7716  0.1325  0.5117
 7085TIP3   OH242669   2.770   4.956  17.231 -0.8738  0.2026  0.8839
 7085TIP3    H142670   2.761   5.019  17.302 -2.2140 -1.3880  2.1685
 7085TIP3    H242671   2.680   4.932  17.209 -0.3709 -1.8570  0.9720
 7086TIP3   OH242672   3.023   5.198  15.892  0.1661  0.3170  0.2374
 7086TIP3    H142673   3.029   5.277  15.945 -1.0182  0.0076  0.8448
 7086TIP3    H242674   2.999   5.229  15.804  2.0449  0.8217 -0.1279
 7087TIP3   OH242675   1.580   0.252   4.687  0.9179 -0.0828  0.1894
 7087TIP3    H142676   1.643   0.180   4.693 -0.5668 -1.5196 -0.9189
 7087TIP3    H242677   1.586   0.281   4.596  0.2487  0.0063  0.1714
 7088TIP3   OH242678   4.286   2.196   2.419 -0.2909  0.1953 -0.5925
 7088TIP3    H142679   4.357   2.261   2.424  0.1735 -0.1098 -2.5576
 7088TIP3    H242680   4.311   2.128   2.481  1.6169 -0.3181 -1.8574
 7089TIP3   OH242681   1.192   3.710  14.600  0.5734 -0.1643  0.0770
 7089TIP3    H142682   1.198   3.800  14.632  0.7346  0.0939 -0.6701
 7089TIP3    H242683   1.145   3.663  14.669  2.0818  0.0883  1.3232
 7090TIP3   OH242684   5.180   6.121   3.688  0.7882 -0.3291 -0.1911
 7090TIP3    H142685   5.090   6.092   3.702  0.8223  0.1588  1.0919
 7090TIP3    H242686   5.171   6.212   3.661  0.7233 -1.2502 -3.4713
 7091TIP3   OH242687   6.066   4.787  11.791  0.0970 -0.1003 -0.0996
 7091TIP3    H142688   6.013   4.866  11.804  0.5458 -0.0397  1.5623
 7091TIP3    H242689   6.150   4.809  11.831  0.6095 -1.0135 -0.6711
 7092TIP3   OH242690   5.372   4.737  15.580  0.3737  0.4428  0.4931
 7092TIP3    H142691   5.356   4.785  15.661 -0.4750 -0.0291  0.6146
 7092TIP3    H242692   5.454   4.690  15.595 -1.1372 -1.7760  2.1016
 7093TIP3   OH242693   6.531   6.466   0.441 -0.0463 -0.3554 -0.2984
 7093TIP3    H142694   6.518   6.508   0.526  0.3099  2.1155 -1.4438
 7093TIP3    H242695   6.450   6.417   0.426 -0.3142 -0.4021  1.2186
 7094TIP3   OH242696   0.623   3.016   4.728 -0.1566 -0.6359  0.3662
 7094TIP3    H142697   0.589   3.081   4.790  1.3384  0.2283  0.3105
 7094TIP3    H242698   0.600   2.932   4.767 -0.4815 -0.0921  1.3870
 7095TIP3   OH242699   2.214   0.063  16.463  0.2793  0.1580 -1.1841
 7095TIP3    H142700   2.305   0.064  16.433  0.2323 -0.1207 -1.3404
 7095TIP3    H242701   2.219   0.070  16.558  0.4420  0.7794 -1.2363
 7096TIP3   OH242702   5.985   5.156   1.764  0.1296  0.0973 -0.4845
 7096TIP3    H142703   5.954   5.118   1.847  1.4641 -1.1276 -0.5297
 7096TIP3    H242704   6.081   5.150   1.769  0.2159 -0.2202 -2.2293
 7097TIP3   OH242705   5.319   6.713  14.869  0.1639  0.1811  0.5887
 7097TIP3    H142706   5.399   6.670  14.840 -0.4580  0.4305 -1.6016
 7097TIP3    H242707   5.251   6.646  14.858 -0.2956  0.7100  0.1930
 7098TIP3   OH242708   2.322   5.304   3.507 -0.2522  0.1297 -0.0814
 7098TIP3    H142709   2.348   5.217   3.479  2.0410  1.0327 -0.8509
 7098TIP3    H242710   2.286   5.346   3.429  1.8009  1.0175 -0.5894
 7099TIP3   OH242711   5.662   6.447   0.345  0.8330  0.0261 -0.4402
 7099TIP3    H142712   5.653   6.352   0.349 -0.1449  0.0758 -1.4175
 7099TIP3    H242713   5.745   6.461   0.298  0.3987 -0.3411 -1.3343
 7100TIP3   OH242714   1.893   5.842   5.079  0.2936  0.1127  0.2557
 7100TIP3    H142715   1.821   5.784   5.105 -1.8442  1.4210 -2.4851
 7100TIP3    H242716   1.855   5.930   5.083  2.0656  0.9201 -0.2107
 7101TIP3   OH242717   0.555   0.068  11.227 -0.1094  0.2814  0.2253
 7101TIP3    H142718   0.555   0.135  11.159  1.8162  1.7777  1.6385
 7101TIP3    H242719   0.539   0.116  11.309  1.4812 -0.8974  1.2719
 7102TIP3   OH242720   1.588   1.106   3.229  1.0792 -0.2253  0.1105
 7102TIP3    H142721   1.556   1.017   3.232  2.5303 -0.7992 -0.8045
 7102TIP3    H242722   1.577   1.133   3.138  2.5521 -0.2083 -0.0752
 7103TIP3   OH242723   5.877   0.968  11.006  0.3317  0.1057  0.7586
 7103TIP3    H142724   5.959   0.923  11.027  0.7106 -0.1614 -1.2102
 7103TIP3    H242725   5.808   0.908  11.034  0.8008 -0.1449  1.3885
 7104TIP3   OH242726   2.769   2.856   4.079  0.5069  0.2712 -0.2239
 7104TIP3    H142727   2.757   2.852   4.173 -1.4198  1.8755 -0.3567
 7104TIP3    H242728   2.720   2.781   4.045 -0.4006  0.7855 -0.0631
 7105TIP3   OH242729   1.186   4.418   6.204 -0.1288 -0.5507  0.0821
 7105TIP3    H142730   1.119   4.485   6.218  0.2986  0.0019 -0.4904
 7105TIP3    H242731   1.260   4.446   6.257  0.2545 -0.2672 -0.5979
 7106TIP3   OH242732   0.611   1.206   0.213  0.6867  0.6782  0.4018
 7106TIP3    H142733   0.528   1.247   0.192  0.3020 -0.5929 -0.6085
 7106TIP3    H242734   0.654   1.193   0.129  2.0751  1.6586  0.9460
 7107TIP3   OH242735   3.752   4.925   3.840 -0.1013  0.1053  0.1238
 7107TIP3    H142736   3.834   4.892   3.876  0.2687  0.1115 -0.6798
 7107TIP3    H242737   3.696   4.848   3.832  0.3645 -0.1541 -0.7170
 7108TIP3   OH242738   2.399   4.621  11.846  0.5712 -0.3421 -0.6213
 7108TIP3    H142739   2.436   4.538  11.878 -0.0442  0.3095  1.8924
 7108TIP3    H242740   2.463   4.687  11.872  0.7016  0.0930 -1.9763
 7109TIP3   OH242741   1.632   0.050   4.152  0.1415 -0.2234  0.1483
 7109TIP3    H142742   1.584  -0.032   4.145  1.5308 -1.0356  0.0591
 7109TIP3    H242743   1.569   0.117   4.123 -0.4856 -1.4213 -1.3290
 7110TIP3   OH242744   5.155   0.869  14.046  0.4131 -0.0149  0.9952
 7110TIP3    H142745   5.099   0.890  14.121  0.1046  2.7291  0.0672
 7110TIP3    H242746   5.243   0.894  14.074  0.1927  1.7069  0.2374
 7111TIP3   OH242747   1.902   1.428  12.827 -0.0437 -0.5161 -0.0419
 7111TIP3    H142748   1.993   1.416  12.854 -0.1381 -1.7577 -0.2462
 7111TIP3    H242749   1.903   1.411  12.732 -0.4109 -0.1102 -0.1184
 7112TIP3   OH242750   0.765   2.386  13.353  0.0863 -0.0136 -0.0482
 7112TIP3    H142751   0.694   2.337  13.312  0.1206  0.3252 -0.5203
 7112TIP3    H242752   0.748   2.380  13.447 -0.3667 -0.2335 -0.1440
 7113TIP3   OH242753   5.148   1.931   4.997 -0.2438 -0.2840  0.2320
 7113TIP3    H142754   5.078   1.875   5.030 -1.0208  0.3434 -0.3427
 7113TIP3    H242755   5.159   1.997   5.066 -0.1885 -0.4092  0.3431
 7114TIP3   OH242756   2.085   1.950   6.245 -0.1673 -0.0890 -0.3637
 7114TIP3    H142757   2.178   1.927   6.234 -0.0794 -1.1199  2.1763
 7114TIP3    H242758   2.081   1.994   6.329 -1.6778  1.9989 -1.4768
 7115TIP3   OH242759   2.945   0.527  12.191  0.4687 -0.1415  0.1768
 7115TIP3    H142760   2.908   0.577  12.118  0.2321  0.3999  0.6667
 7115TIP3    H242761   2.909   0.568  12.269  1.7708  0.1141  0.6456
 7116TIP3   OH242762   3.551   0.726   3.180 -0.3619  0.5707  0.2475
 7116TIP3    H142763   3.587   0.638   3.173 -0.3586  0.6071 -0.2380
 7116TIP3    H242764   3.484   0.730   3.111  0.2451  1.2413 -0.3108
 7117TIP3   OH242765   1.808   0.137  16.946  0.0908  0.4325  0.1735
 7117TIP3    H142766   1.846   0.069  16.891  0.2071  2.0078 -1.7863
 7117TIP3    H242767   1.818   0.106  17.036 -1.2482 -2.8061 -0.7466
 7118TIP3   OH242768   0.294   4.242   3.210 -0.2943  0.1989 -0.1029
 7118TIP3    H142769   0.257   4.254   3.297 -0.4499  1.8063 -0.3803
 7118TIP3    H242770   0.374   4.193   3.224 -1.4400 -1.4962  0.7146
 7119TIP3   OH242771   5.682   6.645   3.534 -0.1719  0.1622  0.1428
 7119TIP3    H142772   5.741   6.711   3.570  0.6492 -0.9623  0.9041
 7119TIP3    H242773   5.594   6.680   3.550  0.2544  1.0870  0.4801
 7120TIP3   OH242774   3.076   1.687  16.562  0.1825 -0.5179 -0.0429
 7120TIP3    H142775   3.045   1.750  16.627 -0.9440 -0.8266 -0.2712
 7120TIP3    H242776   3.166   1.668  16.588  0.3167  0.6806  0.4125
 7121TIP3   OH242777   1.063   6.730  12.755 -0.0796  1.1212 -0.3535
 7121TIP3    H142778   1.043   6.640  12.730 -0.7053  1.5244 -1.3261
 7121TIP3    H242779   1.159   6.733  12.758 -0.0697  0.2708  0.2735
 7122TIP3   OH242780   2.611   1.202   2.957  0.4461  0.0334 -0.3827
 7122TIP3    H142781   2.707   1.200   2.960  0.4470  1.4690  1.9315
 7122TIP3    H242782   2.588   1.293   2.977 -1.3970 -0.2567 -1.0788
 7123TIP3   OH242783   4.431   6.757  14.424 -0.0050 -0.1511 -0.1196
 7123TIP3    H142784   4.341   6.727  14.436  0.7944 -1.7850  1.9654
 7123TIP3    H242785   4.478   6.681  14.389  0.6737  0.5592 -0.7752
 7124TIP3   OH242786   1.614   4.657   3.299  0.6902 -0.3215 -0.0227
 7124TIP3    H142787   1.559   4.729   3.330  0.8739 -0.0881 -0.2403
 7124TIP3    H242788   1.610   4.592   3.370 -0.0997 -0.4313 -0.1685
 7125TIP3   OH242789   3.160   5.077   2.738 -0.4542  0.1501  0.5008
 7125TIP3    H142790   3.236   5.066   2.682 -0.6161 -1.3765  0.5565
 7125TIP3    H242791   3.094   5.117   2.681  0.7032  2.5067  0.7445
 7126TIP3   OH242792   1.474   0.590   2.312  0.0861  0.8791  0.3309
 7126TIP3    H142793   1.440   0.629   2.231  1.5199 -0.6571 -1.0511
 7126TIP3    H242794   1.525   0.514   2.282  0.9815  0.5417  2.6522
 7127TIP3   OH242795   1.164   0.163   3.922 -0.2782  0.0692  0.3499
 7127TIP3    H142796   1.120   0.186   3.840 -0.1092  0.9972  0.5139
 7127TIP3    H242797   1.184   0.070   3.914 -0.4178  0.1206 -0.5894
 7128TIP3   OH242798   6.552   6.350  13.338 -0.3056 -0.0460 -0.2299
 7128TIP3    H142799   6.545   6.432  13.289  1.3373 -0.3322 -1.0011
 7128TIP3    H242800   6.474   6.301  13.314  0.3346 -0.0634 -2.4146
 7129TIP3   OH242801   1.939   3.539   3.872 -0.3825 -0.0768 -0.0323
 7129TIP3    H142802   1.954   3.512   3.782  1.1466 -0.9914  0.4649
 7129TIP3    H242803   2.016   3.591   3.895 -1.0236  0.6251  0.5742
 7130TIP3   OH242804   2.749   6.098   1.134  0.2179  0.9238 -0.5223
 7130TIP3    H142805   2.729   6.186   1.168  2.4844  1.1047  0.3896
 7130TIP3    H242806   2.765   6.045   1.212  0.0723 -0.0202 -1.1220
 7131TIP3   OH242807   3.940   3.357  15.014 -0.1902  0.5601  0.1265
 7131TIP3    H142808   3.856   3.335  14.973  0.7481 -1.3963 -0.8058
 7131TIP3    H242809   3.988   3.403  14.945  0.5091 -0.6815 -0.2223
 7132TIP3   OH242810   6.233   4.245  11.491 -0.6154  0.0338  0.3309
 7132TIP3    H142811   6.146   4.207  11.481 -0.2118 -0.8909  0.2619
 7132TIP3    H242812   6.217   4.335  11.518 -1.5894 -0.1444  0.3705
 7133TIP3   OH242813   2.637   2.266  14.067  0.3515 -0.0374 -0.2821
 7133TIP3    H142814   2.583   2.189  14.050  0.9090 -0.1782 -1.5040
 7133TIP3    H242815   2.648   2.306  13.981  0.0474  1.4255  0.3497
 7134TIP3   OH242816   2.252   0.300  13.921 -0.0098 -0.1077  0.4104
 7134TIP3    H142817   2.234   0.376  13.865 -0.1655  0.2401  0.9328
 7134TIP3    H242818   2.172   0.289  13.973  1.1772  1.3490  2.6314
 7135TIP3   OH242819   2.845   0.755   4.886 -0.3630 -0.1957 -0.0773
 7135TIP3    H142820   2.880   0.840   4.913 -1.1577 -0.2203  1.0563
 7135TIP3    H242821   2.798   0.723   4.962  0.8591 -2.1669 -0.1072
 7136TIP3   OH242822   2.591   5.385  16.183 -0.9004  0.2455  0.8358
 7136TIP3    H142823   2.614   5.293  16.194 -0.4594  0.3896  1.1154
 7136TIP3    H242824   2.589   5.420  16.272 -0.8317  0.5665  0.7093
 7137TIP3   OH242825   2.975   2.885  16.128 -0.0873  0.3432 -0.7613
 7137TIP3    H142826   2.950   2.974  16.151 -1.0358  0.1368 -0.9740
 7137TIP3    H242827   3.036   2.859  16.197 -0.5333  0.8301 -0.1758
 7138TIP3   OH242828   5.867   5.699   1.427 -0.2979  0.0403 -0.2504
 7138TIP3    H142829   5.873   5.692   1.332  0.2844  3.1232 -0.5055
 7138TIP3    H242830   5.777   5.727   1.444 -0.0458  0.7121  0.0000
 7139TIP3   OH242831   2.831   6.082   1.938  0.1931  0.0446  0.0448
 7139TIP3    H142832   2.739   6.061   1.918  0.8214 -3.1852  0.4006
 7139TIP3    H242833   2.837   6.071   2.033  0.6996  1.4304  0.1863
 7140TIP3   OH242834   5.610   0.702   0.263  0.6227  0.0246 -0.2783
 7140TIP3    H142835   5.686   0.725   0.316  0.5267  0.5504 -0.3612
 7140TIP3    H242836   5.553   0.779   0.270  0.9002  0.3683 -1.6612
 7141TIP3   OH242837   1.873   0.208   2.426 -0.3537 -0.3612  0.1749
 7141TIP3    H142838   1.870   0.263   2.348 -1.4873  0.3719  0.7380
 7141TIP3    H242839   1.886   0.119   2.392  0.0399  0.0640 -0.7980
 7142TIP3   OH242840   5.776   2.622   2.207  0.0912  0.5371  0.0531
 7142TIP3    H142841   5.871   2.611   2.214  0.0113 -0.1878  0.0101
 7142TIP3    H242842   5.765   2.704   2.159  0.7052 -0.0568 -1.1109
 7143TIP3   OH242843   5.895   6.497  13.827 -0.0459 -0.3245  0.1631
 7143TIP3    H142844   5.855   6.417  13.793  1.3694 -0.9617  0.0023
 7143TIP3    H242845   5.897   6.556  13.752 -0.8319 -0.2204  0.2152
 7144TIP3   OH242846   5.055   1.261  13.524  0.0888  0.0966 -0.5235
 7144TIP3    H142847   5.082   1.298  13.440 -1.0877  0.2794 -0.8197
 7144TIP3    H242848   5.048   1.167  13.508 -0.8319  0.2136 -0.8195
 7145TIP3   OH242849   4.407   0.926   6.257  0.4106  0.5028  0.3983
 7145TIP3    H142850   4.429   0.984   6.330 -0.6134  0.8343  0.4505
 7145TIP3    H242851   4.321   0.957   6.227 -0.0164 -0.8102  0.2504
 7146TIP3   OH242852   4.766   4.043   2.983  0.3862  0.0362  0.4606
 7146TIP3    H142853   4.798   3.954   3.001 -1.4280 -0.8557 -0.5995
 7146TIP3    H242854   4.841   4.087   2.944  0.6800 -1.7187 -1.0335
 7147TIP3   OH242855   5.015   5.997  16.016 -0.4271 -0.0730  0.0004
 7147TIP3    H142856   5.104   5.993  16.051  0.0360  2.2137 -0.8273
 7147TIP3    H242857   4.964   5.937  16.071  1.5232 -1.0816  0.7381
 7148TIP3   OH242858   5.999   0.493  17.007 -0.4797  1.0063 -0.2112
 7148TIP3    H142859   5.954   0.481  16.924  0.9697  2.2015 -1.1903
 7148TIP3    H242860   5.943   0.450  17.071 -0.6807 -1.5646 -2.0502
 7149TIP3   OH242861   4.625   3.508  12.514 -0.3989 -0.0384  0.6852
 7149TIP3    H142862   4.529   3.515  12.514 -0.4372 -0.5435  0.6148
 7149TIP3    H242863   4.650   3.523  12.605 -0.6071 -0.7481  0.8607
 7150TIP3   OH242864   4.945   5.525   0.829  0.2044  0.7873 -0.3986
 7150TIP3    H142865   4.966   5.512   0.922 -0.3903  1.8600 -0.1014
 7150TIP3    H242866   5.001   5.463   0.783 -1.0578 -1.3352  0.8148
 7151TIP3   OH242867   0.644   5.671  16.167 -0.0468 -0.2711 -0.3472
 7151TIP3    H142868   0.549   5.670  16.176 -0.4070 -0.4868 -3.6532
 7151TIP3    H242869   0.663   5.752  16.119  1.5444  0.2206  1.0606
 7152TIP3   OH242870   2.676   1.410  14.636 -0.2101  0.9465 -0.3287
 7152TIP3    H142871   2.614   1.482  14.629  0.4945  1.6523  0.6146
 7152TIP3    H242872   2.697   1.405  14.729  0.9424  0.5349 -0.6048
 7153TIP3   OH242873   2.278   3.542   4.497 -0.1397  0.7453 -0.0609
 7153TIP3    H142874   2.303   3.455   4.527 -0.4282  0.6043 -0.2228
 7153TIP3    H242875   2.310   3.602   4.565 -0.2213  0.4862  0.2041
 7154TIP3   OH242876   1.123   2.296  12.002  0.1553 -0.1028  0.1998
 7154TIP3    H142877   1.151   2.383  12.032  3.2047 -0.4724 -1.3267
 7154TIP3    H242878   1.068   2.313  11.926  2.6831  0.4953 -1.5649
 7155TIP3   OH242879   2.782   4.830  14.024 -0.1688 -0.0588 -0.8717
 7155TIP3    H142880   2.822   4.771  13.959 -0.0899  1.8514 -2.5902
 7155TIP3    H242881   2.847   4.899  14.036  0.0893 -0.7150  1.7475
 7156TIP3   OH242882   3.565   6.625  16.787  0.8065 -0.4811  0.1976
 7156TIP3    H142883   3.596   6.704  16.742 -0.9880  0.6905  0.9861
 7156TIP3    H242884   3.560   6.649  16.879  2.8397 -2.3703  0.8717
 7157TIP3   OH242885   6.555   3.558   0.171 -0.2622 -0.1108  0.1784
 7157TIP3    H142886   6.546   3.617   0.096  0.3220 -2.2104 -1.5700
 7157TIP3    H242887   6.507   3.480   0.146  0.2110 -0.9699  1.8796
 7158TIP3   OH242888   4.404   6.727  11.924  0.5936 -0.3982  0.6652
 7158TIP3    H142889   4.314   6.758  11.931  0.6908 -0.3283  1.7944
 7158TIP3    H242890   4.399   6.635  11.951  0.6053 -0.8598 -0.8621
 7159TIP3   OH242891   5.891   4.719  16.040  0.6104  0.3892 -0.9581
 7159TIP3    H142892   5.967   4.664  16.023  0.8920  0.9139 -1.3876
 7159TIP3    H242893   5.926   4.807  16.050  0.2041  0.4216  0.2048
 7160TIP3   OH242894   5.096   0.629  13.902  0.4706 -0.6566  0.5802
 7160TIP3    H142895   5.046   0.576  13.964  1.7715 -1.6604  0.7963
 7160TIP3    H242896   5.131   0.701  13.955  1.2281 -1.2811  0.9489
 7161TIP3   OH242897   5.795   5.776   1.674 -0.1323 -0.0465  0.0000
 7161TIP3    H142898   5.860   5.744   1.611 -0.1836 -2.4455  1.1055
 7161TIP3    H242899   5.847   5.820   1.741 -0.0168  1.8399 -1.2879
 7162TIP3   OH242900   0.761   4.949   1.220 -0.1402 -0.0280  0.0035
 7162TIP3    H142901   0.851   4.980   1.208 -0.3503  0.6846  0.1843
 7162TIP3    H242902   0.716   5.024   1.260 -0.5204 -0.8001  1.0320
 7163TIP3   OH242903   2.796   2.390  13.811 -0.2276 -0.0510  0.3498
 7163TIP3    H142904   2.886   2.418  13.828 -0.0954 -0.8611  1.0157
 7163TIP3    H242905   2.749   2.471  13.790  0.0729  0.7124  2.5058
 7164TIP3   OH242906   2.532   2.533   5.262 -0.1961 -0.0101 -0.0460
 7164TIP3    H142907   2.454   2.497   5.304  0.4706 -2.2844 -0.6704
 7164TIP3    H242908   2.592   2.551   5.335 -0.9672  0.9189  0.3655
 7165TIP3   OH242909   4.402   5.821  14.375  0.2917  0.0028 -0.3166
 7165TIP3    H142910   4.483   5.867  14.353  1.3307 -2.6031 -2.0344
 7165TIP3    H242911   4.332   5.882  14.348  1.6300  0.7263 -2.2359
 7166TIP3   OH242912   0.469   6.504   5.972 -0.6646  0.0811 -0.8266
 7166TIP3    H142913   0.543   6.515   5.912 -1.6472  0.0008 -2.0926
 7166TIP3    H242914   0.458   6.590   6.012  0.4636 -0.0576 -0.1960
 7167TIP3   OH242915   6.191   1.627  15.865 -0.0491  0.2669 -0.3645
 7167TIP3    H142916   6.160   1.538  15.882  0.4904  0.1477  0.0065
 7167TIP3    H242917   6.219   1.626  15.774 -1.4218  0.4621 -0.8055
 7168TIP3   OH242918   2.843   0.931  16.641 -0.1667 -0.0494 -0.5104
 7168TIP3    H142919   2.827   0.973  16.557 -0.8717 -0.0635 -0.3848
 7168TIP3    H242920   2.938   0.936  16.652  0.0572 -1.0524 -1.8312
 7169TIP3   OH242921   4.465   3.076  17.166 -0.4436 -0.0212  0.0715
 7169TIP3    H142922   4.497   3.022  17.094 -1.5297  0.5748 -0.8716
 7169TIP3    H242923   4.478   3.022  17.244  1.7617 -0.2415 -0.4122
 7170TIP3   OH242924   0.891   2.953  15.330  0.3888 -0.5683 -0.2463
 7170TIP3    H142925   0.828   2.901  15.280 -1.4797 -0.4637  1.8921
 7170TIP3    H242926   0.938   2.889  15.383  1.4595 -0.5464 -1.1517
 7171TIP3   OH242927   3.578   2.369   1.502 -0.2566  0.1038  0.0259
 7171TIP3    H142928   3.581   2.448   1.448  0.7984  0.6098  0.7854
 7171TIP3    H242929   3.654   2.318   1.474  0.9373  0.8765  1.7463
 7172TIP3   OH242930   4.920   5.766  13.127 -0.0022  0.2714  0.0875
 7172TIP3    H142931   4.982   5.798  13.061  1.5122 -0.8384  0.9222
 7172TIP3    H242932   4.848   5.828  13.125  1.0796  1.5262 -1.0316
 7173TIP3   OH242933   3.071   4.815   3.957 -0.6667  0.1485  0.2693
 7173TIP3    H142934   3.005   4.750   3.931 -0.1566  0.1201 -0.9893
 7173TIP3    H242935   3.118   4.835   3.876 -1.1517  2.4892  0.5329
 7174TIP3   OH242936   3.666   5.578   3.175 -0.2471  0.1843 -0.4163
 7174TIP3    H142937   3.647   5.627   3.095 -0.3697  0.4423 -0.2305
 7174TIP3    H242938   3.590   5.521   3.186 -0.7432  0.9370  0.1149
 7175TIP3   OH242939   5.186   1.747  15.769 -0.0079 -0.0177 -0.7376
 7175TIP3    H142940   5.189   1.725  15.862 -0.2419  0.2201 -0.6741
 7175TIP3    H242941   5.114   1.809  15.761 -0.9628 -1.1952 -1.3174
 7176TIP3   OH242942   5.135   4.207  12.352 -0.2083 -0.2661 -0.0251
 7176TIP3    H142943   5.106   4.195  12.262  1.1165  0.2746 -0.5480
 7176TIP3    H242944   5.055   4.225  12.402 -0.7594  1.2389 -1.4118
 7177TIP3   OH242945   2.191   0.252  14.361 -0.2482 -0.3653  0.6501
 7177TIP3    H142946   2.273   0.226  14.403 -0.6566  0.0213  1.7096
 7177TIP3    H242947   2.217   0.281  14.273  0.9382  1.0393  1.4409
 7178TIP3   OH242948   6.394   5.236  14.564  0.1253  0.4206  0.1295
 7178TIP3    H142949   6.424   5.194  14.645 -0.9026  0.5559  0.5933
 7178TIP3    H242950   6.339   5.169  14.522 -0.1041  0.6855  0.0098
 7179TIP3   OH242951   0.080   4.234  13.331  0.0337 -0.0406 -0.1527
 7179TIP3    H142952   0.094   4.328  13.324  2.5778 -0.3096  0.7880
 7179TIP3    H242953   0.138   4.206  13.402 -0.2935 -2.3831 -0.7714
 7180TIP3   OH242954   6.592   5.224  16.830  0.3171 -0.6303  0.1952
 7180TIP3    H142955   6.529   5.161  16.797 -0.0013  0.6341 -1.7026
 7180TIP3    H242956   6.602   5.202  16.922 -0.7227 -2.6453 -0.1443
 7181TIP3   OH242957   5.346   5.495  14.612  0.2957  0.1333 -0.0565
 7181TIP3    H142958   5.285   5.451  14.552 -0.1129 -0.0443  0.4843
 7181TIP3    H242959   5.424   5.439  14.611 -0.0572 -0.3691  0.2897
 7182TIP3   OH242960   1.996   1.709  17.114 -0.2509  0.3150  0.0205
 7182TIP3    H142961   2.005   1.671  17.027  1.7769 -0.3727  0.5002
 7182TIP3    H242962   1.937   1.783  17.102 -1.3406 -0.7739 -1.6079
 7183TIP3   OH242963   3.217   5.180   6.045  0.6376  0.2494 -0.4270
 7183TIP3    H142964   3.281   5.120   6.084 -0.9642 -3.0388 -2.6534
 7183TIP3    H242965   3.260   5.213   5.966  0.4281 -0.2666 -0.7597
 7184TIP3   OH242966   3.574   3.799  10.940 -0.1934  0.4354  0.3970
 7184TIP3    H142967   3.515   3.818  10.867  0.8095 -0.5281 -0.6952
 7184TIP3    H242968   3.518   3.801  11.017 -1.3127  1.2884 -0.4211
 7185TIP3   OH242969   0.309   1.569  12.849 -0.1096 -0.9225  0.1967
 7185TIP3    H142970   0.288   1.638  12.912 -0.7850 -0.7931 -0.1753
 7185TIP3    H242971   0.402   1.582  12.829 -0.1907 -0.2435  0.2703
 7186TIP3   OH242972   1.052   2.622   5.421 -0.1396 -0.3081 -0.0574
 7186TIP3    H142973   0.975   2.578   5.385 -1.1826  1.4506  0.0085
 7186TIP3    H242974   1.067   2.697   5.363  0.7954  0.0550  0.6348
 7187TIP3   OH242975   3.894   4.388   3.250  0.3702  0.1972 -0.4142
 7187TIP3    H142976   3.918   4.365   3.161  0.0749 -0.9876 -0.1968
 7187TIP3    H242977   3.864   4.479   3.245 -2.4411 -0.7806 -2.0441
 7188TIP3   OH242978   4.869   5.587  16.854  0.5686 -0.0888 -0.2514
 7188TIP3    H142979   4.937   5.620  16.794  1.1336  0.3338  0.6116
 7188TIP3    H242980   4.793   5.573  16.798  1.7021 -1.6335 -1.4431
 7189TIP3   OH242981   3.305   0.219  16.292 -0.0234 -0.0730 -0.1047
 7189TIP3    H142982   3.238   0.175  16.239 -0.0861  0.3258 -0.3565
 7189TIP3    H242983   3.330   0.296  16.241  0.6156 -0.2078 -0.0044
 7190TIP3   OH242984   3.842   1.331  15.062 -0.0963  0.3662 -0.0693
 7190TIP3    H142985   3.927   1.294  15.088  0.0179 -0.4945 -1.5894
 7190TIP3    H242986   3.782   1.303  15.131  0.4501 -0.7450 -0.0226
 7191TIP3   OH242987   0.059   5.032  13.179 -0.2423 -0.6277 -0.3569
 7191TIP3    H142988   0.047   4.945  13.216 -0.2564  0.0790  1.3465
 7191TIP3    H242989   0.146   5.059  13.208  0.2218 -0.4945 -1.7976
 7192TIP3   OH242990   1.308   6.423  15.217 -0.3647 -0.7015 -0.0205
 7192TIP3    H142991   1.276   6.332  15.209  1.1252 -1.2492  0.1566
 7192TIP3    H242992   1.381   6.417  15.278 -0.8015  0.7749  0.6644
 7193TIP3   OH242993   5.993   0.203   1.570 -0.0761 -0.2889 -0.0603
 7193TIP3    H142994   6.060   0.175   1.632 -0.6736 -1.7949 -0.0789
 7193TIP3    H242995   5.958   0.121   1.534 -0.2952  0.5378 -1.7933
 7194TIP3   OH242996   1.989   4.128  15.770  0.0472 -0.1523  0.0640
 7194TIP3    H142997   1.918   4.150  15.709 -0.4738  0.2571  0.8020
 7194TIP3    H242998   1.963   4.169  15.852  0.9290 -0.3803  0.4631
 7195TIP3   OH242999   2.526   1.940  14.133 -0.2236 -0.2524  0.4836
 7195TIP3    H143000   2.473   1.967  14.059  1.6006 -0.0267 -0.7668
 7195TIP3    H243001   2.526   2.016  14.191  1.1782  0.8452 -0.9125
 7196TIP3   OH243002   0.999   1.049  15.186  0.8579  0.0863 -0.1660
 7196TIP3    H143003   0.982   1.039  15.092  2.6438  1.2594 -0.6387
 7196TIP3    H243004   1.086   1.009  15.198  0.1744 -1.0118  1.1939
 7197TIP3   OH243005   1.420   4.584  14.001  0.3586  0.0996  0.1884
 7197TIP3    H143006   1.344   4.566  14.055 -1.6727  0.4938 -2.4111
 7197TIP3    H243007   1.456   4.666  14.035  0.4616 -0.7984  2.2984
 7198TIP3   OH243008   1.275   6.274   6.429  0.2408 -0.2185 -0.0044
 7198TIP3    H143009   1.298   6.322   6.349 -1.3534  2.2261  0.9577
 7198TIP3    H243010   1.214   6.331   6.475  0.8201 -1.7594  2.7953
 7199TIP3   OH243011   1.270   0.630  15.864 -0.0503  0.4118  0.9254
 7199TIP3    H143012   1.358   0.669  15.862  0.2174 -0.2175 -0.2211
 7199TIP3    H243013   1.278   0.552  15.809 -1.2504  0.1679  1.0940
 7200TIP3   OH243014   0.420   5.727   3.955  0.1505 -0.5927  0.3262
 7200TIP3    H143015   0.427   5.705   4.048  1.6403 -0.0003  0.3724
 7200TIP3    H243016   0.509   5.751   3.929 -0.3934  0.0032 -1.0651
 7201TIP3   OH243017   3.716   0.477  13.977 -0.0327  0.2476  0.3958
 7201TIP3    H143018   3.797   0.462  13.929  0.6254  0.9477  1.2695
 7201TIP3    H243019   3.704   0.399  14.030 -0.7194 -0.4946 -0.8197
 7202TIP3   OH243020   2.929   5.191  17.063 -0.3155  0.0256 -0.4211
 7202TIP3    H143021   2.932   5.111  17.115 -0.1601  0.6716  0.5821
 7202TIP3    H243022   2.904   5.162  16.975  2.1862 -1.4299 -0.7061
 7203TIP3   OH243023   6.352   3.086   2.500 -0.5062  0.1261 -0.2948
 7203TIP3    H143024   6.295   3.134   2.559 -0.8452  0.0251 -0.5384
 7203TIP3    H243025   6.439   3.094   2.538 -0.4199  1.6522 -0.8009
 7204TIP3   OH243026   5.752   1.647  14.363 -0.4960  1.0677  0.3065
 7204TIP3    H143027   5.731   1.700  14.440  1.2222  1.1355  0.7532
 7204TIP3    H243028   5.767   1.710  14.293  0.6621  1.1526  0.6162
 7205TIP3   OH243029   6.617   0.733   2.236  0.1187  0.3338  0.1126
 7205TIP3    H143030   6.572   0.800   2.287  1.0515  0.8156  0.3193
 7205TIP3    H243031   6.651   0.672   2.301 -1.5982 -0.9167 -0.1277
 7206TIP3   OH243032   2.466   1.841   1.717 -0.3218 -0.0846  0.4105
 7206TIP3    H143033   2.446   1.895   1.793  0.1997  0.2421  0.3162
 7206TIP3    H243034   2.550   1.875   1.684 -1.5864  1.2088 -1.5905
 7207TIP3   OH243035   5.162   0.599  13.050 -0.8769  0.4008 -0.0248
 7207TIP3    H143036   5.147   0.538  12.978 -1.4961  2.1410 -1.4099
 7207TIP3    H243037   5.108   0.566  13.122 -1.3696 -0.5459 -0.8245
 7208TIP3   OH243038   1.247   3.364  12.893  0.3489 -0.0238 -0.0231
 7208TIP3    H143039   1.226   3.375  12.800 -0.6627  1.6093  0.3707
 7208TIP3    H243040   1.207   3.440  12.935 -1.3535 -2.0144  2.0690
 7209TIP3   OH243041   6.187   6.390  11.712  0.1041  0.0122  0.2347
 7209TIP3    H143042   6.206   6.422  11.624  4.1252 -0.1206  0.9730
 7209TIP3    H243043   6.192   6.467  11.768  1.0638 -0.4678  0.8189
 7210TIP3   OH243044   6.770   5.714  11.469  0.6596 -0.4713  0.4156
 7210TIP3    H143045   6.818   5.659  11.530  0.9090 -0.5923  0.1107
 7210TIP3    H243046   6.689   5.666  11.451  1.5201 -1.4586 -0.9956
 7211TIP3   OH243047   0.011   1.187  12.683 -0.3283 -0.6506  0.2358
 7211TIP3    H143048   0.103   1.163  12.693 -0.5745 -1.9158 -0.3859
 7211TIP3    H243049  -0.035   1.134  12.748 -0.5571  0.4388  0.9703
 7212TIP3   OH243050   1.727   3.038   1.968  0.8359 -0.7203 -0.4631
 7212TIP3    H143051   1.661   3.039   1.898  0.4988  0.7521 -0.1503
 7212TIP3    H243052   1.797   2.982   1.935  0.5847 -0.2137 -1.9006
 7213TIP3   OH243053   6.556   5.200  17.152 -0.8033  0.2758  0.3142
 7213TIP3    H143054   6.473   5.153  17.144  0.1857 -1.1375 -2.2208
 7213TIP3    H243055   6.543   5.280  17.101 -0.6197  0.0452 -0.0972
 7214TIP3   OH243056   0.157   0.375   2.754  0.3724 -0.1931  0.2637
 7214TIP3    H143057   0.165   0.452   2.698 -0.2301 -0.0881  0.3199
 7214TIP3    H243058   0.098   0.402   2.824 -0.7623 -1.0435 -0.3283
 7215TIP3   OH243059   2.289   6.726  14.393 -0.3890 -0.4058 -0.2711
 7215TIP3    H143060   2.345   6.777  14.450 -1.0714 -0.4982  0.4982
 7215TIP3    H243061   2.288   6.773  14.310 -0.2310  0.2947  0.1268
 7216TIP3   OH243062   6.516   2.872  15.206 -0.0454 -0.3159  0.4124
 7216TIP3    H143063   6.537   2.866  15.299  0.4307  0.7583  0.3817
 7216TIP3    H243064   6.530   2.783  15.173  1.3465 -0.3446  1.0429
 7217TIP3   OH243065   1.053   2.864   4.504  0.1187  0.0044  0.1651
 7217TIP3    H143066   1.035   2.772   4.523  0.0614 -0.3945 -1.7206
 7217TIP3    H243067   0.969   2.908   4.518 -0.4163 -0.5988 -1.0648
 7218TIP3   OH243068   3.234   4.048   3.472 -0.4529  0.0620 -0.4964
 7218TIP3    H143069   3.314   4.010   3.508 -0.5233 -1.7366 -2.1645
 7218TIP3    H243070   3.163   4.005   3.518 -0.5218 -1.6049 -2.0813
 7219TIP3   OH243071   3.289   1.596  14.417  0.2739  0.2660 -0.0374
 7219TIP3    H143072   3.197   1.613  14.440  0.8880  3.3329  0.4282
 7219TIP3    H243073   3.303   1.647  14.337  1.2930 -1.0838 -0.7323
 7220TIP3   OH243074   4.010   5.135   1.743 -0.2155  0.0941  0.1590
 7220TIP3    H143075   3.925   5.101   1.715 -0.0589 -1.4264  1.4535
 7220TIP3    H243076   4.045   5.067   1.800  1.8515  0.7365 -0.3097
 7221TIP3   OH243077   5.512   1.057  14.742 -0.3130  0.4860 -0.3482
 7221TIP3    H143078   5.517   0.965  14.766 -1.4261  0.6507  0.5345
 7221TIP3    H243079   5.578   1.100  14.797  1.3408  0.0102 -1.8997
 7222TIP3   OH243080   4.876   6.772   1.668  0.4026 -0.3473  0.3955
 7222TIP3    H143081   4.922   6.827   1.732  0.6615 -0.2087  0.0947
 7222TIP3    H243082   4.946   6.726   1.622  0.1748 -1.1370  0.8283
 7223TIP3   OH243083   3.894   6.599   1.127 -0.5137 -0.4024 -0.5921
 7223TIP3    H143084   3.914   6.510   1.157 -2.0758 -0.5645  0.0283
 7223TIP3    H243085   3.829   6.587   1.058 -0.1585  0.2220 -1.0366
 7224TIP3   OH243086   4.142   4.998  11.466  0.4483 -0.0882  0.1211
 7224TIP3    H143087   4.102   5.051  11.398 -0.5172 -1.8542 -0.7094
 7224TIP3    H243088   4.229   5.037  11.479  0.2714  0.8536 -1.4239
 7225TIP3   OH243089   4.443   5.832  12.117 -0.5285 -0.2572  0.6063
 7225TIP3    H143090   4.357   5.796  12.142 -0.4846 -1.2517 -0.6252
 7225TIP3    H243091   4.502   5.801  12.186 -0.8586 -0.9223  0.5994
 7226TIP3   OH243092   3.108   0.967   2.741  0.3144 -0.3755  0.3215
 7226TIP3    H143093   3.022   1.001   2.716  0.8242  2.4679  2.0745
 7226TIP3    H243094   3.114   0.985   2.835  1.4534 -3.7450  0.9616
 7227TIP3   OH243095   4.648   6.661  15.801  0.5704  0.2826  0.1630
 7227TIP3    H143096   4.597   6.640  15.879  1.3404  0.3056  0.6776
 7227TIP3    H243097   4.728   6.609  15.809  0.1789 -0.5731 -1.1625
 7228TIP3   OH243098   4.988   0.636  13.293  0.2045  0.3844 -0.3023
 7228TIP3    H143099   4.916   0.687  13.330 -0.1362 -1.9782  2.5194
 7228TIP3    H243100   5.059   0.645  13.357 -0.5754 -4.2162  1.4356
 7229TIP3   OH243101   2.201   4.997   5.731 -0.2258 -0.2378 -0.3237
 7229TIP3    H143102   2.199   4.923   5.669 -2.9069  0.4694 -1.1133
 7229TIP3    H243103   2.286   5.038   5.715 -0.7011 -0.2982 -3.3354
 7230TIP3   OH243104   3.056   2.989  15.319 -0.3807 -0.0072 -0.3658
 7230TIP3    H143105   3.015   3.021  15.239 -0.5423  0.1362 -0.2249
 7230TIP3    H243106   3.006   2.911  15.343  0.7965 -1.1025 -1.4041
 7231TIP3   OH243107   6.321   4.240  16.551  0.2537 -0.3972  0.3802
 7231TIP3    H143108   6.348   4.156  16.589  0.2140 -0.2770  0.6785
 7231TIP3    H243109   6.355   4.239  16.462  0.2336 -0.7438  0.3768
 7232TIP3   OH243110   5.923   2.184  11.603  0.0737  0.2033 -0.5343
 7232TIP3    H143111   5.916   2.134  11.522  0.4834  0.3163 -0.6399
 7232TIP3    H243112   5.979   2.132  11.660 -1.8126 -0.8374  0.4209
 7233TIP3   OH243113   2.203   2.804   2.403 -0.1396  0.5487  0.6095
 7233TIP3    H143114   2.266   2.841   2.342 -0.6068 -0.7472 -0.6740
 7233TIP3    H243115   2.237   2.717   2.424 -0.9757  0.2373  0.6893
 7234TIP3   OH243116   6.426   3.586  15.607 -0.0139  0.5158  0.5419
 7234TIP3    H143117   6.500   3.599  15.666  1.6383  0.7107 -1.5019
 7234TIP3    H243118   6.390   3.674  15.594 -0.8603  0.3675  1.8469
 7235TIP3   OH243119   4.592   2.942   1.897 -0.1737  0.2639 -0.0283
 7235TIP3    H143120   4.529   2.947   1.825 -1.9143 -0.1191  1.4385
 7235TIP3    H243121   4.540   2.959   1.975  1.5710 -0.0212  1.2171
 7236TIP3   OH243122   5.541   6.470   1.186 -0.4439 -0.6446  0.5451
 7236TIP3    H143123   5.586   6.396   1.226  0.1022 -1.5790 -1.7347
 7236TIP3    H243124   5.587   6.547   1.220  1.1044 -1.4868  0.4103
 7237TIP3   OH243125   2.933   2.458  11.949 -0.2005 -0.4958  0.1448
 7237TIP3    H143126   2.949   2.380  12.004  0.2261 -0.0910  0.6081
 7237TIP3    H243127   2.935   2.531  12.011  0.4492 -0.0148 -0.4339
 7238TIP3   OH243128   4.050   2.447   5.455  0.4956 -0.5006 -0.1259
 7238TIP3    H143129   4.092   2.388   5.392 -1.2625 -0.6821 -1.1591
 7238TIP3    H243130   4.101   2.436   5.536  1.2549 -2.1436 -0.8032
 7239TIP3   OH243131   2.598   6.209  10.509  1.1347 -0.7075  0.3795
 7239TIP3    H143132   2.513   6.235  10.543  1.7044  1.2698  0.3635
 7239TIP3    H243133   2.591   6.115  10.494 -1.2894 -0.4245 -0.3759
 7240TIP3   OH243134   0.360   2.565   1.567 -0.1970 -0.5958  0.2243
 7240TIP3    H143135   0.380   2.649   1.526 -1.0685 -1.1306 -1.3275
 7240TIP3    H243136   0.395   2.573   1.656  0.7206  0.9919 -0.2596
 7241TIP3   OH243137   4.163   4.893  12.941  0.6092 -0.4025 -0.1726
 7241TIP3    H143138   4.129   4.969  12.987 -0.1448 -1.0106  0.2735
 7241TIP3    H243139   4.114   4.891  12.859 -0.2191 -1.1009  0.3369
 7242TIP3   OH243140   5.362   5.646   1.551  0.0320  0.7412  0.3467
 7242TIP3    H143141   5.283   5.678   1.509 -0.1074 -0.2176 -0.1380
 7242TIP3    H243142   5.349   5.551   1.559  0.3937  0.7996  1.8218
 7243TIP3   OH243143   1.264   3.521   5.186 -0.6305 -0.8574 -0.1282
 7243TIP3    H143144   1.233   3.439   5.225 -0.2623 -1.0307 -0.1974
 7243TIP3    H243145   1.204   3.588   5.220 -1.8166 -1.3496 -1.2012
 7244TIP3   OH243146   0.453   3.775  11.470 -0.1634  0.7555  0.5798
 7244TIP3    H143147   0.424   3.736  11.553  3.1726 -0.8049  1.0723
 7244TIP3    H243148   0.388   3.843  11.453 -0.4968  1.7121  4.9199
 7245TIP3   OH243149   4.251   5.131  15.302  0.3220  0.3918 -0.4376
 7245TIP3    H143150   4.265   5.036  15.296  0.8189  0.4859 -0.8073
 7245TIP3    H243151   4.336   5.169  15.279  0.2015  0.9213 -0.0082
 7246TIP3   OH243152   4.819   6.030   0.711  0.4234 -0.2196  0.0732
 7246TIP3    H143153   4.734   6.062   0.682  0.2214 -0.8884 -0.0865
 7246TIP3    H243154   4.882   6.094   0.678 -0.0514  0.5041  0.5553
 7247TIP3   OH243155   4.334   4.406   4.637 -0.2444 -0.0719  0.4210
 7247TIP3    H143156   4.417   4.450   4.615 -0.7923  1.5118  1.4535
 7247TIP3    H243157   4.322   4.343   4.566  1.8189 -0.3019  0.2207
 7248TIP3   OH243158   1.478   3.724  15.796 -0.5777 -0.0310  0.2972
 7248TIP3    H143159   1.421   3.735  15.719  0.6327  0.7505 -0.5182
 7248TIP3    H243160   1.550   3.785  15.780  0.1691 -0.5645  1.6049
 7249TIP3   OH243161   5.518   6.579  13.807  0.2913 -0.6184 -0.3651
 7249TIP3    H143162   5.515   6.485  13.828 -0.0398 -0.6304 -0.4660
 7249TIP3    H243163   5.430   6.600  13.777  0.2713 -0.2002 -0.0235
 7250TIP3   OH243164   0.630   0.756   1.444 -0.0102 -0.4104  0.0136
 7250TIP3    H143165   0.686   0.834   1.437 -1.8489  1.0541  0.9918
 7250TIP3    H243166   0.680   0.686   1.403  1.8724  1.2072 -0.5082
 7251TIP3   OH243167   0.449   2.157   5.086 -0.1734 -0.4563 -0.0146
 7251TIP3    H143168   0.355   2.141   5.087 -0.4324  1.0033 -0.2886
 7251TIP3    H243169   0.479   2.135   5.174 -1.4859  3.1394  1.3967
 7252TIP3   OH243170   0.233   6.036   0.281 -0.2054 -0.1218 -0.1478
 7252TIP3    H143171   0.221   6.129   0.259  1.3246  0.2920  0.7062
 7252TIP3    H243172   0.271   6.037   0.368  0.9028 -1.5251 -0.5992
 7253TIP3   OH243173   2.024   2.417  16.170 -0.2837  0.1279 -0.8144
 7253TIP3    H143174   1.989   2.454  16.251 -2.1202  0.2419 -1.6349
 7253TIP3    H243175   2.119   2.419  16.182 -0.3052  4.3380 -0.4427
 7254TIP3   OH243176   4.637   4.289   4.107  0.2713  0.7073 -0.0137
 7254TIP3    H143177   4.696   4.250   4.042  0.9902  0.4077  0.8172
 7254TIP3    H243178   4.690   4.355   4.151  0.2118 -0.0597  1.2310
 7255TIP3   OH243179   4.506   2.791  16.453  0.1810 -0.1223 -0.2601
 7255TIP3    H143180   4.459   2.729  16.397 -0.4363 -0.8783  1.0693
 7255TIP3    H243181   4.593   2.797  16.413 -0.8460  0.8345 -2.3795
 7256TIP3   OH243182   4.525   5.558   4.183  0.3199 -0.4109 -0.0790
 7256TIP3    H143183   4.610   5.594   4.207  0.2007  0.7481 -1.3878
 7256TIP3    H243184   4.540   5.463   4.179  2.3046 -0.0432 -3.1551
 7257TIP3   OH243185   3.146   2.423   4.463 -0.2049 -0.0235  0.5368
 7257TIP3    H143186   3.171   2.464   4.379 -1.1690  0.2326  0.3678
 7257TIP3    H243187   3.229   2.406   4.506  0.2777  0.6673 -0.0915
 7258TIP3   OH243188   5.234   1.253   2.002 -0.4934 -0.4587 -0.2111
 7258TIP3    H143189   5.202   1.190   1.938 -1.9296  0.0867 -0.0423
 7258TIP3    H243190   5.302   1.302   1.956 -0.9300 -0.6321 -1.0511
 7259TIP3   OH243191   2.461   2.762  14.030  0.0400 -0.3332  0.2966
 7259TIP3    H143192   2.374   2.723  14.043  1.0068 -2.1772  1.5044
 7259TIP3    H243193   2.447   2.833  13.967 -2.4569 -0.1280  1.0606
 7260TIP3   OH243194   0.072   1.149  11.280 -0.3259 -0.6188  0.0738
 7260TIP3    H143195   0.130   1.223  11.261  0.6423 -1.3873  0.0082
 7260TIP3    H243196   0.005   1.186  11.337  0.0878  0.3390 -0.0449
 7261TIP3   OH243197   2.793   5.027  16.540  0.2493 -0.0563  0.1779
 7261TIP3    H143198   2.758   4.952  16.588 -2.8826  1.4286  0.3463
 7261TIP3    H243199   2.787   5.100  16.602  1.1293  0.7965 -0.7320
 7262TIP3   OH243200   4.062   4.705  16.177  0.3259  0.3625 -0.1211
 7262TIP3    H143201   3.989   4.651  16.209  1.0259 -0.6242 -0.1705
 7262TIP3    H243202   4.019   4.777  16.131 -0.6200 -0.6294 -0.8267
 7263TIP3   OH243203   6.157   0.114  13.921 -0.0758  0.0240 -0.6079
 7263TIP3    H143204   6.188   0.185  13.978 -1.1982  1.6214 -1.9147
 7263TIP3    H243205   6.169   0.034  13.973  1.7806  1.0991  0.6759
 7264TIP3   OH243206   4.092   2.947  16.247  0.5675  0.1138 -0.2489
 7264TIP3    H143207   4.071   2.861  16.283 -0.2174  0.6069  0.4771
 7264TIP3    H243208   4.134   2.994  16.319  0.2009  0.6482 -0.3841
 7265TIP3   OH243209   1.940   0.670  17.061  0.4743 -0.0215 -0.5077
 7265TIP3    H143210   1.944   0.608  16.989 -0.7527 -1.0428  0.2752
 7265TIP3    H243211   1.848   0.696  17.064  0.6654  0.5872  0.2123
 7266TIP3   OH243212   1.473   5.786  10.711  0.1699 -0.4573  0.3868
 7266TIP3    H143213   1.561   5.775  10.674  0.0761  0.2114 -0.0359
 7266TIP3    H243214   1.441   5.869  10.675 -0.1996 -0.1394  1.4136
 7267TIP3   OH243215   0.581   2.081   6.082 -0.2579  0.2718  0.2412
 7267TIP3    H143216   0.604   2.162   6.036  1.4848  0.0533  0.6605
 7267TIP3    H243217   0.574   2.107   6.174  0.1945 -0.0104  0.3609
 7268TIP3   OH243218   1.140   3.789  11.706 -0.3187 -0.1275 -0.6965
 7268TIP3    H143219   1.129   3.882  11.683 -0.0508 -0.2165 -1.1781
 7268TIP3    H243220   1.228   3.785  11.744 -1.1928  0.2385  1.4502
 7269TIP3   OH243221   6.771   5.672  13.090  0.1517  0.1044 -0.0097
 7269TIP3    H143222   6.844   5.669  13.151 -0.0418  0.3665  0.2399
 7269TIP3    H243223   6.698   5.633  13.138  0.2033 -0.4304 -0.3663
 7270TIP3   OH243224   3.590   3.343  10.641 -0.1416 -0.0733  0.0016
 7270TIP3    H143225   3.647   3.404  10.594 -0.4241 -0.8614 -1.3979
 7270TIP3    H243226   3.502   3.365  10.611 -0.5949  1.0233  2.0226
 7271TIP3   OH243227   2.551   3.418  10.932 -0.2741  0.5086  0.3234
 7271TIP3    H143228   2.477   3.479  10.924 -1.1512 -0.6638 -0.6674
 7271TIP3    H243229   2.626   3.468  10.900 -1.0792  0.9359 -0.9645
 7272TIP3   OH243230   2.728   0.499  16.774 -0.3544  0.4857 -0.1727
 7272TIP3    H143231   2.646   0.505  16.821  0.0526  0.0310  0.6012
 7272TIP3    H243232   2.712   0.437  16.704 -0.5606  0.1207  0.2016
 7273TIP3   OH243233   5.735   2.081   5.842 -0.3050 -0.1416 -0.0362
 7273TIP3    H143234   5.670   2.137   5.799 -0.4396  0.9393  1.5317
 7273TIP3    H243235   5.819   2.108   5.804 -0.7395 -1.6166 -2.1491
 7274TIP3   OH243236   3.205   4.420   0.919 -0.0206  0.1705  0.2581
 7274TIP3    H143237   3.219   4.514   0.915 -2.4838  0.5413  0.0438
 7274TIP3    H243238   3.201   4.400   1.013  2.7686 -0.1164  0.3702
 7275TIP3   OH243239   4.458   0.474  14.182 -0.0680 -0.1888  0.4482
 7275TIP3    H143240   4.480   0.434  14.099  1.4055  0.4682  0.5138
 7275TIP3    H243241   4.511   0.428  14.247 -0.3742  0.0494  0.8785
 7276TIP3   OH243242   4.713   3.930   1.483 -0.2925  0.5078  0.0797
 7276TIP3    H143243   4.757   3.956   1.402  1.6004 -0.4055  0.7784
 7276TIP3    H243244   4.718   4.008   1.539  4.6530 -0.9112  1.8686
 7277TIP3   OH243245   1.204   2.839  16.376 -0.1385 -0.2447  0.4068
 7277TIP3    H143246   1.143   2.909  16.398 -0.0000 -0.1027  0.3429
 7277TIP3    H243247   1.288   2.868  16.412  0.3095  0.4645 -1.1445
 7278TIP3   OH243248   0.846   2.751   2.759 -0.0186 -0.1932  0.6418
 7278TIP3    H143249   0.826   2.778   2.848 -1.5258 -2.3590  1.0030
 7278TIP3    H243250   0.832   2.657   2.759  2.2418 -0.5757 -1.3032
 7279TIP3   OH243251   5.532   2.600  11.959  0.1926 -0.1073  0.8572
 7279TIP3    H143252   5.517   2.677  11.905 -0.2552 -1.1270 -0.5191
 7279TIP3    H243253   5.611   2.620  12.009 -1.5177  2.3671  2.6612
 7280TIP3   OH243254   0.721   0.593  14.411  0.1813 -0.0502 -0.7740
 7280TIP3    H143255   0.642   0.617  14.459  1.0802  0.4374  0.5032
 7280TIP3    H243256   0.693   0.585  14.320 -1.7436 -1.8463 -0.0482
 7281TIP3   OH243257   4.731   5.845   5.448 -0.0348 -0.8964  0.0519
 7281TIP3    H143258   4.701   5.931   5.420  0.2182 -0.3755  1.3626
 7281TIP3    H243259   4.814   5.862   5.493  1.1065 -2.0641 -1.5597
 7282TIP3   OH243260   3.908   6.750  10.987  0.5262  0.1598 -0.3816
 7282TIP3    H143261   3.966   6.821  10.960  0.2918  0.8543  0.9019
 7282TIP3    H243262   3.823   6.793  11.002  0.0126 -0.6247 -0.9608
 7283TIP3   OH243263   4.212   2.045   3.754  0.1484  0.2263  0.9714
 7283TIP3    H143264   4.197   2.064   3.846  1.3405  0.6278  1.0980
 7283TIP3    H243265   4.241   2.129   3.716 -0.1241  0.0166  0.2843
 7284TIP3   OH243266   0.162   6.729  13.620  0.3444 -0.7382  0.1225
 7284TIP3    H143267   0.126   6.804  13.668  0.6500 -0.3141 -0.3109
 7284TIP3    H243268   0.252   6.722  13.650  0.6233 -0.2942 -0.5941
 7285TIP3   OH243269   5.137   0.861  15.138  0.7308 -0.1203  0.1765
 7285TIP3    H143270   5.210   0.860  15.077  1.0828 -2.0285  0.5881
 7285TIP3    H243271   5.165   0.803  15.209 -1.4374 -1.3856  0.0359
 7286TIP3   OH243272   2.903   3.214   5.729 -0.8863  0.0745 -0.2995
 7286TIP3    H143273   2.831   3.226   5.667 -1.4061 -0.4728  0.1871
 7286TIP3    H243274   2.955   3.293   5.721 -1.9880  0.8264 -0.0866
 7287TIP3   OH243275   2.450   6.240   4.493  0.0041  0.2233 -0.1638
 7287TIP3    H143276   2.537   6.243   4.533 -1.1305 -0.2867  2.4371
 7287TIP3    H243277   2.407   6.320   4.524  0.7188  2.4017 -4.3983
 7288TIP3   OH243278   3.720   4.219  14.014  0.5657  0.3941 -0.3045
 7288TIP3    H143279   3.716   4.293  14.074 -0.1694  1.2078 -1.3371
 7288TIP3    H243280   3.747   4.145  14.069  2.0611  1.5723  0.5836
 7289TIP3   OH243281   6.079   6.018  12.914  0.1810  0.1734  0.5009
 7289TIP3    H143282   6.055   6.069  12.991 -0.0938  1.6027 -0.5117
 7289TIP3    H243283   5.997   5.980  12.884  0.1620  0.2287  0.4802
 7290TIP3   OH243284   0.337   5.533   0.514 -0.1635  0.0198 -0.3145
 7290TIP3    H143285   0.287   5.452   0.496  1.7298 -1.1167 -0.5428
 7290TIP3    H243286   0.358   5.568   0.428 -1.2942  0.9797 -0.2145
 7291TIP3   OH243287   0.309   3.479  15.252 -0.4697 -0.3691  0.6232
 7291TIP3    H143288   0.297   3.498  15.345  1.7360  0.0397  0.8499
 7291TIP3    H243289   0.359   3.397  15.251 -0.4981 -0.3814 -0.2008
 7292TIP3   OH243290   4.500   4.925   1.946  0.5633 -0.2308 -0.1343
 7292TIP3    H143291   4.469   5.003   1.900  1.0026 -0.1788 -0.3467
 7292TIP3    H243292   4.491   4.946   2.039  1.9243  0.5834 -0.1744
 7293TIP3   OH243293   3.213   1.625   0.858 -0.1624  0.3292 -0.6128
 7293TIP3    H143294   3.221   1.650   0.766  0.2593 -0.2762 -0.7414
 7293TIP3    H243295   3.282   1.674   0.902 -1.7951  2.3934 -0.2452
 7294TIP3   OH243296   0.385   5.133   6.571 -0.5024  0.2106  0.1856
 7294TIP3    H143297   0.388   5.070   6.643  0.6068 -0.6313 -0.5918
 7294TIP3    H243298   0.292   5.140   6.550 -0.7928  0.1270  1.4014
 7295TIP3   OH243299   2.894   0.907  14.682  0.7077  0.2627 -0.5293
 7295TIP3    H143300   2.890   0.812  14.696 -0.4917  0.1080 -1.7970
 7295TIP3    H243301   2.803   0.933  14.671  1.1343  1.3353 -1.6389
 7296TIP3   OH243302   1.415   2.759  14.524 -0.1714  0.0019 -0.6831
 7296TIP3    H143303   1.424   2.735  14.432  1.2414 -0.6567 -0.3891
 7296TIP3    H243304   1.471   2.836  14.534  0.6930 -0.6960 -0.0957
 7297TIP3   OH243305   5.170   0.335  15.941 -0.1279  0.1122  0.3081
 7297TIP3    H143306   5.114   0.338  15.863  1.1444  0.3646 -0.6041
 7297TIP3    H243307   5.245   0.390  15.918  1.4516 -1.8212  0.7940
 7298TIP3   OH243308   1.898   5.160   1.629  0.5277  0.0338 -0.5106
 7298TIP3    H143309   1.980   5.179   1.584  0.5601 -2.6973 -1.7030
 7298TIP3    H243310   1.836   5.140   1.558 -0.3865 -0.7283  0.4847
 7299TIP3   OH243311   0.668   1.729  15.438 -0.2743  0.4430 -0.5856
 7299TIP3    H143312   0.683   1.805  15.381  1.9982 -1.1834 -2.2331
 7299TIP3    H243313   0.714   1.751  15.519 -1.9499  1.9757 -0.0214
 7300TIP3   OH243314   4.717   1.675   5.214 -0.1195  0.0489  0.4321
 7300TIP3    H143315   4.630   1.636   5.214 -0.7352  1.3375 -1.0558
 7300TIP3    H243316   4.776   1.603   5.235 -1.5164 -0.8905  1.2256
 7301TIP3   OH243317   1.068   1.440  11.422 -0.2567  0.5311  0.1625
 7301TIP3    H143318   1.029   1.461  11.338 -0.2195  0.0180  0.0121
 7301TIP3    H243319   1.098   1.524  11.457  1.1342  0.5530 -1.0272
 7302TIP3   OH243320   2.236   2.261  12.200 -0.0853 -0.0701  0.3424
 7302TIP3    H143321   2.192   2.245  12.283  0.9230  0.8894  1.0747
 7302TIP3    H243322   2.166   2.253  12.134 -0.5537 -2.5153  1.1006
 7303TIP3   OH243323   2.031   6.759  14.044 -0.1320 -0.1611 -0.1500
 7303TIP3    H143324   1.959   6.757  13.980  0.9778 -0.7359 -1.4148
 7303TIP3    H243325   2.110   6.768  13.990  0.6595  2.0357  1.2801
 7304TIP3   OH243326   2.444   4.158   2.225  0.3382 -0.1202  0.3130
 7304TIP3    H143327   2.381   4.127   2.161 -0.3358 -1.6849  1.6909
 7304TIP3    H243328   2.391   4.195   2.296  1.0669  1.6241 -0.0217
 7305TIP3   OH243329   2.703   6.415  12.016  0.7936  0.0600  0.2344
 7305TIP3    H143330   2.698   6.508  12.038 -1.3788  0.3804 -1.4744
 7305TIP3    H243331   2.738   6.413  11.927  0.6493 -0.7482  0.1897
 7306TIP3   OH243332   4.894   5.989   4.905  0.0929  0.3938 -0.7418
 7306TIP3    H143333   4.839   6.067   4.908 -0.4980 -0.0431  0.1856
 7306TIP3    H243334   4.845   5.927   4.850 -0.4489 -0.0536  0.2162
 7307TIP3   OH243335   2.146   6.294  14.004 -0.6685  1.0325  0.4838
 7307TIP3    H143336   2.233   6.291  13.965  0.2600 -1.1057  2.6121
 7307TIP3    H243337   2.089   6.326  13.933  0.9396 -2.5056 -2.5765
 7308TIP3   OH243338   2.873   0.521  11.341  0.2666 -0.0110  0.2232
 7308TIP3    H143339   2.863   0.548  11.250 -2.5048  1.9285  1.0654
 7308TIP3    H243340   2.968   0.524  11.356  0.6567  0.9631 -2.1817
 7309TIP3   OH243341   1.600   6.225  13.618  0.1423 -0.1184  0.1065
 7309TIP3    H143342   1.695   6.221  13.621  0.2144  1.6313  0.3033
 7309TIP3    H243343   1.571   6.153  13.674  1.3554  0.6576  1.7615
 7310TIP3   OH243344   3.218   2.202  11.103  0.3553 -0.8564  0.3984
 7310TIP3    H143345   3.237   2.222  11.194  3.2122 -1.9656  0.1114
 7310TIP3    H243346   3.172   2.279  11.070 -0.2405 -0.2388  2.6250
 7311TIP3   OH243347   1.329   6.230  14.614 -0.0461  0.0354 -0.4673
 7311TIP3    H143348   1.259   6.171  14.590 -0.2972 -0.3687  1.1916
 7311TIP3    H243349   1.290   6.290  14.677  1.2027 -0.5231  0.8808
 7312TIP3   OH243350   3.613   4.433   1.142 -0.4483  0.2673  0.1542
 7312TIP3    H143351   3.558   4.439   1.220 -1.8865 -0.9440 -0.7406
 7312TIP3    H243352   3.557   4.463   1.071 -0.0036 -1.0701 -0.7927
 7313TIP3   OH243353   6.180   2.830  13.669 -0.4332 -0.3577 -0.0829
 7313TIP3    H143354   6.254   2.771  13.682 -0.7865 -0.3356  2.2855
 7313TIP3    H243355   6.220   2.916  13.653  0.0571 -0.5074  0.3393
 7314TIP3   OH243356   6.139   2.641  11.510 -0.2595 -0.2189 -0.1343
 7314TIP3    H143357   6.103   2.552  11.514 -0.0410 -0.2887  0.3022
 7314TIP3    H243358   6.063   2.698  11.503 -0.4214 -0.4127  0.0358
 7315TIP3   OH243359   4.491   6.171  11.610  0.5907 -0.2710 -0.0528
 7315TIP3    H143360   4.524   6.141  11.694  1.0969 -1.0045 -0.5059
 7315TIP3    H243361   4.438   6.249  11.630 -0.2796 -1.1467  1.0561
 7316TIP3   OH243362   0.601   2.200  14.139  0.0682  0.5462 -0.0292
 7316TIP3    H143363   0.561   2.180  14.223  1.1276  0.6910  0.5107
 7316TIP3    H243364   0.634   2.116  14.108 -2.7960 -0.0746 -1.6492
 7317TIP3   OH243365   6.280   1.962   1.780 -0.4875  0.6383  0.8602
 7317TIP3    H143366   6.368   1.992   1.800 -0.0178 -0.6594  0.8090
 7317TIP3    H243367   6.281   1.869   1.802 -0.7072 -0.2713 -2.6427
 7318TIP3   OH243368   1.391   2.836   1.354  0.3335  0.4041  0.0891
 7318TIP3    H143369   1.386   2.909   1.291 -0.8882  0.4914  0.2915
 7318TIP3    H243370   1.411   2.760   1.300  1.6740  0.8783 -0.1212
 7319TIP3   OH243371   2.125   2.915   3.869  0.5822  0.3329 -0.3073
 7319TIP3    H143372   2.088   2.874   3.947  1.4066 -0.1116 -0.1352
 7319TIP3    H243373   2.099   3.006   3.874  1.0973  0.4310  0.7832
 7320TIP3   OH243374   6.641   6.191   1.987  0.4396  0.2343 -0.7025
 7320TIP3    H143375   6.658   6.100   2.010 -1.7652 -0.0583 -0.0922
 7320TIP3    H243376   6.685   6.242   2.056 -0.5945 -0.4696  0.5081
 7321TIP3   OH243377   4.189   0.306   3.376 -0.1861 -0.0004  0.0983
 7321TIP3    H143378   4.170   0.369   3.447 -0.4487  0.1323 -0.0878
 7321TIP3    H243379   4.154   0.348   3.297 -0.6766 -0.5356  0.0282
 7322TIP3   OH243380   0.423   0.782   2.395 -0.9863 -0.0775 -0.5936
 7322TIP3    H143381   0.480   0.707   2.410 -0.1915  0.6872  0.2453
 7322TIP3    H243382   0.447   0.814   2.307 -0.8990 -0.4305 -0.6972
 7323TIP3   OH243383   2.027   1.271  11.470  0.1735  0.7168 -0.5219
 7323TIP3    H143384   1.955   1.269  11.534  0.3738  2.4273 -0.2151
 7323TIP3    H243385   1.990   1.312  11.392  0.1070 -0.7914 -1.2958
 7324TIP3   OH243386   4.258   3.375   0.636  0.4653  0.2975 -0.4892
 7324TIP3    H143387   4.297   3.423   0.709 -0.8824 -0.1059  0.5278
 7324TIP3    H243388   4.311   3.398   0.560  1.2136  1.5893  0.4155
 7325TIP3   OH243389   3.352   1.128  12.827  0.0648 -0.5529  0.1559
 7325TIP3    H143390   3.431   1.100  12.872 -0.0619  0.2160  0.8786
 7325TIP3    H243391   3.314   1.048  12.791  0.4179 -1.1165  1.0251
 7326TIP3   OH243392   6.057   1.304  10.394 -0.0835 -0.4552 -0.6072
 7326TIP3    H143393   6.039   1.380  10.338 -3.0870 -1.0958 -0.5959
 7326TIP3    H243394   6.059   1.340  10.483 -2.3647 -0.4817 -0.5223
 7327TIP3   OH243395   3.249   3.416  11.121 -0.6148  0.0534  0.0847
 7327TIP3    H143396   3.248   3.348  11.054 -0.6419 -0.5711  0.7096
 7327TIP3    H243397   3.173   3.471  11.101 -1.0884 -0.6005  0.0843
 7328TIP3   OH243398   4.849   1.869   5.032  0.3564  0.4302 -0.4661
 7328TIP3    H143399   4.816   1.808   5.098 -1.0572  1.3628 -0.2747
 7328TIP3    H243400   4.825   1.955   5.065  1.1198  1.0105 -1.3978
 7329TIP3   OH243401   0.953   2.599   1.545  0.4983 -0.3592 -0.3808
 7329TIP3    H143402   0.950   2.544   1.623  0.4869 -0.6236 -0.5713
 7329TIP3    H243403   1.044   2.629   1.540  0.2868  0.4337  0.2787
 7330TIP3   OH243404   4.815   6.466   0.989 -0.4648 -0.1476 -0.3946
 7330TIP3    H143405   4.858   6.551   0.981 -1.7192  0.7483  1.7472
 7330TIP3    H243406   4.812   6.449   1.083 -1.2866 -2.0113 -0.7258
 7331TIP3   OH243407   2.773   2.491  13.305  0.0592  1.0956 -0.4164
 7331TIP3    H143408   2.859   2.531  13.294  0.3358  0.7153  0.3581
 7331TIP3    H243409   2.781   2.406  13.262 -0.0546  1.2138 -0.6791
 7332TIP3   OH243410   6.770   4.804  11.397  0.1875 -0.3377 -0.1181
 7332TIP3    H143411   6.817   4.887  11.403  0.3768 -0.3464 -1.4606
 7332TIP3    H243412   6.739   4.788  11.486 -1.8895  2.3713 -0.2781
 7333TIP3   OH243413   0.650   1.436   0.461  0.2694 -0.1797 -0.0093
 7333TIP3    H143414   0.588   1.450   0.532  0.8606  0.2052  0.4318
 7333TIP3    H243415   0.617   1.358   0.416 -1.5622  1.0743 -0.9010
 7334TIP3   OH243416   1.862   2.901  16.820  0.1932  0.0819  0.0427
 7334TIP3    H143417   1.931   2.870  16.879  0.2414 -0.4756 -0.2954
 7334TIP3    H243418   1.884   2.993  16.804 -0.0270  0.3353  1.1722
 7335TIP3   OH243419   2.242   1.048  11.457  0.4662  0.1192  0.1891
 7335TIP3    H143420   2.188   1.121  11.488 -1.6485 -1.4589  0.3653
 7335TIP3    H243421   2.276   1.078  11.373 -0.3016  1.3483  0.2951
 7336TIP3   OH243422   6.400   4.253  10.775  0.4307 -0.7463  0.1508
 7336TIP3    H143423   6.496   4.254  10.777  0.4654  0.9735 -0.9842
 7336TIP3    H243424   6.374   4.306  10.849  0.3516 -1.2397  0.4782
 7337TIP3   OH243425   2.434   4.162  10.556  0.3653  0.1807  0.2663
 7337TIP3    H143426   2.391   4.242  10.585 -2.6045 -1.5358  0.7349
 7337TIP3    H243427   2.440   4.170  10.460 -2.4711 -0.2214  0.0227
 7338TIP3   OH243428   6.415   0.941  15.056 -0.6039  0.5609 -0.1206
 7338TIP3    H143429   6.437   0.898  14.974 -2.4783 -0.1004 -0.2942
 7338TIP3    H243430   6.403   1.033  15.033  0.3065  0.6381 -0.3114
 7339TIP3   OH243431   4.450   1.541   2.211  0.7204 -0.4737 -0.4691
 7339TIP3    H143432   4.364   1.581   2.194  1.1356 -0.0287 -1.5839
 7339TIP3    H243433   4.432   1.473   2.276 -0.1799  0.7470  0.5789
 7340TIP3   OH243434   5.947   1.192  13.385 -0.0962 -0.1463  0.0896
 7340TIP3    H143435   6.012   1.128  13.356 -0.8186 -0.8235 -0.0310
 7340TIP3    H243436   5.962   1.200  13.479 -1.5726 -2.3005  0.5443
 7341TIP3   OH243437   6.023   3.803  10.755  0.0144  0.3411 -0.2334
 7341TIP3    H143438   6.091   3.868  10.772 -0.2007  1.3765 -3.0575
 7341TIP3    H243439   6.055   3.754  10.679 -1.6377 -0.2682 -0.5545
 7342TIP3   OH243440   1.483   6.750  15.828  0.2752  0.0815  0.2861
 7342TIP3    H143441   1.536   6.773  15.904  0.8731  0.8273 -0.3466
 7342TIP3    H243442   1.547   6.719  15.764 -0.4199 -2.5925  0.8226
 7343TIP3   OH243443   1.498   0.547   1.745  0.3174  0.1190  0.4191
 7343TIP3    H143444   1.534   0.636   1.742  0.7776 -0.0703  0.2190
 7343TIP3    H243445   1.551   0.498   1.683 -0.0501 -0.2572  0.4005
 7344TIP3   OH243446   4.323   5.486  16.710 -0.4215 -0.2801 -0.4358
 7344TIP3    H143447   4.372   5.411  16.742  0.1414 -0.3043 -1.3330
 7344TIP3    H243448   4.261   5.507  16.780 -2.3917 -3.1822 -1.2435
 7345TIP3   OH243449   2.909   4.135  14.767 -0.0984  0.0598 -0.0237
 7345TIP3    H143450   2.904   4.058  14.709  0.8923  1.8506 -2.5864
 7345TIP3    H243451   2.986   4.183  14.737 -1.1657  2.4879  0.9784
 7346TIP3   OH243452   4.731   1.240   5.437  0.0791  0.3776 -0.3650
 7346TIP3    H143453   4.712   1.147   5.425  0.7614  0.1724  0.1336
 7346TIP3    H243454   4.798   1.242   5.506 -0.5125  1.2813  0.1887
 7347TIP3   OH243455   3.444   1.774   2.142  0.5208 -0.1456  0.6606
 7347TIP3    H143456   3.479   1.766   2.054  1.5010 -2.1114  1.2083
 7347TIP3    H243457   3.491   1.849   2.180  1.4493 -0.4624  0.1481
 7348TIP3   OH243458   6.137   2.707  11.242  0.0713 -0.2479  0.0512
 7348TIP3    H143459   6.154   2.701  11.336  0.9121  0.8870 -0.0196
 7348TIP3    H243460   6.184   2.785  11.214 -0.2160 -0.5491 -1.3097
 7349TIP3   OH243461   5.173   2.839   1.270 -0.2172 -0.1985  0.0711
 7349TIP3    H143462   5.137   2.824   1.358  1.6960  1.4098  1.1468
 7349TIP3    H243463   5.268   2.836   1.282  0.0851 -1.9094 -2.3108
 7350TIP3   OH243464   5.942   2.505   2.757 -0.1021  0.3254 -0.1157
 7350TIP3    H143465   5.906   2.585   2.795 -0.4986 -0.6505  1.6462
 7350TIP3    H243466   5.910   2.503   2.667  0.0123  2.1986 -0.2001
 7351TIP3   OH243467   2.839   3.104  16.204 -0.5863  0.7662 -0.7486
 7351TIP3    H143468   2.828   3.182  16.258  0.8372  1.1805 -1.0284
 7351TIP3    H243469   2.807   3.129  16.118 -3.0491  0.0418 -0.0890
 7352TIP3   OH243470   5.035   4.968  16.322  0.1169  0.4822  0.4573
 7352TIP3    H143471   5.049   4.906  16.393 -0.7559  0.8071  0.9109
 7352TIP3    H243472   5.108   4.952  16.262  0.5834 -0.1279  1.1780
 7353TIP3   OH243473   1.933   2.571   4.306 -0.0588  0.0688  0.6034
 7353TIP3    H143474   1.877   2.552   4.231  0.0689 -1.3910  0.8702
 7353TIP3    H243475   1.884   2.635   4.358 -0.4369  0.5791 -0.3681
 7354TIP3   OH243476   1.537   0.957   0.835  0.1308 -0.4247 -0.5983
 7354TIP3    H143477   1.596   0.884   0.854  0.7654  0.4756  0.9863
 7354TIP3    H243478   1.518   0.949   0.742  1.0528 -1.9763 -0.6726
 7355TIP3   OH243479   3.996   3.787   4.139 -0.1449 -0.4253  0.2823
 7355TIP3    H143480   3.968   3.879   4.144  0.6816 -0.1548 -0.0454
 7355TIP3    H243481   4.088   3.788   4.164  0.7435 -0.7212 -2.7533
 7356TIP3   OH243482   0.240   1.050  15.220  0.1292  0.2203 -0.4433
 7356TIP3    H143483   0.312   1.034  15.159 -0.1381 -0.1799 -0.6534
 7356TIP3    H243484   0.270   1.124  15.273  1.4267 -1.0546  0.6449
 7357TIP3   OH243485   3.773   5.818   6.094  0.3271  0.1688 -0.0656
 7357TIP3    H143486   3.826   5.895   6.112 -0.3374  0.5577  0.2213
 7357TIP3    H243487   3.691   5.833   6.140  0.6710 -1.2980  1.0627
 7358TIP3   OH243488   6.362   4.725  12.860  0.0486  0.3703  0.6542
 7358TIP3    H143489   6.439   4.777  12.883  0.9422 -0.4771 -0.4102
 7358TIP3    H243490   6.296   4.790  12.837  1.5352  1.0656 -1.8795
 7359TIP3   OH243491   6.576   2.641   2.912  0.1169 -0.6700 -0.4997
 7359TIP3    H143492   6.585   2.598   2.997  3.0854  0.7607 -0.0179
 7359TIP3    H243493   6.641   2.599   2.856 -0.0136  0.1618 -1.3007
 7360TIP3   OH243494   1.931   3.695   6.541 -0.1748  0.2475  0.0129
 7360TIP3    H143495   1.902   3.772   6.492  0.4086 -0.9248 -2.2348
 7360TIP3    H243496   2.024   3.710   6.557 -0.3519  0.6032  0.7260
 7361TIP3   OH243497   4.817   5.907  17.013  0.4383  0.0389  0.1463
 7361TIP3    H143498   4.740   5.850  17.018 -0.1483  0.8360  0.2506
 7361TIP3    H243499   4.792   5.985  17.061  0.5890  1.1384 -1.5219
 7362TIP3   OH243500   4.953   3.570   0.036  0.3946  0.1153  0.5064
 7362TIP3    H143501   4.874   3.600   0.081 -0.4089 -0.8104 -0.2970
 7362TIP3    H243502   4.955   3.475   0.050  0.7537 -0.0235 -0.4395
 7363TIP3   OH243503   3.666   6.313   2.194  0.1006 -0.1229  0.1436
 7363TIP3    H143504   3.700   6.351   2.275 -0.2546 -3.5878  2.0514
 7363TIP3    H243505   3.574   6.338   2.194  0.5117  1.4184 -0.1417
 7364TIP3   OH243506   0.673   0.790   4.596  0.6677 -0.4395 -0.6177
 7364TIP3    H143507   0.736   0.786   4.668  0.1715  2.4410  0.0376
 7364TIP3    H243508   0.699   0.867   4.545  0.6012 -2.0383 -3.1552
 7365TIP3   OH243509   0.605   0.297   3.663 -0.4811  0.6171  0.0121
 7365TIP3    H143510   0.567   0.320   3.748 -0.2197 -0.5172  0.4447
 7365TIP3    H243511   0.636   0.380   3.627 -0.7278  1.1236  0.9597
 7366TIP3   OH243512   4.992   6.169   1.904  0.2359 -0.3799  0.0380
 7366TIP3    H143513   5.018   6.254   1.868 -1.6121 -0.1728 -0.8776
 7366TIP3    H243514   4.944   6.127   1.833 -1.8373 -0.7557  1.6146
 7367TIP3   OH243515   1.892   5.077  16.148 -0.2578  0.2732 -0.3526
 7367TIP3    H143516   1.978   5.100  16.112 -0.1953 -0.6377 -0.8033
 7367TIP3    H243517   1.846   5.160  16.154  0.1472  0.5831 -1.4595
 7368TIP3   OH243518   2.389   2.080  13.652 -0.0585 -0.0692  0.4803
 7368TIP3    H143519   2.340   1.997  13.653 -2.0025  1.0316 -0.7158
 7368TIP3    H243520   2.329   2.143  13.612  0.9593  2.2023  2.4067
 7369TIP3   OH243521   2.345   0.481   2.359 -0.1420  0.0691  0.5783
 7369TIP3    H143522   2.280   0.464   2.291 -0.1259 -2.0363  1.0687
 7369TIP3    H243523   2.427   0.449   2.322 -0.2434 -1.6495  1.7990
 7370TIP3   OH243524   3.511   1.254  15.785 -0.3265  0.1916 -0.2876
 7370TIP3    H143525   3.585   1.196  15.801 -1.5265 -1.5662 -1.0559
 7370TIP3    H243526   3.543   1.316  15.719  0.6171 -0.2472 -0.2426
 7371TIP3   OH243527   0.409   5.429  12.795 -0.5232  0.3066  0.4869
 7371TIP3    H143528   0.403   5.335  12.777  2.5014 -0.1994  1.8401
 7371TIP3    H243529   0.321   5.453  12.824 -1.7508 -1.7581 -1.3817
 7372TIP3   OH243530   1.104   2.051   1.675  0.1411  0.0813 -0.2486
 7372TIP3    H143531   1.046   2.053   1.598  0.4857  2.3322 -0.4645
 7372TIP3    H243532   1.102   1.959   1.703 -0.1310 -0.7462 -2.8283
 7373TIP3   OH243533   6.112   3.277   1.020  0.0599  0.2488  0.2609
 7373TIP3    H143534   6.052   3.211   0.984 -0.6559  0.8341  0.3608
 7373TIP3    H243535   6.170   3.227   1.078 -0.3468 -0.3271  0.1810
 7374TIP3   OH243536   5.953   2.886  15.274  0.1437 -0.0863 -0.2558
 7374TIP3    H143537   5.991   2.961  15.228  0.0994  2.0943  3.1231
 7374TIP3    H243538   6.028   2.844  15.317 -0.2691 -0.1992  0.3478
 7375TIP3   OH243539   5.071   5.823  15.004 -0.2728 -0.0370  0.7067
 7375TIP3    H143540   5.144   5.822  14.941 -1.2400  0.9419 -0.4688
 7375TIP3    H243541   5.070   5.735  15.042  0.4256 -0.6029 -0.5504
 7376TIP3   OH243542   0.100   6.340  13.932 -0.4385  0.0650  0.0639
 7376TIP3    H143543   0.175   6.317  13.877  0.3770  3.2578 -0.2772
 7376TIP3    H243544   0.035   6.376  13.871 -0.4109  1.5651  0.8772
 7377TIP3   OH243545   0.778   3.717  15.594  0.2038 -0.4326 -0.2962
 7377TIP3    H143546   0.803   3.789  15.652 -0.0682 -0.2161 -0.4531
 7377TIP3    H243547   0.710   3.670  15.643  0.4670 -0.6601 -0.1413
 7378TIP3   OH243548   6.390   0.775  13.858  0.3162 -0.1234 -0.1756
 7378TIP3    H143549   6.302   0.780  13.897  0.2129 -1.0304 -0.2753
 7378TIP3    H243550   6.415   0.866  13.845 -0.9130  0.1434 -0.8145
 7379TIP3   OH243551   1.355   4.702   2.987 -0.3422  0.3014  0.0204
 7379TIP3    H143552   1.314   4.649   3.054 -0.6552 -0.3141 -0.6509
 7379TIP3    H243553   1.385   4.781   3.033 -0.5878 -0.0944  0.8624
 7380TIP3   OH243554   3.620   1.149   3.953  0.5107  0.1205 -0.4793
 7380TIP3    H143555   3.708   1.183   3.970  1.4959 -1.8495 -1.5400
 7380TIP3    H243556   3.587   1.203   3.881  0.5811  1.2752  0.3321
 7381TIP3   OH243557   2.774   6.190   1.597 -0.0892  0.7759  0.0175
 7381TIP3    H143558   2.843   6.251   1.570  1.5849 -1.5873 -1.2457
 7381TIP3    H243559   2.810   6.146   1.674 -0.2688 -0.2713 -0.4823
 7382TIP3   OH243560   0.517   1.112   0.871  0.2587 -0.4630  0.1024
 7382TIP3    H143561   0.454   1.051   0.832  0.0492 -1.4576  1.9287
 7382TIP3    H243562   0.475   1.198   0.863 -1.2155 -1.0830  1.0264
 7383TIP3   OH243563   0.607   6.410   3.461 -0.2081 -0.1903  0.0419
 7383TIP3    H143564   0.584   6.481   3.521 -1.7151 -0.2055 -0.4863
 7383TIP3    H243565   0.669   6.356   3.509  0.3176  1.0463  0.7454
 7384TIP3   OH243566   6.372   6.655   3.659  0.2768 -0.1532  0.3698
 7384TIP3    H143567   6.366   6.616   3.746 -1.8497  0.9432  0.7580
 7384TIP3    H243568   6.282   6.680   3.638  0.7929 -0.1573 -2.0457
 7385TIP3   OH243569   6.181   4.350   5.588  0.5974  0.2386  0.7580
 7385TIP3    H143570   6.251   4.312   5.641  1.0318  0.5819  0.4304
 7385TIP3    H243571   6.136   4.275   5.551 -0.8503 -0.0834  3.0675
 7386TIP3   OH243572   2.674   0.706   0.948 -0.2392 -0.3366 -0.4555
 7386TIP3    H143573   2.615   0.742   0.881 -2.3990 -0.5358  1.3018
 7386TIP3    H243574   2.713   0.783   0.990  0.0647 -0.1907 -0.9937
 7387TIP3   OH243575   4.202   6.307  15.759 -0.0153 -0.4847  0.5585
 7387TIP3    H143576   4.286   6.322  15.715  0.1641 -0.5287  0.8864
 7387TIP3    H243577   4.225   6.276  15.846 -0.3618  0.4230  0.9877
 7388TIP3   OH243578   6.165   0.952   3.609 -0.5990  0.1480 -0.0362
 7388TIP3    H143579   6.113   0.874   3.628 -0.7079  0.9316  3.2778
 7388TIP3    H243580   6.119   1.022   3.654 -1.3128  2.4816 -4.1487
 7389TIP3   OH243581   6.757   2.916   6.199  0.3936  0.3588  0.4733
 7389TIP3    H143582   6.816   2.917   6.275  0.3159  0.6805  0.5275
 7389TIP3    H243583   6.671   2.937   6.235  0.4735  1.1682  0.1874
 7390TIP3   OH243584   2.395   5.382   2.696 -0.1715 -0.5910 -0.5766
 7390TIP3    H143585   2.418   5.349   2.783 -1.8002 -2.6947 -0.9324
 7390TIP3    H243586   2.387   5.304   2.641 -1.1124  0.5756 -2.1495
 7391TIP3   OH243587   5.366   5.742   5.302 -0.0389  0.0590 -0.5281
 7391TIP3    H143588   5.392   5.650   5.301  1.1160  0.3761 -0.8724
 7391TIP3    H243589   5.447   5.789   5.320 -0.6145  1.0160 -0.4158
 7392TIP3   OH243590   1.190   0.657  17.033  0.1923 -0.0456 -0.1244
 7392TIP3    H143591   1.175   0.649  16.938  0.5725  0.0062 -0.1901
 7392TIP3    H243592   1.194   0.751  17.049 -1.0217 -0.0360  0.1271
 7393TIP3   OH243593   6.768   0.503  14.146 -0.2344  0.0579 -0.2589
 7393TIP3    H143594   6.735   0.589  14.172  3.1856  1.8296 -1.4546
 7393TIP3    H243595   6.851   0.493  14.194  0.3837 -1.7060 -1.6032
 7394TIP3   OH243596   2.179   4.344  12.863  0.3445 -0.3569  0.1604
 7394TIP3    H143597   2.189   4.361  12.769 -1.4855  0.4594  0.0904
 7394TIP3    H243598   2.269   4.346  12.897  1.0424 -0.8975 -1.6057
 7395TIP3   OH243599   5.607   0.874   0.001 -0.3870 -0.0965  0.5632
 7395TIP3    H143600   5.512   0.864  -0.013 -0.1507 -0.7352 -0.7265
 7395TIP3    H243601   5.623   0.834   0.086 -1.2901  0.0418  0.8084
 7396TIP3   OH243602   2.193   2.390  14.649 -0.1546 -0.3013 -0.1784
 7396TIP3    H143603   2.256   2.401  14.720  1.3915 -2.1608 -1.2298
 7396TIP3    H243604   2.195   2.472  14.601  1.0927 -0.1732  0.0883
 7397TIP3   OH243605   6.394   4.062   4.625  0.1277  0.2742  0.6102
 7397TIP3    H143606   6.313   4.042   4.578 -0.6599  1.3498  1.4792
 7397TIP3    H243607   6.464   4.048   4.561 -0.7151 -1.0427 -0.0382
 7398TIP3   OH243608   1.771   6.767  11.550  0.2653 -0.6612  0.4676
 7398TIP3    H143609   1.686   6.731  11.524 -0.3481  0.2480  1.1640
 7398TIP3    H243610   1.835   6.713  11.505 -0.7232 -0.1507 -1.6114
 7399TIP3   OH243611   5.803   2.871  12.410 -0.0757  0.0093  0.1780
 7399TIP3    H143612   5.807   2.810  12.484 -0.4350  0.1153  0.2866
 7399TIP3    H243613   5.709   2.882  12.394 -0.0188  0.9238  0.4813
 7400TIP3   OH243614   5.284   5.957  12.553  0.3031 -0.6109 -0.4472
 7400TIP3    H143615   5.190   5.945  12.539  0.1163  0.1887  0.0966
 7400TIP3    H243616   5.301   6.047  12.525  0.3479  0.2556  2.2403
 7401TIP3   OH243617   6.661   2.274  15.328  0.0661  0.4452  0.2834
 7401TIP3    H143618   6.672   2.291  15.235 -1.6807 -0.0668 -0.0240
 7401TIP3    H243619   6.745   2.301  15.367  0.1176  2.5095 -1.1543
 7402TIP3   OH243620   5.883   0.046  11.815 -0.2414  0.2570  0.1889
 7402TIP3    H143621   5.819   0.094  11.763 -1.6264 -2.3227 -0.6102
 7402TIP3    H243622   5.968   0.067  11.775 -1.1822 -0.9090 -2.5405
 7403TIP3   OH243623   0.594   2.548  17.072  0.0848  0.3618 -0.0110
 7403TIP3    H143624   0.638   2.470  17.036 -1.0242 -0.5692  0.6253
 7403TIP3    H243625   0.613   2.617  17.008  2.2654 -0.0632  0.1281
 7404TIP3   OH243626   2.332   5.822  15.824 -0.0486  0.8325  0.2630
 7404TIP3    H143627   2.383   5.825  15.743  0.1848  0.7174  0.4067
 7404TIP3    H243628   2.363   5.743  15.869 -1.6452 -0.2743 -0.5082
 7405TIP3   OH243629   4.932   4.048  16.837  0.2774  0.3124  0.2444
 7405TIP3    H143630   4.843   4.066  16.807  0.1573 -0.1595  0.3267
 7405TIP3    H243631   4.922   4.027  16.930  0.2938 -1.2716 -0.1075
 7406TIP3   OH243632   1.661   1.887   6.512 -0.4143 -0.1233 -0.1932
 7406TIP3    H143633   1.676   1.982   6.504  0.1774 -0.1462  0.5717
 7406TIP3    H243634   1.676   1.868   6.604  1.2038 -1.2492 -0.6573
 7407TIP3   OH243635   0.631   4.996   5.420  0.0517 -0.0676 -0.5836
 7407TIP3    H143636   0.544   4.967   5.393  0.6380 -2.5827  0.0832
 7407TIP3    H243637   0.615   5.059   5.491 -1.2762  1.7772 -2.4660
 7408TIP3   OH243638   0.151   4.013   2.962  0.5890  0.2504  0.1283
 7408TIP3    H143639   0.241   3.989   2.981  0.9372  0.6331 -0.9966
 7408TIP3    H243640   0.112   3.935   2.923  0.9520  0.6338 -1.0300
 7409TIP3   OH243641   1.041   1.822  13.314  0.5154 -0.3729  0.0974
 7409TIP3    H143642   0.988   1.888  13.271 -0.6439 -1.1059  0.3727
 7409TIP3    H243643   1.119   1.868  13.343  0.5542  0.4781 -1.3203
 7410TIP3   OH243644   5.913   4.644   0.958  0.5335 -0.3762 -0.3382
 7410TIP3    H143645   5.981   4.600   0.906  0.4853  1.6436 -2.1746
 7410TIP3    H243646   5.960   4.679   1.034  0.9571 -1.7238  0.0277
 7411TIP3   OH243647   5.250   1.667  11.337  0.9256  0.4415 -0.3303
 7411TIP3    H143648   5.166   1.630  11.364  1.0354  0.5384  0.1547
 7411TIP3    H243649   5.315   1.602  11.364  1.2029  1.3877  1.3679
 7412TIP3   OH243650   0.276   4.200  13.562 -0.2174 -0.0860 -0.0852
 7412TIP3    H143651   0.345   4.263  13.585 -0.0119  0.3772 -1.8746
 7412TIP3    H243652   0.323   4.118  13.548 -0.2627 -0.2155  0.5232
 7413TIP3   OH243653   2.591   5.449   4.743  0.8529  0.2114  0.4147
 7413TIP3    H143654   2.527   5.515   4.768  1.0915  0.6030 -0.0053
 7413TIP3    H243655   2.662   5.498   4.703  0.8776 -0.3363 -0.2160
 7414TIP3   OH243656   4.292   5.214  14.279  0.5917 -0.1532  0.0176
 7414TIP3    H143657   4.239   5.136  14.258 -1.3856  1.0712  0.2803
 7414TIP3    H243658   4.352   5.223  14.205  0.0149 -1.2529 -0.5998
 7415TIP3   OH243659   1.217   2.148  13.609 -0.0976 -0.0119 -0.4245
 7415TIP3    H143660   1.170   2.161  13.527 -0.6396 -0.5218 -0.2003
 7415TIP3    H243661   1.169   2.200  13.673  0.9559  1.2564 -0.6367
 7416TIP3   OH243662   3.305   3.334  15.246 -0.4115  0.0920 -0.1894
 7416TIP3    H143663   3.311   3.428  15.262  1.6696 -0.0604  0.1611
 7416TIP3    H243664   3.213   3.312  15.261 -0.6554  1.8458  1.0077
 7417TIP3   OH243665   0.380   5.947   1.283 -0.1429  0.3054  0.1058
 7417TIP3    H143666   0.465   5.955   1.325 -1.3826 -0.6004  2.9650
 7417TIP3    H243667   0.347   6.036   1.275  0.1886  0.5058  0.9701
 7418TIP3   OH243668   2.862   6.115   3.572 -0.4591 -0.3961 -0.1015
 7418TIP3    H143669   2.768   6.124   3.586 -0.3902 -0.4207  0.3843
 7418TIP3    H243670   2.892   6.058   3.643 -0.1913 -0.9738 -0.6679
 7419TIP3   OH243671   0.189   4.935   1.823  0.4514  0.0425  0.3129
 7419TIP3    H143672   0.148   4.923   1.737 -0.7649  1.2568  0.7308
 7419TIP3    H243673   0.123   4.909   1.886 -0.1783  3.2321  1.0362
 7420TIP3   OH243674   2.331   5.198  10.917 -0.4116  0.0779  0.0020
 7420TIP3    H143675   2.408   5.252  10.938  0.1540 -0.7213  0.0191
 7420TIP3    H243676   2.305   5.226  10.830  0.0235  0.2235 -0.0852
 7421TIP3   OH243677   3.396   0.886   6.423 -0.5839  0.2529  0.0294
 7421TIP3    H143678   3.318   0.834   6.404 -0.9313  1.0784 -0.8324
 7421TIP3    H243679   3.434   0.904   6.337  1.0056 -0.8180  0.4834
 7422TIP3   OH243680   5.317   2.816   2.544 -0.3722  0.9112 -0.1595
 7422TIP3    H143681   5.266   2.846   2.469  0.3335  2.1590 -0.1400
 7422TIP3    H243682   5.361   2.736   2.513 -1.2530  0.5899 -0.5965
 7423TIP3   OH243683   2.846   3.768  15.067  0.2794  0.1548 -0.1580
 7423TIP3    H143684   2.894   3.784  14.986  0.7444  1.1064  0.3022
 7423TIP3    H243685   2.764   3.727  15.038 -0.8490  3.1476 -1.3614
 7424TIP3   OH243686   6.670   2.975  13.047 -0.1574 -0.0534 -0.2436
 7424TIP3    H143687   6.628   3.022  13.119  0.2911 -0.2445  0.1483
 7424TIP3    H243688   6.755   2.949  13.082  0.0770 -0.1259 -0.8536
 7425TIP3   OH243689   1.382   3.861   5.055 -0.0027 -0.3468 -0.3095
 7425TIP3    H143690   1.444   3.800   5.016  0.3239 -0.7862  0.8836
 7425TIP3    H243691   1.426   3.894   5.134  0.0789  1.8988 -1.2562
 7426TIP3   OH243692   0.689   0.275  14.233 -0.5051  0.3883 -0.0767
 7426TIP3    H143693   0.705   0.181  14.229 -4.2223 -0.2890 -1.6973
 7426TIP3    H243694   0.621   0.285  14.300  0.1872  1.9707  0.4011
 7427TIP3   OH243695   6.358   6.545  16.409 -0.4435 -0.5178 -0.0593
 7427TIP3    H143696   6.403   6.601  16.472 -1.4273 -1.1221  1.1981
 7427TIP3    H243697   6.271   6.584  16.400  0.2827  0.6503 -2.4765
 7428TIP3   OH243698   1.207   4.270   6.443  0.1530  0.4415  0.5225
 7428TIP3    H143699   1.148   4.247   6.371 -0.5110 -1.3039  1.5979
 7428TIP3    H243700   1.163   4.342   6.488 -0.9485 -0.5280  1.0247
 7429TIP3   OH243701   0.482   4.834   0.677 -0.4519  0.1886 -0.2092
 7429TIP3    H143702   0.553   4.895   0.699 -0.4007  1.0453 -2.5550
 7429TIP3    H243703   0.475   4.840   0.582 -2.7826 -0.9119 -0.1258
 7430TIP3   OH243704   2.988   3.647   4.240  1.5633 -0.3547  0.5032
 7430TIP3    H143705   2.938   3.574   4.203 -0.9706  1.2664  0.5607
 7430TIP3    H243706   3.053   3.668   4.173 -0.4609  0.0462 -1.4012
 7431TIP3   OH243707   2.611   6.365  15.774 -0.4096  0.0803 -0.0332
 7431TIP3    H143708   2.600   6.416  15.854 -0.4567 -1.6750  1.1085
 7431TIP3    H243709   2.563   6.284  15.791  1.1316 -1.0841 -1.1211
 7432TIP3   OH243710   1.059   5.896   2.455  0.3589  0.0548  0.0314
 7432TIP3    H143711   1.137   5.865   2.409  0.0865  0.5925 -0.8010
 7432TIP3    H243712   1.017   5.816   2.487  0.9267 -0.2741 -0.0331
 7433TIP3   OH243713   4.814   5.892  10.545  0.1545 -0.3345 -0.1299
 7433TIP3    H143714   4.901   5.926  10.525 -0.5417  0.7113 -1.4615
 7433TIP3    H243715   4.827   5.835  10.621  1.7077  1.1141  0.7099
 7434TIP3   OH243716   5.972   2.064  10.610  0.1299  0.2248  0.6803
 7434TIP3    H143717   5.969   2.096  10.700 -0.7377 -0.5335  0.9227
 7434TIP3    H243718   5.880   2.050  10.586  0.3992 -0.3164 -0.0520
 7435TIP3   OH243719   6.758   5.969   4.382  0.6794  0.3116  0.7256
 7435TIP3    H143720   6.696   5.900   4.358 -1.0679  0.9664  3.1594
 7435TIP3    H243721   6.732   5.994   4.471  3.7697  1.3745  1.3813
 7436TIP3   OH243722   0.141   3.221  13.155  0.6817  0.0005  0.7185
 7436TIP3    H143723   0.140   3.306  13.110  1.5853  0.3247  1.2964
 7436TIP3    H243724   0.061   3.220  13.207  0.9789  0.7560  1.1890
 7437TIP3   OH243725   1.261   6.691   4.018  0.3028 -0.4746  0.0617
 7437TIP3    H143726   1.335   6.637   4.048  0.9645  0.2552 -0.2655
 7437TIP3    H243727   1.256   6.762   4.082 -0.5704 -0.9088  0.4888
 7438TIP3   OH243728   3.975   2.381   0.239  0.4550  0.3398  0.4501
 7438TIP3    H143729   4.063   2.414   0.257  1.4434 -2.8964  2.0288
 7438TIP3    H243730   3.948   2.337   0.321 -1.7373 -0.5660 -0.7021
 7439TIP3   OH243731   2.775   1.161   0.117 -0.2882  0.0211  0.6748
 7439TIP3    H143732   2.851   1.125   0.072 -1.5734  0.4833 -1.9461
 7439TIP3    H243733   2.787   1.256   0.112  0.3038  0.0803  2.6854
 7440TIP3   OH243734   3.056   5.677   0.554 -0.5003 -0.7930  0.0979
 7440TIP3    H143735   3.057   5.749   0.617 -0.2217  0.3918 -1.2333
 7440TIP3    H243736   2.984   5.699   0.494  0.5458 -0.8450 -1.1897
 7441TIP3   OH243737   5.632   6.674   1.755 -0.6244 -0.0406 -0.1122
 7441TIP3    H143738   5.564   6.680   1.821 -0.5199  0.7167 -0.0660
 7441TIP3    H243739   5.590   6.706   1.675 -0.6059 -0.4786 -0.2941
 7442TIP3   OH243740   1.944   0.230   4.836 -0.0451 -0.1168 -0.2091
 7442TIP3    H143741   1.961   0.303   4.777  1.6343  0.6610  1.1767
 7442TIP3    H243742   2.029   0.188   4.848 -0.2328  0.0383  1.9738
 7443TIP3   OH243743   6.036   2.801  17.017 -0.0050  0.2481 -0.6563
 7443TIP3    H143744   6.076   2.778  16.933  1.1119  0.9337 -0.3132
 7443TIP3    H243745   6.057   2.893  17.030 -2.5998  0.9451 -0.9702
 7444TIP3   OH243746   1.775   6.349  15.028  0.5100 -0.5322  0.0506
 7444TIP3    H143747   1.733   6.274  15.071  0.7621 -1.0064 -0.5287
 7444TIP3    H243748   1.859   6.358  15.073  0.3142 -0.3539  0.3816
 7445TIP3   OH243749   6.019   2.597   4.642 -0.3367  0.2692  0.3460
 7445TIP3    H143750   6.050   2.627   4.557  0.5447 -1.5005  0.0207
 7445TIP3    H243751   5.949   2.659   4.666 -0.5896  0.7759 -1.6459
 7446TIP3   OH243752   6.423   0.384  14.636 -0.6527 -0.1418 -0.9327
 7446TIP3    H143753   6.475   0.305  14.647  0.3697  0.2940 -2.4276
 7446TIP3    H243754   6.332   0.354  14.637 -0.2544 -1.3987 -1.9532
 7447TIP3   OH243755   1.437   3.773  17.006 -1.1514 -0.2213  0.2772
 7447TIP3    H143756   1.457   3.837  16.938 -1.2445  2.4273  2.6796
 7447TIP3    H243757   1.481   3.693  16.977  0.4356  1.4056 -1.9202
 7448TIP3   OH243758   0.479   1.420  14.536  0.1450  0.5166 -0.2011
 7448TIP3    H143759   0.433   1.350  14.584  2.9586 -1.9423 -0.9355
 7448TIP3    H243760   0.506   1.481  14.604 -1.1901  0.2275  0.6230
 7449TIP3   OH243761   0.494   1.804   2.040 -0.3060  0.6951 -0.3507
 7449TIP3    H143762   0.485   1.897   2.023 -1.8626  0.4420 -0.9472
 7449TIP3    H243763   0.480   1.762   1.955  1.9301 -0.0205 -0.4167
 7450TIP3   OH243764   0.755   1.635   0.741  0.0419 -0.2871  0.1273
 7450TIP3    H143765   0.770   1.645   0.647 -0.0505 -0.2095  0.1201
 7450TIP3    H243766   0.839   1.608   0.776 -0.4877 -2.6307 -0.2961
 7451TIP3   OH243767   3.625   0.123   5.363 -0.1979  1.1283  0.8341
 7451TIP3    H143768   3.646   0.212   5.334  0.8321  0.0049 -1.9862
 7451TIP3    H243769   3.709   0.087   5.394 -0.2324  0.5035  0.2099
 7452TIP3   OH243770   5.454   2.564   0.567 -0.1889  0.2095  0.2323
 7452TIP3    H143771   5.439   2.501   0.637  0.1849  1.3551  1.3662
 7452TIP3    H243772   5.402   2.532   0.493 -1.1468 -0.6167  1.2621
 7453TIP3   OH243773   3.635   1.883  11.848 -0.1233 -0.0947 -0.6924
 7453TIP3    H143774   3.609   1.813  11.907 -0.7963 -2.3552 -3.5163
 7453TIP3    H243775   3.720   1.913  11.881 -0.5895 -1.1517  1.4986
 7454TIP3   OH243776   4.087   2.530  12.205 -0.5482  0.1238  0.4749
 7454TIP3    H143777   4.099   2.622  12.183 -2.1391 -0.3932 -2.8449
 7454TIP3    H243778   4.171   2.503  12.242  1.5019  1.7781 -2.7847
 7455TIP3   OH243779   5.232   6.025   5.185 -0.8574  0.1692 -0.5838
 7455TIP3    H143780   5.278   5.966   5.125 -0.2706  1.2584 -1.2319
 7455TIP3    H243781   5.141   6.024   5.155 -0.5149  0.9349 -1.6928
 7456TIP3   OH243782   1.903   0.935  15.057 -0.3445 -0.0532 -0.0817
 7456TIP3    H143783   1.969   0.919  15.124  1.8818  2.0999 -1.6949
 7456TIP3    H243784   1.953   0.945  14.975 -2.8659 -1.0182 -1.8103
 7457TIP3   OH243785   0.125   0.151  11.801  0.2021  0.0496  0.1977
 7457TIP3    H143786   0.134   0.235  11.757  0.0649 -0.6494 -1.1850
 7457TIP3    H243787   0.032   0.128  11.791  0.3029 -0.4089  0.2893
 7458TIP3   OH243788   3.801   6.383   3.358 -0.0100  0.3533 -0.3777
 7458TIP3    H143789   3.778   6.318   3.291 -0.9115 -0.3392  0.5822
 7458TIP3    H243790   3.749   6.460   3.335 -1.5640 -0.4233  0.4296
 7459TIP3   OH243791   6.243   4.508   0.937 -0.2087 -0.5944  0.5435
 7459TIP3    H143792   6.276   4.554   1.014  0.1373 -1.5421  0.9668
 7459TIP3    H243793   6.232   4.417   0.966  2.8377 -1.6424 -1.3710
 7460TIP3   OH243794   6.723   1.319   0.502 -0.0320  0.1965 -0.0147
 7460TIP3    H143795   6.699   1.409   0.524 -1.4098  0.1630 -1.3330
 7460TIP3    H243796   6.724   1.273   0.586  0.8072  1.4683  0.6795
 7461TIP3   OH243797   4.246   4.111   2.451 -0.2202 -0.1081  0.0820
 7461TIP3    H143798   4.270   4.046   2.386  2.7484  1.2069 -0.2129
 7461TIP3    H243799   4.226   4.190   2.400  0.1915  0.3703  0.6485
 7462TIP3   OH243800   6.389   4.453   2.775  0.4055 -0.1540 -0.6008
 7462TIP3    H143801   6.340   4.454   2.693  1.7615  1.6336 -1.4173
 7462TIP3    H243802   6.365   4.535   2.818 -1.1538 -1.5621  1.3542
 7463TIP3   OH243803   6.759   4.729  14.326 -0.1599 -0.4041 -0.6861
 7463TIP3    H143804   6.751   4.756  14.418 -0.3498  0.0434 -0.8337
 7463TIP3    H243805   6.852   4.710  14.315  0.0055  0.3321 -0.6181
 7464TIP3   OH243806   4.974   5.444   1.102 -0.5113  0.3610 -0.3925
 7464TIP3    H143807   5.057   5.401   1.084  0.3980  2.7118 -2.1106
 7464TIP3    H243808   4.922   5.378   1.147  1.5725 -1.7900 -1.0311
 7465TIP3   OH243809   1.552   6.575   0.032  0.1336 -0.0279  0.1257
 7465TIP3    H143810   1.630   6.550   0.081  0.9458 -0.6001 -1.4134
 7465TIP3    H243811   1.499   6.495   0.028  0.3512 -0.1471 -0.4332
 7466TIP3   OH243812   6.068   3.356  15.230  0.0403 -0.0592 -0.0653
 7466TIP3    H143813   6.130   3.325  15.296  0.1317 -1.4874 -0.8100
 7466TIP3    H243814   6.110   3.433  15.191 -0.4479  1.4108  2.2069
 7467TIP3   OH243815   4.741   3.485  11.858 -0.3812 -0.2217 -0.5738
 7467TIP3    H143816   4.815   3.473  11.799  0.1295 -1.7634  0.3477
 7467TIP3    H243817   4.764   3.564  11.908 -0.3523  0.5087 -1.7168
 7468TIP3   OH243818   1.161   1.664   1.024  0.0912 -0.3582 -0.3947
 7468TIP3    H143819   1.113   1.585   1.052  1.9628 -1.5197 -0.3565
 7468TIP3    H243820   1.174   1.714   1.105 -2.5757  0.8746 -0.6644
 7469TIP3   OH243821   3.754   1.040  14.663 -0.3666 -0.1089  0.7350
 7469TIP3    H143822   3.661   1.018  14.666 -0.3575 -0.2546 -0.0953
 7469TIP3    H243823   3.768   1.075  14.575  0.5393 -0.8631  0.5784
 7470TIP3   OH243824   0.504   0.890  15.143  0.4384  0.0484 -0.4185
 7470TIP3    H143825   0.458   0.874  15.060  1.0804 -0.8749 -0.6055
 7470TIP3    H243826   0.457   0.837  15.207  0.9259 -0.5176 -0.5175
 7471TIP3   OH243827   3.475   3.733  12.976 -0.0775  0.3002 -0.4788
 7471TIP3    H143828   3.390   3.692  12.990  0.8259 -1.4786 -0.1040
 7471TIP3    H243829   3.480   3.748  12.881  0.3095 -2.1162 -0.8652
 7472TIP3   OH243830   6.522   5.490  13.073 -0.0304  0.0349 -0.2285
 7472TIP3    H143831   6.500   5.572  13.117 -1.7305 -0.2791 -0.4824
 7472TIP3    H243832   6.520   5.424  13.142  0.9954  0.1428 -0.0888
 7473TIP3   OH243833   5.490   1.779   3.792 -0.9452 -0.3142 -0.3105
 7473TIP3    H143834   5.446   1.764   3.876 -0.6860  1.6725  0.2099
 7473TIP3    H243835   5.564   1.719   3.793 -1.1085 -0.5099  0.7526
 7474TIP3   OH243836   2.760   3.442  11.592 -0.2527  0.2190  0.3409
 7474TIP3    H143837   2.801   3.462  11.508  1.1497 -1.1786  0.6753
 7474TIP3    H243838   2.673   3.481  11.586 -0.2655 -0.0992 -1.8535
 7475TIP3   OH243839   1.900   5.594   2.676  0.1311  0.0528  0.3233
 7475TIP3    H143840   1.874   5.512   2.633  1.0282  0.7053 -1.5334
 7475TIP3    H243841   1.818   5.643   2.685 -0.1751 -0.3983  0.0100
 7476TIP3   OH243842   2.408   5.819   0.428  0.4846 -0.2756 -0.0515
 7476TIP3    H143843   2.484   5.776   0.467 -0.6785 -1.3874  1.0261
 7476TIP3    H243844   2.415   5.798   0.335  0.5818 -1.8005  0.2851
 7477TIP3   OH243845   3.380   1.341   1.711  0.2686  0.2148  0.2307
 7477TIP3    H143846   3.395   1.411   1.774 -0.2562 -1.6056  2.4342
 7477TIP3    H243847   3.431   1.367   1.634 -0.4677  3.3343  0.7334
 7478TIP3   OH243848   4.688   1.511  11.553 -0.4084 -0.1636  0.0646
 7478TIP3    H143849   4.639   1.497  11.472  1.6401 -1.0343 -1.0791
 7478TIP3    H243850   4.705   1.422  11.586 -0.1746  0.1477  0.7879
 7479TIP3   OH243851   5.542   0.616   2.969 -0.4361  0.1293  0.1123
 7479TIP3    H143852   5.612   0.581   2.914 -0.3977  0.0859  0.1889
 7479TIP3    H243853   5.572   0.704   2.993 -0.2943  0.0148  0.3511
 7480TIP3   OH243854   1.145   6.288   4.479  0.7346  0.3750  0.7523
 7480TIP3    H143855   1.076   6.294   4.413  1.5481  1.1145 -0.0545
 7480TIP3    H243856   1.118   6.217   4.537  0.0682 -0.3681 -0.4565
 7481TIP3   OH243857   6.138   4.252  15.053  0.6594 -0.1194  0.3464
 7481TIP3    H143858   6.195   4.179  15.027  0.9669  0.7612 -1.5183
 7481TIP3    H243859   6.050   4.219  15.037  0.6259 -1.1452  2.3627
 7482TIP3   OH243860   5.362   2.033  14.977  0.1666  0.2166 -0.0007
 7482TIP3    H143861   5.268   2.016  14.980  0.1964  0.0073 -0.2985
 7482TIP3    H243862   5.368   2.128  14.964  0.0016  0.3305  0.6981
 7483TIP3   OH243863   2.659   0.098  14.359 -0.1095  0.3376 -0.6548
 7483TIP3    H143864   2.671   0.164  14.291 -1.6322 -1.0984 -2.3377
 7483TIP3    H243865   2.737   0.042  14.353 -1.7061 -1.6545 -3.3403
 7484TIP3   OH243866   4.064   1.359   5.094 -0.2462  0.2161 -0.1405
 7484TIP3    H143867   4.154   1.329   5.107 -0.6330 -0.3552  1.3168
 7484TIP3    H243868   4.028   1.366   5.182 -0.5923  3.7748 -0.4950
 7485TIP3   OH243869   3.098   5.074   5.667  0.5486  0.0540 -0.3488
 7485TIP3    H143870   3.082   5.043   5.577  1.0327 -1.7713  0.1691
 7485TIP3    H243871   3.088   4.996   5.721 -0.0635  1.2141  1.2401
 7486TIP3   OH243872   3.887   3.909  13.576 -0.1715  1.0182  0.0674
 7486TIP3    H143873   3.807   3.862  13.553  0.6258 -1.0521  1.3411
 7486TIP3    H243874   3.862   4.001  13.577 -2.5211  0.3972  0.4550
 7487TIP3   OH243875   2.361   2.883   4.752 -0.2019 -0.0638  0.4656
 7487TIP3    H143876   2.289   2.822   4.765  0.1233 -0.9689 -1.8554
 7487TIP3    H243877   2.440   2.832   4.773 -0.0129 -0.0517 -0.2265
 7488TIP3   OH243878   0.676   0.244  12.360  0.2596  0.1238 -0.3234
 7488TIP3    H143879   0.741   0.218  12.426  0.3261 -0.1296 -0.4851
 7488TIP3    H243880   0.594   0.208  12.392 -0.2308  2.3604  1.0297
 7489TIP3   OH243881   4.043   6.021   5.688 -0.2154  0.2912  0.0347
 7489TIP3    H143882   4.091   6.080   5.746  0.1559  0.7868 -0.7619
 7489TIP3    H243883   4.109   5.984   5.630 -0.5552 -0.3304  0.0355
 7490TIP3   OH243884   0.125   1.846  16.200 -0.3623 -0.4305 -0.0215
 7490TIP3    H143885   0.050   1.810  16.151 -0.0210  0.0413 -0.9060
 7490TIP3    H243886   0.127   1.938  16.176  0.0021 -0.2575  0.6552
 7491TIP3   OH243887   0.931   4.963   3.499  0.1502 -0.5690  0.1981
 7491TIP3    H143888   0.902   5.038   3.448 -0.5686 -0.5756  0.5882
 7491TIP3    H243889   1.015   4.989   3.536 -0.3165  0.2171  0.7111
 7492TIP3   OH243890   3.065   2.533  12.654  0.0662 -0.3692  0.3465
 7492TIP3    H143891   3.158   2.514  12.666 -0.5938 -3.7396  0.7002
 7492TIP3    H243892   3.027   2.521  12.741 -0.6251  1.7355  0.3692
 7493TIP3   OH243893   0.332   3.085   4.016  0.0159 -0.0544 -0.0489
 7493TIP3    H143894   0.419   3.126   4.013  0.9891 -2.1306 -0.8665
 7493TIP3    H243895   0.303   3.098   4.107  1.0613  0.8499  0.1747
 7494TIP3   OH243896   0.051   6.184  14.596 -0.3579 -0.1272  0.1960
 7494TIP3    H143897   0.122   6.209  14.655  0.2570  0.6536 -0.8697
 7494TIP3    H243898  -0.004   6.262  14.589  0.0643  0.0792 -0.9646
 7495TIP3   OH243899   3.377   0.839   0.767  0.6013  0.7767  0.0855
 7495TIP3    H143900   3.350   0.779   0.837 -0.5959  1.0052 -0.1607
 7495TIP3    H243901   3.357   0.792   0.687  0.1739  1.2833 -0.1064
 7496TIP3   OH243902   4.631   0.471  15.956 -0.1860 -0.4404 -0.2722
 7496TIP3    H143903   4.586   0.468  16.040 -0.2863 -1.8207 -0.3614
 7496TIP3    H243904   4.568   0.511  15.896 -1.0023 -1.6303 -0.2222
 7497TIP3   OH243905   1.755   4.579  13.334  0.2021 -0.2104  0.3419
 7497TIP3    H143906   1.841   4.588  13.294 -0.3663 -0.3676 -0.9430
 7497TIP3    H243907   1.726   4.669  13.348  0.2028 -0.1499 -0.0438
 7498TIP3   OH243908   5.767   2.811  16.783  0.0975 -0.1011 -0.3088
 7498TIP3    H143909   5.811   2.896  16.786 -0.5115  0.2982 -1.9220
 7498TIP3    H243910   5.691   2.827  16.727 -0.8221 -1.3515  0.5767
 7499TIP3   OH243911   3.203   2.666   4.359 -0.0515 -0.0990  0.3018
 7499TIP3    H143912   3.290   2.701   4.339  1.0517 -1.7430  2.0010
 7499TIP3    H243913   3.145   2.743   4.358  1.2707  0.9074 -1.5801
 7500TIP3   OH243914   0.116   3.507  12.599  0.3849  0.4164 -0.4946
 7500TIP3    H143915   0.170   3.563  12.655  0.0397 -0.2115  0.4665
 7500TIP3    H243916   0.145   3.528  12.510  1.1846  1.1541 -0.0688
 7501TIP3   OH243917   5.052   2.707   4.312  0.2177 -0.4166  0.0923
 7501TIP3    H143918   5.027   2.777   4.372  0.2320  1.2129 -1.7169
 7501TIP3    H243919   5.138   2.678   4.341  1.2957  2.0252 -0.5607
 7502TIP3   OH243920   1.422   6.388   2.315 -0.1310 -0.1294 -0.0207
 7502TIP3    H143921   1.414   6.334   2.237  1.9452 -0.3257 -0.1327
 7502TIP3    H243922   1.350   6.360   2.372 -0.9162 -0.8335 -1.3449
 7503TIP3   OH243923   0.655   1.247  17.139  0.4223  0.3669 -0.4160
 7503TIP3    H143924   0.562   1.271  17.134  0.4274  0.5189  0.1031
 7503TIP3    H243925   0.681   1.233  17.049  0.1385  1.3020 -0.6592
 7504TIP3   OH243926   2.894   3.145   0.399 -0.6576 -0.3566 -0.0373
 7504TIP3    H143927   2.875   3.202   0.473 -0.9144  1.5085 -1.5076
 7504TIP3    H243928   2.821   3.158   0.339  0.9640  0.4152 -1.9278
 7505TIP3   OH243929   4.402   0.561  15.800 -0.3020  0.4504  0.4403
 7505TIP3    H143930   4.357   0.547  15.884  0.4669  1.5856  1.0591
 7505TIP3    H243931   4.333   0.581  15.738 -0.9991 -1.5529  0.5330
 7506TIP3   OH243932   6.145   5.965   3.980  0.1384  0.0604  0.3579
 7506TIP3    H143933   6.174   6.018   3.907  0.3137 -0.2424  0.2051
 7506TIP3    H243934   6.067   6.009   4.013 -0.2219 -0.0660 -0.3148
 7507TIP3   OH243935   2.411   5.472  15.233  0.3619  0.1751  0.0036
 7507TIP3    H143936   2.352   5.463  15.158  1.4044  0.8702 -0.9111
 7507TIP3    H243937   2.405   5.564  15.258 -0.7964 -0.2656  1.4850
 7508TIP3   OH243938   0.979   2.632  10.670 -0.8279  0.5595  0.3504
 7508TIP3    H143939   1.035   2.649  10.746 -3.8274 -0.7136  2.9768
 7508TIP3    H243940   0.977   2.714  10.622  2.2390  0.9854  0.8481
 7509TIP3   OH243941   0.011   5.227  17.239 -0.0059 -0.8161 -0.4365
 7509TIP3    H143942  -0.073   5.193  17.208  0.5917 -1.6700 -1.1470
 7509TIP3    H243943   0.032   5.298  17.178 -0.3090 -0.4448 -0.1178
 7510TIP3   OH243944   3.040   5.203  12.059  0.0768 -0.2178 -0.6548
 7510TIP3    H143945   2.970   5.140  12.074 -0.5592  0.8868  1.0595
 7510TIP3    H243946   3.004   5.287  12.086  1.4442  0.6623 -1.4728
 7511TIP3   OH243947   3.635   5.748  15.902  0.0439  0.3513 -0.2105
 7511TIP3    H143948   3.657   5.723  15.992 -0.2367  0.2171 -0.1794
 7511TIP3    H243949   3.627   5.843  15.905  1.9186  0.5544 -0.5012
 7512TIP3   OH243950   2.716   6.153  11.432  0.1237  0.2430  0.3871
 7512TIP3    H143951   2.728   6.167  11.526  2.1850  2.4107 -0.1736
 7512TIP3    H243952   2.737   6.237  11.392 -3.2492  0.1232 -1.8684
 7513TIP3   OH243953   1.670   4.594   5.866 -0.2532  0.0827  0.1590
 7513TIP3    H143954   1.668   4.689   5.876 -1.1448  0.0255  0.4844
 7513TIP3    H243955   1.721   4.563   5.941 -0.0806  0.2926  0.1279
 7514TIP3   OH243956   5.040   6.324   5.570 -0.0957 -0.0876  0.7468
 7514TIP3    H143957   5.012   6.239   5.603  0.4051 -0.4525  0.2488
 7514TIP3    H243958   4.960   6.367   5.540 -0.3985 -0.2218  1.3756
 7515TIP3   OH243959   0.580   6.362   0.810  0.5277  0.1082  0.1969
 7515TIP3    H143960   0.581   6.445   0.857 -1.3597 -0.5008  1.3754
 7515TIP3    H243961   0.512   6.373   0.743 -0.9757 -1.0225  1.4744
 7516TIP3   OH243962   5.361   4.031   3.534  0.3247  0.5980 -0.4063
 7516TIP3    H143963   5.404   4.109   3.497  0.2466  0.4020 -0.9068
 7516TIP3    H243964   5.357   4.049   3.628  0.5164  1.0994 -0.4916
 7517TIP3   OH243965   4.563   1.907  12.613 -0.3127  0.3562 -0.1731
 7517TIP3    H143966   4.656   1.910  12.636 -0.4340  0.2535  0.3331
 7517TIP3    H243967   4.558   1.958  12.532  0.0129  1.3421  0.4097
 7518TIP3   OH243968   4.205   4.724  14.026  0.6714 -0.0782 -0.0695
 7518TIP3    H143969   4.150   4.645  14.030  0.1632  0.3445  1.2704
 7518TIP3    H243970   4.294   4.690  14.024  0.4570 -0.6897  0.5602
 7519TIP3   OH243971   3.244   2.888  13.125  0.0781  0.0520  0.0492
 7519TIP3    H143972   3.212   2.973  13.096  0.9145  0.5292  0.5021
 7519TIP3    H243973   3.269   2.842  13.045 -0.4795  0.1888 -0.2016
 7520TIP3   OH243974   2.919   4.508   4.411  0.3639 -0.0995 -0.1948
 7520TIP3    H143975   2.895   4.440   4.349 -0.4631  0.3253 -0.3500
 7520TIP3    H243976   2.842   4.517   4.467  0.4674  0.7031 -0.1746
 7521TIP3   OH243977   3.311   6.239  15.441  0.0984  0.3233  0.4576
 7521TIP3    H143978   3.254   6.236  15.364 -3.0437 -1.3473  2.7564
 7521TIP3    H243979   3.303   6.329  15.474  0.2810  0.6155 -0.2843
 7522TIP3   OH243980   4.556   3.066  12.056  0.0139 -0.0146  0.6357
 7522TIP3    H143981   4.494   3.096  11.990  0.6117 -0.1249  0.0072
 7522TIP3    H243982   4.636   3.117  12.038  0.3204 -0.3685  0.9818
 7523TIP3   OH243983   5.055   5.186  14.242  0.0222  0.6141 -0.8469
 7523TIP3    H143984   5.041   5.099  14.203  0.2860  1.4173 -2.7841
 7523TIP3    H243985   5.068   5.244  14.167  1.1311  2.1174  0.4802
 7524TIP3   OH243986   3.390   6.444  16.690  0.2354  0.0234 -0.4197
 7524TIP3    H143987   3.430   6.508  16.749 -1.0281  0.3482  0.0805
 7524TIP3    H243988   3.451   6.439  16.616  2.5658 -1.4194  1.5125
 7525TIP3   OH243989   0.068   5.955  12.552 -0.3296 -0.2458  0.2466
 7525TIP3    H143990   0.140   6.017  12.549 -0.3617 -0.2265 -0.1454
 7525TIP3    H243991   0.042   5.943  12.460 -0.1874 -0.9942  0.3002
 7526TIP3   OH243992   0.035   6.563   0.408 -0.0008 -0.5487  0.0045
 7526TIP3    H143993   0.057   6.524   0.323  0.5796  1.1402 -0.6416
 7526TIP3    H243994  -0.051   6.603   0.395  1.5097  2.6339 -0.8468
 7527TIP3   OH243995   5.163   3.117  11.211  0.0018 -0.0633 -1.0207
 7527TIP3    H143996   5.232   3.147  11.269 -1.0757  1.0896 -0.3246
 7527TIP3    H243997   5.204   3.046  11.160  1.5590  0.3304 -0.3458
 7528TIP3   OH243998   5.746   2.938  15.458  0.6067  0.4295  0.0957
 7528TIP3    H143999   5.835   2.946  15.423  0.3623 -0.0294 -0.6343
 7528TIP3    H244000   5.705   3.022  15.438  0.4296  0.1250 -0.8301
 7529TIP3   OH244001   3.612   2.019   4.414  0.5969 -0.7047  0.1991
 7529TIP3    H144002   3.631   1.951   4.350 -1.0236 -0.5847 -0.4318
 7529TIP3    H244003   3.576   1.972   4.490 -1.7588 -0.4963 -0.7291
 7530TIP3   OH244004   5.138   3.621   3.291 -0.1911  0.0376  0.2116
 7530TIP3    H144005   5.073   3.689   3.271 -1.1104 -1.3084 -1.5146
 7530TIP3    H244006   5.111   3.586   3.376 -0.7917  0.5441  0.2361
 7531TIP3   OH244007   1.629   3.979  11.980 -0.5492 -0.2433  0.8711
 7531TIP3    H144008   1.664   3.945  12.063  1.8843 -0.2318 -0.1148
 7531TIP3    H244009   1.640   3.908  11.918 -0.0536  0.6091 -0.0326
 7532TIP3   OH244010   6.700   5.623   0.085 -0.6449  0.1004 -0.2873
 7532TIP3    H144011   6.653   5.556   0.135  0.9103 -0.5068  0.3777
 7532TIP3    H244012   6.782   5.636   0.132  0.2766  0.4707 -1.9441
 7533TIP3   OH244013   5.055   5.137   0.345 -0.2154  0.3507 -0.4528
 7533TIP3    H144014   4.993   5.199   0.384 -0.5991 -0.0520 -0.4211
 7533TIP3    H244015   5.062   5.164   0.254 -0.2629  0.5350 -0.4021
 7534TIP3   OH244016   2.136   0.996   1.185  0.1500  0.0507  0.0570
 7534TIP3    H144017   2.067   1.057   1.213  1.1300  1.3285 -0.2646
 7534TIP3    H244018   2.188   0.982   1.263 -0.2843 -0.6702  0.2206
 7535TIP3   OH244019   5.894   4.232   1.229  0.1376 -0.0863  0.5737
 7535TIP3    H144020   5.914   4.177   1.305 -1.7174 -1.3068  0.2264
 7535TIP3    H244021   5.808   4.269   1.248 -0.2857 -0.2860 -0.8482
 7536TIP3   OH244022   4.149   2.396  12.925 -0.1133  0.2757  0.3037
 7536TIP3    H144023   4.129   2.436  12.840  0.8070 -0.6591 -0.3694
 7536TIP3    H244024   4.153   2.302  12.907 -2.4541 -0.1873  1.9066
 7537TIP3   OH244025   4.259   1.923  16.585 -0.1629 -0.5078 -0.4129
 7537TIP3    H144026   4.305   1.860  16.640  0.3498  0.9659  0.8914
 7537TIP3    H244027   4.327   1.982  16.554 -1.0502  1.2850  0.9782
 7538TIP3   OH244028   4.978   2.078  11.808  0.3217  0.2828 -0.0316
 7538TIP3    H144029   4.932   2.024  11.872  1.4887 -1.5010 -0.6498
 7538TIP3    H244030   5.070   2.076  11.836  0.2786  2.7183  0.4493
 7539TIP3   OH244031   1.387   2.943  16.153  0.0320 -0.3423  0.2661
 7539TIP3    H144032   1.347   2.930  16.239  0.7337  2.5154  1.0881
 7539TIP3    H244033   1.320   2.989  16.102  0.3088 -0.3237 -0.0828
 7540TIP3   OH244034   3.040   6.734  13.362 -0.1919  0.2724  0.1837
 7540TIP3    H144035   3.010   6.773  13.444 -0.2606  0.5313  0.0364
 7540TIP3    H244036   3.065   6.809  13.308  1.0805  0.0506  0.4381
 7541TIP3   OH244037   4.191   5.609   2.537  0.0278  0.7719 -0.3736
 7541TIP3    H144038   4.141   5.548   2.482 -0.5437  1.1477 -0.2723
 7541TIP3    H244039   4.128   5.678   2.560  0.9690  2.0352 -1.4765
 7542TIP3   OH244040   2.199   1.178  12.668  0.0997  0.2809  0.4280
 7542TIP3    H144041   2.236   1.242  12.608 -1.0000 -0.1044 -0.6949
 7542TIP3    H244042   2.106   1.174  12.644  0.0254 -1.2573  0.8942
 7543TIP3   OH244043   1.550   4.341   6.224  0.2229 -0.7527 -0.4470
 7543TIP3    H144044   1.478   4.302   6.175 -1.2760  1.1165  0.2371
 7543TIP3    H244045   1.579   4.415   6.169  0.2392 -0.2213  0.2772
 7544TIP3   OH244046   2.030   4.565   5.825 -0.1315 -0.2603 -0.3175
 7544TIP3    H144047   2.024   4.557   5.730  1.6458  0.6718 -0.5085
 7544TIP3    H244048   2.026   4.475   5.856  1.2169 -0.6939 -1.3828
 7545TIP3   OH244049   2.463   1.142  17.076  0.2475 -0.0984  0.0091
 7545TIP3    H144050   2.526   1.187  17.021  0.8989 -1.0271 -0.0122
 7545TIP3    H244051   2.509   1.064  17.107 -1.6476 -2.0717 -1.9441
 7546TIP3   OH244052   2.322   2.558   2.183  1.0657 -0.4500 -0.0696
 7546TIP3    H144053   2.333   2.465   2.163  0.2721 -0.8089  1.1311
 7546TIP3    H244054   2.334   2.564   2.278 -1.7768  0.2079  0.3051
 7547TIP3   OH244055   0.438   0.483   1.453 -0.1050  0.6000  0.0194
 7547TIP3    H144056   0.343   0.489   1.466  0.0085  0.4485  0.9709
 7547TIP3    H244057   0.450   0.489   1.358 -1.1941 -0.9330 -0.2315
 7548TIP3   OH244058   2.809   4.551   3.419  0.9262  0.0815  0.3337
 7548TIP3    H144059   2.871   4.506   3.477  0.2542  0.9484  1.7477
 7548TIP3    H244060   2.841   4.641   3.417 -0.1997  0.4923  0.9380
 7549TIP3   OH244061   6.384   0.456  13.011  0.6277  0.0626  0.0633
 7549TIP3    H144062   6.343   0.531  12.969  0.6148  0.1359  0.2054
 7549TIP3    H244063   6.460   0.436  12.956  2.6195  2.3049  1.8671
 7550TIP3   OH244064   4.035   3.789   2.569  0.0708  0.3546 -0.0826
 7550TIP3    H144065   4.005   3.875   2.598 -0.2265  0.1199  0.3277
 7550TIP3    H244066   4.008   3.783   2.477 -1.4892  0.0103  0.3706
 7551TIP3   OH244067   2.217   6.746  16.746 -0.7745  0.5178  0.0506
 7551TIP3    H144068   2.215   6.776  16.836  0.2931 -1.0650  0.6251
 7551TIP3    H244069   2.305   6.709  16.735 -2.0567 -2.4437 -0.5882
 7552TIP3   OH244070   5.759   0.754  14.625  0.1094  0.4939 -0.5481
 7552TIP3    H144071   5.734   0.664  14.605 -0.5260  0.6124 -0.2941
 7552TIP3    H244072   5.711   0.775  14.705  0.6814  0.8727 -0.3051
 7553TIP3   OH244073   4.289   2.293   1.291  0.0291  0.0652  0.1396
 7553TIP3    H144074   4.288   2.203   1.325 -1.9452 -0.2037 -0.5624
 7553TIP3    H244075   4.318   2.346   1.365 -1.8138 -0.7968  1.5307
 7554TIP3   OH244076   4.471   0.002   5.021 -0.0429 -0.0038  0.5031
 7554TIP3    H144077   4.391   0.052   5.032  1.0049  2.4366 -2.3141
 7554TIP3    H244078   4.538   0.054   5.068  0.5405 -0.1697 -0.1383
 7555TIP3   OH244079   6.729   3.377   2.200  0.3004 -0.0095 -0.2792
 7555TIP3    H144080   6.764   3.464   2.218  0.3234 -0.0210 -0.2694
 7555TIP3    H244081   6.683   3.387   2.116  1.4353 -0.3002 -0.9483
 7556TIP3   OH244082   1.277   4.072  13.632 -0.1440 -0.7751 -0.3165
 7556TIP3    H144083   1.203   4.014  13.651 -1.5410  0.7068 -1.1425
 7556TIP3    H244084   1.294   4.059  13.539  0.6351 -1.0769 -0.1405
 7557TIP3   OH244085   6.062   0.163   3.948  0.5838  0.0906  0.0765
 7557TIP3    H144086   6.137   0.144   4.003  1.5832  1.6970 -0.6963
 7557TIP3    H244087   6.096   0.161   3.858 -0.0812  1.7148 -0.2303
 7558TIP3   OH244088   0.752   6.257  11.763 -0.5408  0.3408 -0.3296
 7558TIP3    H144089   0.710   6.184  11.717 -1.2217  0.4490  0.1122
 7558TIP3    H244090   0.759   6.326  11.696 -0.4164  0.0750 -0.5925
 7559TIP3   OH244091   1.752   0.130  15.508  0.3926  0.1594 -0.1721
 7559TIP3    H144092   1.729   0.037  15.510 -0.3627  0.3667  2.3110
 7559TIP3    H244093   1.684   0.170  15.453  1.5756 -0.9517 -2.4819
 7560TIP3   OH244094   2.458   0.928  16.154  0.3808 -0.1991 -0.1716
 7560TIP3    H144095   2.413   0.859  16.106  1.6406 -2.3872  1.6905
 7560TIP3    H244096   2.548   0.924  16.123  1.5300 -2.5031  3.1127
 7561TIP3   OH244097   5.567   0.277   1.379  0.3592  0.0999  0.2626
 7561TIP3    H144098   5.638   0.325   1.422  0.3651  1.4627 -1.2579
 7561TIP3    H244099   5.604   0.190   1.363  2.0443  1.1119 -1.4369
 7562TIP3   OH244100   0.645   5.192   0.328 -0.1213 -0.2246 -0.1227
 7562TIP3    H144101   0.551   5.195   0.311 -0.1290  0.7222  0.0274
 7562TIP3    H244102   0.661   5.268   0.383  0.7719 -0.2523 -0.3401
 7563TIP3   OH244103   2.269   4.570  11.303 -0.4426  0.7363 -0.1057
 7563TIP3    H144104   2.307   4.581  11.391  2.2577  0.8753 -1.2177
 7563TIP3    H244105   2.255   4.476  11.294  0.5438  0.5662  0.0171
 7564TIP3   OH244106   1.722   5.815   2.042 -0.0622 -0.0846  0.6012
 7564TIP3    H144107   1.781   5.741   2.033  0.2191  0.1928  0.1354
 7564TIP3    H244108   1.637   5.782   2.014 -0.0672 -0.3968  0.9768
 7565TIP3   OH244109   1.755   4.298  12.512  0.3015 -0.2488  0.0927
 7565TIP3    H144110   1.819   4.240  12.472  0.5368  0.4488 -0.5386
 7565TIP3    H244111   1.782   4.304  12.604  1.2472  0.1877 -0.2074
 7566TIP3   OH244112   5.252   3.112  15.392 -0.2017  0.1159 -0.0294
 7566TIP3    H144113   5.289   3.029  15.361  0.2486  0.1935  0.2986
 7566TIP3    H244114   5.206   3.090  15.473 -2.0441 -0.2316 -1.1302
 7567TIP3   OH244115   2.479   3.574  14.014 -0.8267  0.5277  0.7308
 7567TIP3    H144116   2.560   3.608  14.053 -0.7831 -0.0132  1.1194
 7567TIP3    H244117   2.500   3.565  13.921 -0.9235  1.7951  0.5724
 7568TIP3   OH244118   3.169   4.916  13.908  0.0142 -0.2709 -0.1456
 7568TIP3    H144119   3.114   4.887  13.835 -0.6690 -2.2231  1.0965
 7568TIP3    H244120   3.107   4.945  13.975  0.6501  2.1121 -0.5382
 7569TIP3   OH244121   1.920   4.859   5.672  1.0365 -0.0996 -0.4980
 7569TIP3    H144122   1.989   4.923   5.654  0.1872  0.4309 -2.0496
 7569TIP3    H244123   1.862   4.903   5.734  0.6144  0.5486 -1.3364
 7570TIP3   OH244124   5.610   0.589   2.584  0.2765  0.4125 -0.0448
 7570TIP3    H144125   5.522   0.608   2.616  0.8691  1.2208  1.1262
 7570TIP3    H244126   5.647   0.529   2.649  0.7710  0.4625 -0.2762
 7571TIP3   OH244127   1.565   3.145  16.946 -0.1257  0.3296  1.0027
 7571TIP3    H144128   1.501   3.168  16.879 -2.2602  0.5595  3.0750
 7571TIP3    H244129   1.532   3.063  16.983  1.6276 -0.3730  1.0397
 7572TIP3   OH244130   2.057   2.502   1.138  0.7356  0.1830  0.6902
 7572TIP3    H144131   2.016   2.538   1.216  0.0431 -1.6342  1.1812
 7572TIP3    H244132   1.993   2.515   1.068  1.2471  1.5673  0.4642
 7573TIP3   OH244133   4.391   0.628   2.535 -0.7315  0.1342  0.7176
 7573TIP3    H144134   4.416   0.719   2.550 -0.6311 -0.2483  3.1097
 7573TIP3    H244135   4.407   0.585   2.619  1.0231 -2.5210 -0.9270
 7574TIP3   OH244136   2.324   0.409  17.083  0.3393 -0.1997  0.3311
 7574TIP3    H144137   2.391   0.474  17.062  0.9973 -1.3772 -1.3743
 7574TIP3    H244138   2.335   0.393  17.176  0.6360  1.6036  0.6211
 7575TIP3   OH244139   3.174   5.816  13.803 -0.2559 -0.5631 -0.2238
 7575TIP3    H144140   3.118   5.866  13.745 -0.7432 -1.5803 -0.6402
 7575TIP3    H244141   3.133   5.824  13.889  0.5268  1.0333  0.0134
 7576TIP3   OH244142   3.924   3.026  12.932 -0.0651  0.8281 -0.1662
 7576TIP3    H144143   3.989   2.987  12.874 -0.3234 -0.7991  0.6112
 7576TIP3    H244144   3.968   3.032  13.017 -0.7215  0.2267  0.2298
 7577TIP3   OH244145   1.459   1.942   1.837  0.1628 -0.1579 -0.3437
 7577TIP3    H144146   1.407   2.022   1.830 -0.2610 -0.3412  0.5650
 7577TIP3    H244147   1.465   1.927   1.932  1.5655 -0.3358 -0.4607
 7578TIP3   OH244148   5.481   3.188   1.750 -0.0246 -0.1206 -0.4911
 7578TIP3    H144149   5.461   3.257   1.813 -0.6676 -0.5930 -0.1778
 7578TIP3    H244150   5.577   3.179   1.754 -0.0953 -0.3946  0.6746
 7579TIP3   OH244151   4.197   6.060  11.974 -0.1220  0.0478 -0.0188
 7579TIP3    H144152   4.131   5.991  11.968  1.3044 -1.5026  1.4176
 7579TIP3    H244153   4.269   6.029  11.919 -0.9188  2.1791 -2.3606
 7580TIP3   OH244154   4.600   1.458  15.876  0.1472 -0.8200  0.6444
 7580TIP3    H144155   4.602   1.445  15.971  0.6295  1.4433  0.9537
 7580TIP3    H244156   4.666   1.524  15.859 -0.1298 -1.0031 -1.2559
 7581TIP3   OH244157   2.727   0.131   4.325 -0.1539 -0.0670  0.5477
 7581TIP3    H144158   2.728   0.226   4.320 -0.6616 -0.1556 -1.7933
 7581TIP3    H244159   2.696   0.103   4.239  2.4500 -2.4106  0.3116
 7582TIP3   OH244160   0.550   5.936   3.000  0.1017  0.0486 -0.6572
 7582TIP3    H144161   0.571   5.865   2.939  0.7525 -0.9000  0.6388
 7582TIP3    H244162   0.454   5.934   3.006  0.0522 -0.0562 -1.4074
 7583TIP3   OH244163   4.704   1.050  12.189  0.1206  0.3794  0.5860
 7583TIP3    H144164   4.656   1.132  12.180 -1.8468 -0.6997  1.0447
 7583TIP3    H244165   4.671   1.012  12.270  1.3759 -0.6354  0.6263
 7584TIP3   OH244166   1.868   1.518   4.710  0.6697 -0.9121  0.2152
 7584TIP3    H144167   1.912   1.463   4.645 -1.4226 -1.0539 -1.1271
 7584TIP3    H244168   1.880   1.470   4.793  1.6414 -1.7438 -0.3898
 7585TIP3   OH244169   3.901   6.472  16.265  0.0922  0.3523 -0.0763
 7585TIP3    H144170   3.976   6.523  16.293  0.2718  0.4567 -0.7496
 7585TIP3    H244171   3.825   6.524  16.292  0.2660  0.6271 -0.1163
 7586TIP3   OH244172   6.675   4.398  14.340 -0.1575 -0.1035 -0.1189
 7586TIP3    H144173   6.629   4.378  14.259 -3.4679 -1.0678  1.8836
 7586TIP3    H244174   6.651   4.488  14.360 -0.6772 -0.3922  0.5940
 7587TIP3   OH244175   2.709   1.589  14.240 -0.1226 -0.5051  0.4387
 7587TIP3    H144176   2.753   1.527  14.299  0.6298 -1.4513 -1.0852
 7587TIP3    H244177   2.616   1.568  14.250 -0.0903  0.0201  2.0274
 7588TIP3   OH244178   1.885   4.896  11.344 -0.3889 -0.1724  0.5449
 7588TIP3    H144179   1.973   4.869  11.319 -1.3128 -1.9362 -0.9276
 7588TIP3    H244180   1.894   4.989  11.367  1.5869  0.0140 -0.8427
 7589TIP3   OH244181   1.616   3.547   1.966 -0.1025  0.0924  0.2464
 7589TIP3    H144182   1.611   3.567   2.059  2.4272 -3.2307  1.2148
 7589TIP3    H244183   1.708   3.561   1.944 -0.6112  0.5321 -1.6905
 7590TIP3   OH244184   1.253   6.653   5.175  0.6494 -0.1680  0.5415
 7590TIP3    H144185   1.210   6.593   5.113 -0.1469 -1.1237  1.9690
 7590TIP3    H244186   1.321   6.696   5.124 -1.5488  0.8788 -1.6475
 7591TIP3   OH244187   4.332   5.728   2.815  0.1797 -0.5079 -0.7054
 7591TIP3    H144188   4.311   5.693   2.728  0.2814  1.3810 -1.5129
 7591TIP3    H244189   4.251   5.717   2.865 -0.8333  1.1170 -1.9506
 7592TIP3   OH244190   3.109   1.885  15.434  0.5427  0.3161  0.3428
 7592TIP3    H144191   3.203   1.889  15.415  0.7639 -0.2389  1.3059
 7592TIP3    H244192   3.068   1.924  15.356  1.4329 -1.9209 -1.3059
 7593TIP3   OH244193   0.557   3.766   0.230  0.0742 -0.2904  0.7892
 7593TIP3    H144194   0.592   3.845   0.190 -0.6962 -0.0825  0.5186
 7593TIP3    H244195   0.467   3.759   0.197  0.4093 -1.7432  0.1316
 7594TIP3   OH244196   6.646   4.016  13.533 -0.0290 -0.2782 -0.1457
 7594TIP3    H144197   6.629   4.105  13.564  1.9897  0.1586 -0.1796
 7594TIP3    H244198   6.662   3.966  13.613  1.0086 -0.0939 -0.2224
 7595TIP3   OH244199   5.122   4.435  16.525 -0.5413  0.6308 -0.0323
 7595TIP3    H144200   5.215   4.437  16.501 -0.6096 -0.9891 -0.4729
 7595TIP3    H244201   5.111   4.352  16.570 -2.1240  0.0804 -1.3874
 7596TIP3   OH244202   1.749   3.508  10.632 -0.1867 -0.2454 -0.3962
 7596TIP3    H144203   1.697   3.437  10.592 -0.7133  0.3780 -0.8239
 7596TIP3    H244204   1.804   3.540  10.561 -1.0564  0.8039 -0.5969
 7597TIP3   OH244205   2.380   4.975   4.301 -0.0027  0.1643 -0.1771
 7597TIP3    H144206   2.351   5.045   4.360  2.7912 -0.1186  1.6327
 7597TIP3    H244207   2.441   5.017   4.241  0.0754 -0.3004 -0.4270
 7598TIP3   OH244208   3.180   0.902   4.239 -0.4089  0.2854 -0.1851
 7598TIP3    H144209   3.143   0.870   4.157 -1.1337  1.1303 -0.1967
 7598TIP3    H244210   3.149   0.992   4.246  1.4434  0.9277 -0.0543
 7599TIP3   OH244211   3.478   1.408   0.660 -0.1578  0.0238  0.9051
 7599TIP3    H144212   3.458   1.323   0.699 -0.0045 -0.2055  0.4899
 7599TIP3    H244213   3.419   1.414   0.584  0.6174 -0.2133  0.2738
 7600TIP3   OH244214   0.591   1.474   5.337 -0.0872  1.0282 -0.3962
 7600TIP3    H144215   0.545   1.441   5.260 -1.1238  1.6744 -0.0626
 7600TIP3    H244216   0.682   1.481   5.309  0.1788 -2.1021 -0.4891
 7601TIP3   OH244217   5.760   1.172  14.871 -0.5686 -0.4233  0.2011
 7601TIP3    H144218   5.824   1.229  14.914 -0.2629 -2.1266  2.0718
 7601TIP3    H244219   5.720   1.122  14.942 -2.0258 -1.3502 -1.2267
 7602TIP3   OH244220   6.509   2.656  11.774  0.1159 -0.1025 -0.2662
 7602TIP3    H144221   6.518   2.731  11.715 -1.1061  0.0776 -0.2375
 7602TIP3    H244222   6.594   2.613  11.771 -0.1641 -0.5612 -2.7821
 7603TIP3   OH244223   1.048   0.847   4.556 -0.0433 -0.1122  0.4596
 7603TIP3    H144224   0.958   0.825   4.532 -0.0412  1.1036 -0.7372
 7603TIP3    H244225   1.040   0.899   4.636 -0.5833  1.8338 -0.8277
 7604TIP3   OH244226   3.581   2.774  13.936  0.6010  0.1067 -0.6340
 7604TIP3    H144227   3.570   2.698  13.992  1.7528  2.5733  3.1123
 7604TIP3    H244228   3.492   2.796  13.908 -0.2278 -0.0924  1.7459
 7605TIP3   OH244229   0.663   1.926  12.320  0.3152  0.4060 -0.2893
 7605TIP3    H144230   0.700   2.012  12.337 -1.1923  1.4833 -2.2423
 7605TIP3    H244231   0.568   1.940  12.318 -0.0084 -1.5289  0.5957
 7606TIP3   OH244232   1.653   1.505   1.927 -0.5940 -0.1614 -0.5447
 7606TIP3    H144233   1.646   1.535   1.837 -0.6443  0.5308 -0.3149
 7606TIP3    H244234   1.690   1.580   1.975  0.5311 -0.9274 -0.2095
 7607TIP3   OH244235   4.499   4.858  16.309 -0.3240 -0.8848  0.3031
 7607TIP3    H144236   4.486   4.941  16.355  0.0196 -0.9098  0.4454
 7607TIP3    H244237   4.594   4.850  16.300 -0.4170  0.2605 -2.4590
 7608TIP3   OH244238   6.626   1.293   4.191 -0.0865 -0.2278 -0.5556
 7608TIP3    H144239   6.722   1.287   4.194 -0.0652 -0.3607 -1.3293
 7608TIP3    H244240   6.598   1.206   4.161 -0.3975  0.1119 -1.2608
 7609TIP3   OH244241   1.313   2.668   2.582 -1.1308  0.6087  0.1527
 7609TIP3    H144242   1.352   2.754   2.595  3.0034 -1.3259  1.3520
 7609TIP3    H244243   1.263   2.651   2.662  1.3810  0.2552  1.6794
 7610TIP3   OH244244   3.019   4.521   2.097 -0.0350  0.2938  0.4970
 7610TIP3    H144245   2.944   4.581   2.093 -0.8788 -0.5622  2.5052
 7610TIP3    H244246   3.065   4.547   2.177  0.5406 -0.6552  0.4763
 7611TIP3   OH244247   3.173   5.266  13.892  0.1562  0.5392  0.2297
 7611TIP3    H144248   3.195   5.213  13.968 -0.0971  0.4742  0.2602
 7611TIP3    H244249   3.077   5.275  13.896 -0.0715 -1.0635 -1.1129
 7612TIP3   OH244250   2.751   5.850  16.206 -0.1303  0.0246  0.0970
 7612TIP3    H144251   2.830   5.891  16.173  0.4910 -0.5673  0.8107
 7612TIP3    H244252   2.696   5.836  16.129  0.9402 -0.5911 -0.5626
 7613TIP3   OH244253   2.248   5.174  11.977 -0.6540  0.0270  0.3147
 7613TIP3    H144254   2.343   5.181  11.973 -0.5306 -1.4219  0.3370
 7613TIP3    H244255   2.226   5.192  12.068 -0.2967 -0.6334  0.5366
 7614TIP3   OH244256   4.594   5.835  11.258 -0.5250 -0.4235  0.5828
 7614TIP3    H144257   4.559   5.923  11.249 -0.9984 -0.6352  0.3117
 7614TIP3    H244258   4.566   5.807  11.345  2.6465  1.0077  2.1420
 7615TIP3   OH244259   3.223   6.535  16.261  0.1372 -0.2250  0.1461
 7615TIP3    H144260   3.310   6.509  16.229  0.5405  0.2968  0.7962
 7615TIP3    H244261   3.237   6.556  16.354 -1.6641 -4.8834  1.5846
 7616TIP3   OH244262   1.209   0.669   5.786  0.7366  0.5355 -0.4311
 7616TIP3    H144263   1.172   0.643   5.871 -0.9954  2.3539 -0.6149
 7616TIP3    H244264   1.190   0.594   5.729 -0.7062  0.5236  0.0420
 7617TIP3   OH244265   3.242   1.677   3.946  0.4830  0.9304 -0.3666
 7617TIP3    H144266   3.165   1.686   4.003  0.4645 -0.7141 -0.1254
 7617TIP3    H244267   3.293   1.605   3.985  0.7168  0.1098 -2.1631
 7618TIP3   OH244268   2.797   1.536   6.608  0.0915  0.0544 -0.3333
 7618TIP3    H144269   2.863   1.538   6.677  0.6279  0.4685 -0.8482
 7618TIP3    H244270   2.844   1.502   6.531 -0.0823  1.1176 -0.9144
 7619TIP3   OH244271   5.809   2.425  11.925  0.1782 -0.4677  0.0413
 7619TIP3    H144272   5.869   2.434  11.999 -1.3163 -1.2256  1.3743
 7619TIP3    H244273   5.778   2.335  11.930 -0.7663 -0.2023 -0.8744
 7620TIP3   OH244274   3.143   6.506   2.120 -0.2897 -0.6649  0.2255
 7620TIP3    H144275   3.139   6.567   2.193 -1.1351 -0.4958  0.0366
 7620TIP3    H244276   3.104   6.553   2.047  0.3446 -0.9165 -0.2839
 7621TIP3   OH244277   6.104   1.280   5.102 -0.0169 -0.2935 -0.9466
 7621TIP3    H144278   6.160   1.350   5.068 -0.9798 -0.1174 -2.2282
 7621TIP3    H244279   6.164   1.217   5.141  0.9852  0.4238 -1.3200
 7622TIP3   OH244280   3.879   3.523  15.333 -0.4127  0.5563  0.6086
 7622TIP3    H144281   3.849   3.610  15.308  0.4880  0.8064  0.3783
 7622TIP3    H244282   3.921   3.488  15.254 -1.4607 -0.3994  0.4627
 7623TIP3   OH244283   3.835   0.754   3.219 -0.4014  0.3501 -0.3050
 7623TIP3    H144284   3.865   0.668   3.191 -0.1567  0.5980 -0.8121
 7623TIP3    H244285   3.741   0.743   3.231 -0.1079 -0.4498  1.3789
 7624TIP3   OH244286   2.857   3.978   4.135  0.4468  0.2405 -0.9356
 7624TIP3    H144287   2.814   3.920   4.198 -0.1655 -0.7843 -2.2722
 7624TIP3    H244288   2.882   4.055   4.186  1.8298 -1.4668  0.9988
 7625TIP3   OH244289   4.164   4.087  14.343 -0.9331  0.5243  0.3679
 7625TIP3    H144290   4.075   4.097  14.379 -0.7427 -0.1278  1.0358
 7625TIP3    H244291   4.193   4.002  14.376 -1.0930 -0.5131 -2.0617
 7626TIP3   OH244292   0.916   1.318   0.043 -0.3357  0.0231 -0.1650
 7626TIP3    H144293   0.862   1.330  -0.036  0.8916  0.6677 -0.9149
 7626TIP3    H244294   0.877   1.379   0.107  0.0284  1.1368 -0.9817
 7627TIP3   OH244295   1.063   1.212   5.880  0.2184  0.0686  0.5367
 7627TIP3    H144296   1.015   1.169   5.950 -1.6263 -0.1476 -0.8206
 7627TIP3    H244297   1.053   1.154   5.804  0.9922  0.9720 -0.2787
 7628TIP3   OH244298   4.458   4.016  11.346 -0.9090 -0.5211  0.2287
 7628TIP3    H144299   4.394   3.995  11.278  0.5784  0.9997 -1.7318
 7628TIP3    H244300   4.531   4.056  11.298  0.4485  0.0471  2.6757
 7629TIP3   OH244301   5.617   3.846   5.847  0.0924 -0.1674 -0.0059
 7629TIP3    H144302   5.698   3.860   5.896 -0.3116 -1.7353  1.1559
 7629TIP3    H244303   5.647   3.814   5.762  0.7224  0.0629  0.1223
 7630TIP3   OH244304   3.956   0.813  15.383  0.1988 -1.0013 -0.5587
 7630TIP3    H144305   3.897   0.748  15.422  1.8511 -1.0101  2.0800
 7630TIP3    H244306   4.035   0.763  15.361  0.1021 -0.5592 -1.9801
 7631TIP3   OH244307   1.590   4.741  12.161 -0.0693  0.1249  0.3745
 7631TIP3    H144308   1.634   4.665  12.198 -1.2471 -0.6969  0.1077
 7631TIP3    H244309   1.635   4.816  12.200  1.3827 -0.7028  0.2926
 7632TIP3   OH244310   2.702   4.921   3.613  0.1441 -0.0483 -0.0121
 7632TIP3    H144311   2.759   4.899   3.687 -0.5872  1.6604  1.1071
 7632TIP3    H244312   2.614   4.897   3.642 -0.4989  2.9688  0.7493
 7633TIP3   OH244313   0.514   0.424   5.984  0.0721  0.0189 -0.2616
 7633TIP3    H144314   0.432   0.447   6.029  0.4323  1.6387 -0.3911
 7633TIP3    H244315   0.487   0.368   5.912 -0.8173 -0.3033  0.3156
 7634TIP3   OH244316   6.639   5.177  13.070 -0.1426  0.0644  0.2376
 7634TIP3    H144317   6.697   5.117  13.117 -0.6723 -0.2749  0.4613
 7634TIP3    H244318   6.587   5.120  13.013 -0.5552  0.3243  0.3514
 7635TIP3   OH244319   6.008   2.807   3.072  0.2368 -0.8348  0.1460
 7635TIP3    H144320   6.020   2.889   3.024  1.0936 -0.3704  1.1387
 7635TIP3    H244321   5.914   2.788   3.064  0.0981  0.0485 -0.3914
 7636TIP3   OH244322   1.549   2.006  15.423 -0.9604  0.1540 -0.1190
 7636TIP3    H144323   1.539   2.046  15.336  0.2797 -0.8796 -0.7383
 7636TIP3    H244324   1.567   2.080  15.481 -0.5868  0.7131 -0.9401
 7637TIP3   OH244325   2.192   0.641   3.810 -0.2276  0.2808 -0.4414
 7637TIP3    H144326   2.228   0.596   3.886 -0.2429 -1.6079 -1.5272
 7637TIP3    H244327   2.247   0.718   3.799  2.4184 -1.6500 -1.0493
 7638TIP3   OH244328   1.878   6.615   3.108  0.4266 -0.5181  0.2221
 7638TIP3    H144329   1.936   6.635   3.035  0.2983 -1.7919 -0.2343
 7638TIP3    H244330   1.936   6.581   3.176  0.4143 -0.2994  0.3426
 7639TIP3   OH244331   3.980   3.841   5.140 -0.3794  0.0023 -0.3818
 7639TIP3    H144332   4.060   3.804   5.177 -0.0109  0.1357 -1.0246
 7639TIP3    H244333   3.989   3.935   5.154 -0.6335 -0.0219 -0.0552
 7640TIP3   OH244334   5.189   0.374  11.719 -0.3020  0.2365  0.9708
 7640TIP3    H144335   5.100   0.371  11.755  0.0911 -1.3329  1.8338
 7640TIP3    H244336   5.180   0.344  11.629 -0.7479  0.7713  0.8306
 7641TIP3   OH244337   0.413   0.194   1.110 -0.0954  0.4442 -0.0204
 7641TIP3    H144338   0.492   0.140   1.104  1.2429  2.2364  0.8499
 7641TIP3    H244339   0.446   0.283   1.123 -2.2753  1.0377  1.8112
 7642TIP3   OH244340   6.615   3.083  16.290  0.8350  0.0377  0.2370
 7642TIP3    H144341   6.690   3.097  16.233  2.1757 -1.3577  1.6039
 7642TIP3    H244342   6.566   3.165  16.286  0.3969 -0.2994 -3.5851
 7643TIP3   OH244343   3.815   5.494   0.632  0.0867 -0.1663 -0.4202
 7643TIP3    H144344   3.865   5.485   0.713 -1.7341  1.0049  0.8641
 7643TIP3    H244345   3.868   5.552   0.578  0.9066 -0.2619  0.2674
 7644TIP3   OH244346   5.566   1.504   4.906  0.3845 -0.4550 -0.1046
 7644TIP3    H144347   5.573   1.594   4.875 -0.6853 -0.2430  0.2276
 7644TIP3    H244348   5.471   1.487   4.910  0.5111 -0.8354  1.9442
 7645TIP3   OH244349   2.155   5.233   4.601  0.4833  0.0638  0.3213
 7645TIP3    H144350   2.124   5.301   4.662 -0.2384  0.1767 -0.1585
 7645TIP3    H244351   2.190   5.165   4.658 -0.2528  0.1290  0.8786
 7646TIP3   OH244352   4.662   6.778   0.504  0.1854 -0.1576 -0.1494
 7646TIP3    H144353   4.695   6.859   0.466 -1.3776  0.6085  0.1185
 7646TIP3    H244354   4.697   6.777   0.593  0.1685  0.2433 -0.1397
 7647TIP3   OH244355   5.243   1.777  17.188  0.0952 -0.6852  0.0807
 7647TIP3    H144356   5.328   1.740  17.214  1.7119  2.0877 -0.9632
 7647TIP3    H244357   5.261   1.822  17.106 -2.2667  0.4373  0.1471
 7648TIP3   OH244358   1.454   0.873  14.256  0.1525 -0.0826  0.1533
 7648TIP3    H144359   1.546   0.860  14.279  0.0436  1.1909  1.3912
 7648TIP3    H244360   1.457   0.930  14.180  0.4069 -0.7940 -0.3759
 7649TIP3   OH244361   2.056   6.405   0.287 -0.1211  0.1577  0.0446
 7649TIP3    H144362   2.008   6.330   0.251  1.3276 -0.7643 -0.0333
 7649TIP3    H244363   2.027   6.410   0.379 -1.5038  0.5879 -0.4019
 7650TIP3   OH244364   0.116   2.077  15.958  0.2596 -0.3973 -0.4253
 7650TIP3    H144365   0.108   2.162  16.001 -3.2553  0.2147 -2.0802
 7650TIP3    H244366   0.156   2.096  15.873  0.8952 -0.6268 -0.1796
 7651TIP3   OH244367   6.571   2.804   2.016  0.0180 -0.4167 -0.4827
 7651TIP3    H144368   6.609   2.798   2.104  1.5128  2.1958 -0.8825
 7651TIP3    H244369   6.505   2.872   2.024 -0.9245 -1.2621 -1.0347
 7652TIP3   OH244370   3.137   1.041  16.622  0.2443 -0.1606 -0.1876
 7652TIP3    H144371   3.208   1.076  16.676  1.7531 -1.8968 -1.0275
 7652TIP3    H244372   3.132   1.101  16.547  0.2089  0.4720  0.3122
 7653TIP3   OH244373   3.225   4.005   5.018  0.2736  0.1303  0.6440
 7653TIP3    H144374   3.241   4.069   5.087  0.7768  0.0002  0.6523
 7653TIP3    H244375   3.284   4.032   4.947  0.1361 -0.0423  0.4621
 7654TIP3   OH244376   1.085   2.119  12.745 -0.7264 -0.3054 -0.3195
 7654TIP3    H144377   1.087   2.146  12.837 -0.4355  0.2087 -0.4741
 7654TIP3    H244378   1.033   2.186  12.701 -0.6188 -0.3903 -0.5785
 7655TIP3   OH244379   3.493   2.062  11.160  0.3280 -0.2970  0.6577
 7655TIP3    H144380   3.415   2.014  11.132 -1.3120  1.2997  2.3618
 7655TIP3    H244381   3.530   2.008  11.230  1.6213 -1.7802 -1.1059
 7656TIP3   OH244382   4.347   2.539   2.615  0.1242 -0.0628  0.2038
 7656TIP3    H144383   4.313   2.619   2.657 -1.7166 -1.3043  1.1418
 7656TIP3    H244384   4.341   2.557   2.522  0.8592  1.3575  0.4168
 7657TIP3   OH244385   5.694   2.537  14.477 -0.2658 -0.0080  0.3325
 7657TIP3    H144386   5.625   2.602  14.485 -2.8602 -2.4483 -1.5590
 7657TIP3    H244387   5.705   2.503  14.566 -0.4053  1.4540  0.9168
 7658TIP3   OH244388   5.036   2.548   2.975 -0.2240  0.3709  0.0976
 7658TIP3    H144389   5.111   2.583   2.927 -2.2509  1.8708 -2.0945
 7658TIP3    H244390   5.021   2.611   3.045  1.8112 -1.0353  1.8645
 7659TIP3   OH244391   6.461   2.975  16.764  0.1447 -0.0856 -0.2888
 7659TIP3    H144392   6.537   2.963  16.707 -0.3956 -0.1772 -0.9960
 7659TIP3    H244393   6.497   3.013  16.845  0.5387  2.8821 -1.7985
 7660TIP3   OH244394   4.703   1.807   4.798 -0.0538 -0.0193 -0.5211
 7660TIP3    H144395   4.710   1.712   4.786 -1.5071 -0.5339  2.1789
 7660TIP3    H244396   4.765   1.827   4.868  0.0374  0.9902 -0.8852
 7661TIP3   OH244397   0.059   5.924   2.418 -0.1564 -0.0278 -0.3431
 7661TIP3    H144398  -0.004   5.919   2.490 -0.7901 -4.9111 -1.1206
 7661TIP3    H244399   0.140   5.888   2.454  0.2251 -0.1950 -1.3573
 7662TIP3   OH244400   5.571   2.230  15.437 -0.2136  0.3420  0.0617
 7662TIP3    H144401   5.656   2.265  15.412 -0.9354  0.0992 -2.8952
 7662TIP3    H244402   5.508   2.280  15.385 -1.7533 -0.6953  0.8728
 7663TIP3   OH244403   2.159   5.209  15.372 -0.5528 -0.0057 -0.1376
 7663TIP3    H144404   2.250   5.235  15.386  0.0440 -0.9074 -2.1387
 7663TIP3    H244405   2.159   5.114  15.385 -1.4419  0.1230  0.9130
 7664TIP3   OH244406   1.392   5.834  15.244 -0.0360 -0.3729 -0.2992
 7664TIP3    H144407   1.341   5.788  15.311  2.4383 -1.4595  0.8904
 7664TIP3    H244408   1.423   5.913  15.288  0.6438 -0.5168 -0.5179
 7665TIP3   OH244409   6.729   4.476   0.138  0.0297  0.2067 -0.8818
 7665TIP3    H144410   6.723   4.386   0.168  0.6905  0.6630  0.6762
 7665TIP3    H244411   6.687   4.476   0.052  2.1664 -2.0792 -1.9922
 7666TIP3   OH244412   5.913   4.519   0.656 -0.2843 -0.3142  0.2276
 7666TIP3    H144413   5.825   4.489   0.630 -0.2952 -1.1791  1.1875
 7666TIP3    H244414   5.928   4.598   0.605 -2.2023  0.6205  1.0573
 7667TIP3   OH244415   5.203   2.950  16.246 -0.2964 -0.0802 -0.1931
 7667TIP3    H144416   5.190   2.931  16.153 -1.8713 -0.4815  0.1017
 7667TIP3    H244417   5.243   2.870  16.282  2.1311  0.7710 -0.8834
 7668TIP3   OH244418   0.978   3.257  12.579 -0.4901 -0.6627 -0.0300
 7668TIP3    H144419   1.027   3.307  12.644  0.0711 -0.5442 -0.5402
 7668TIP3    H244420   0.895   3.237  12.621 -0.8702  1.0471  0.0278
 7669TIP3   OH244421   1.177   1.415   5.177 -0.1661 -0.3056  0.6959
 7669TIP3    H144422   1.205   1.456   5.095  0.8282  1.0374  1.6877
 7669TIP3    H244423   1.251   1.358   5.202 -1.0368 -1.7945 -0.0410
 7670TIP3   OH244424   4.782   1.959  15.400 -0.2778  0.2021 -0.3166
 7670TIP3    H144425   4.701   1.993  15.436 -0.4168  0.9232 -1.3281
 7670TIP3    H244426   4.845   2.030  15.410  0.2865 -0.4110  0.6229
 7671TIP3   OH244427   2.069   4.380   1.581  0.2295  0.3323  0.7342
 7671TIP3    H144428   1.986   4.374   1.534  1.5349 -2.3223 -1.3470
 7671TIP3    H244429   2.056   4.326   1.659  0.1874 -0.5517  0.1189
 7672TIP3   OH244430   0.834   2.880  16.368 -0.0747  1.0465  0.0282
 7672TIP3    H144431   0.819   2.909  16.279  0.6506 -0.2511 -0.5402
 7672TIP3    H244432   0.842   2.784  16.361 -1.0072  0.8299  1.6119
 7673TIP3   OH244433   3.508   2.234  16.739 -0.1944  0.6157  0.4484
 7673TIP3    H144434   3.538   2.264  16.825 -0.0865  1.5915  0.0689
 7673TIP3    H244435   3.469   2.148  16.756  3.9761 -1.3344  0.7934
 7674TIP3   OH244436   2.430   2.941   4.184  0.3591  0.1932  0.0008
 7674TIP3    H144437   2.500   2.997   4.221  0.3296  0.2179  0.0196
 7674TIP3    H244438   2.418   2.974   4.095 -0.2304  0.7534  0.2845
 7675TIP3   OH244439   5.991   0.002  12.095 -0.2190 -0.0023 -0.6316
 7675TIP3    H144440   5.934  -0.031  12.025 -0.6316 -0.5249 -0.0553
 7675TIP3    H244441   5.986  -0.064  12.164 -0.2049  0.7460  0.0996
 7676TIP3   OH244442   2.159   5.141  13.338  0.0309  0.2071 -0.0260
 7676TIP3    H144443   2.180   5.235  13.340 -1.3955  0.5486 -0.1266
 7676TIP3    H244444   2.081   5.133  13.393 -1.0026 -0.6041 -1.5751
 7677TIP3   OH244445   3.828   6.658   2.174  0.6458  0.5347 -0.3872
 7677TIP3    H144446   3.838   6.564   2.188 -0.0452  0.1129 -2.6180
 7677TIP3    H244447   3.773   6.665   2.096  0.8611  2.7894 -0.3575
 7678TIP3   OH244448   2.629   2.138  15.463  0.1789  0.1331  0.4178
 7678TIP3    H144449   2.595   2.050  15.443 -0.7932  0.4665  0.5973
 7678TIP3    H244450   2.714   2.140  15.419  0.0500 -0.7718  0.0964
 7679TIP3   OH244451   5.732   4.107  14.741  0.5847  0.2193 -0.1034
 7679TIP3    H144452   5.675   4.181  14.762  0.4332  0.1236 -0.1705
 7679TIP3    H244453   5.819   4.135  14.768  0.1922 -0.4035  1.8904
 7680TIP3   OH244454   2.457   0.120   6.233  0.2019  0.4637 -0.0931
 7680TIP3    H144455   2.517   0.108   6.159 -0.5733  0.4673 -0.7331
 7680TIP3    H244456   2.448   0.033   6.271 -0.5674  0.1755 -0.9236
 7681TIP3   OH244457   6.676   1.767  10.991  0.0805  0.3548 -0.1951
 7681TIP3    H144458   6.661   1.716  10.911  3.7490 -2.0960  0.5417
 7681TIP3    H244459   6.745   1.828  10.967  2.1676 -1.3179  1.3877
 7682TIP3   OH244460   2.753   2.738  13.812  0.3055 -0.1499 -0.0992
 7682TIP3    H144461   2.751   2.720  13.718 -0.9615 -0.2357 -0.0570
 7682TIP3    H244462   2.702   2.668  13.852  0.2420  0.2767  0.5899
 7683TIP3   OH244463   5.128   5.611  13.600 -0.1321  0.4033 -0.1146
 7683TIP3    H144464   5.221   5.599  13.581  0.4345  1.7566  1.6541
 7683TIP3    H244465   5.097   5.669  13.531  0.7060  1.1559  0.1229
 7684TIP3   OH244466   3.372   6.248   1.374 -0.7389  0.2344 -0.9063
 7684TIP3    H144467   3.419   6.277   1.296  1.8380 -1.5051 -0.0697
 7684TIP3    H244468   3.431   6.267   1.447 -2.6443  0.8100  0.5249
 7685TIP3   OH244469   4.664   5.623   5.679  0.5358  0.0130 -0.6823
 7685TIP3    H144470   4.585   5.666   5.647  1.0019  0.4778 -1.2291
 7685TIP3    H244471   4.733   5.654   5.621  1.4629  1.1030  0.9859
 7686TIP3   OH244472   0.776   1.928   0.688 -0.0785 -0.3082 -0.4364
 7686TIP3    H144473   0.699   1.870   0.690  0.7481 -1.3869  0.3916
 7686TIP3    H244474   0.841   1.878   0.639  0.2335  0.4370 -0.7744
 7687TIP3   OH244475   2.003   1.789   4.179  0.8313  0.5476 -0.2753
 7687TIP3    H144476   2.041   1.808   4.094  0.4200  1.3256 -0.2843
 7687TIP3    H244477   2.035   1.859   4.236  1.6784 -0.3546  0.3839
 7688TIP3   OH244478   1.497   6.084   2.879 -0.2585 -0.0889 -0.3082
 7688TIP3    H144479   1.408   6.113   2.857  0.1338  0.6734 -0.9325
 7688TIP3    H244480   1.484   6.004   2.930 -1.3217  0.3335  0.1150
 7689TIP3   OH244481   2.126   0.730  12.296  0.5557  0.4915 -0.1378
 7689TIP3    H144482   2.090   0.789  12.362  0.1500 -0.8060  0.8342
 7689TIP3    H244483   2.053   0.715  12.235 -0.1439 -1.0084  1.0385
 7690TIP3   OH244484   3.221   3.683   0.585 -0.2699 -0.0930  0.0784
 7690TIP3    H144485   3.186   3.597   0.610 -1.2708  0.4981  0.7189
 7690TIP3    H244486   3.198   3.692   0.492  0.7355 -0.9430 -0.2707
 7691TIP3   OH244487   5.795   1.668   4.129 -0.0019  0.2198 -0.2799
 7691TIP3    H144488   5.811   1.577   4.155 -0.2670 -0.2932 -1.8762
 7691TIP3    H244489   5.720   1.695   4.182 -1.5463 -1.3244 -1.6276
 7692TIP3   OH244490   1.318   0.206  15.567  0.1661 -0.0916 -0.9743
 7692TIP3    H144491   1.230   0.228  15.537 -0.6752 -0.5152  1.0499
 7692TIP3    H244492   1.349   0.139  15.506 -0.8820  0.1192 -1.7507
 7693TIP3   OH244493   4.440   4.606   3.597 -0.0816 -0.1098 -0.2387
 7693TIP3    H144494   4.392   4.524   3.593  0.9987 -0.7329 -0.5184
 7693TIP3    H244495   4.415   4.652   3.516  0.8638 -1.0310 -1.0610
 7694TIP3   OH244496   0.080   0.301  13.535 -0.9510 -0.6391  0.4032
 7694TIP3    H144497   0.022   0.238  13.492 -1.1134  0.0916 -0.4774
 7694TIP3    H244498   0.091   0.268  13.624  1.2084 -3.4363 -0.8302
 7695TIP3   OH244499   2.391   1.222   5.424 -0.3366 -0.2335 -0.1835
 7695TIP3    H144500   2.298   1.222   5.404 -0.1896 -0.8642 -0.8884
 7695TIP3    H244501   2.406   1.305   5.471 -0.9523  0.6083 -1.4498
 7696TIP3   OH244502   3.820   4.450  14.574  0.0447 -0.7157  0.1779
 7696TIP3    H144503   3.838   4.469  14.666  1.1157 -3.7090  0.6235
 7696TIP3    H244504   3.740   4.397  14.576 -0.5512  0.1205 -0.7278
 7697TIP3   OH244505   1.706   3.743  16.864 -0.3900  0.1812 -0.0109
 7697TIP3    H144506   1.651   3.821  16.853  1.2851  1.5183  0.9592
 7697TIP3    H244507   1.756   3.737  16.783 -2.0749 -1.1751 -0.9953
 7698TIP3   OH244508   4.416   3.840   3.321  0.0591  0.0661 -0.7098
 7698TIP3    H144509   4.463   3.921   3.336 -0.5661  0.5277 -1.2424
 7698TIP3    H244510   4.443   3.783   3.394 -0.5508  1.2155  0.4372
 7699TIP3   OH244511   3.753   6.118  13.659  0.0544  0.3178 -0.0527
 7699TIP3    H144512   3.830   6.071  13.628 -0.8530  0.1893 -2.2093
 7699TIP3    H244513   3.679   6.064  13.632 -0.8872  1.5983 -0.0977
 7700TIP3   OH244514   6.055   6.565  16.381  0.3424  0.2348  0.4275
 7700TIP3    H144515   5.977   6.601  16.423  0.9833  0.3090  1.5685
 7700TIP3    H244516   6.026   6.544  16.292 -0.9062  0.5056  0.7527
 7701TIP3   OH244517   0.684   5.548   5.386 -0.0563  0.2148  0.1306
 7701TIP3    H144518   0.603   5.503   5.409  0.3218 -0.0235  1.0348
 7701TIP3    H244519   0.753   5.484   5.405  0.4177  0.8202  0.4863
 7702TIP3   OH244520   0.400   6.073   5.271 -0.2243 -0.2195 -0.1099
 7702TIP3    H144521   0.483   6.077   5.225 -0.6161  2.3351 -0.6718
 7702TIP3    H244522   0.353   6.001   5.230  1.5951 -1.5545  0.0835
 7703TIP3   OH244523   2.502   4.337   0.976  0.2235  0.2193 -0.1718
 7703TIP3    H144524   2.583   4.288   0.985  0.1046  0.3770  2.0882
 7703TIP3    H244525   2.521   4.423   1.015 -1.5224 -0.3768  2.1580
 7704TIP3   OH244526   1.932   1.743   1.958  0.0939 -0.1802 -0.5769
 7704TIP3    H144527   1.868   1.747   2.030  0.3317  0.3739 -0.3961
 7704TIP3    H244528   2.015   1.723   2.000  0.2302  0.1252 -0.6992
 7705TIP3   OH244529   0.758   1.749  12.545  0.0138 -0.2080  0.4457
 7705TIP3    H144530   0.683   1.783  12.592  0.6626  1.9020  0.0223
 7705TIP3    H244531   0.834   1.783  12.592  0.7277 -2.6361  1.1052
 7706TIP3   OH244532   1.836   3.697  10.806 -0.3632  0.7913  0.1445
 7706TIP3    H144533   1.785   3.631  10.759  0.8441  0.1295 -0.2624
 7706TIP3    H244534   1.904   3.647  10.851 -2.1322  1.2918  3.5231
 7707TIP3   OH244535   4.050   2.835  13.573 -0.3020 -0.3525 -0.1510
 7707TIP3    H144536   4.072   2.744  13.594  1.2986  0.6833  2.8580
 7707TIP3    H244537   3.960   2.846  13.603 -1.1572 -1.3979 -2.1922
 7708TIP3   OH244538   4.161   3.664  16.555 -0.3448 -0.2518  0.3286
 7708TIP3    H144539   4.245   3.635  16.590  0.8121 -0.1937 -2.3171
 7708TIP3    H244540   4.097   3.603  16.592  1.2670 -2.3376 -0.2727
 7709TIP3   OH244541   6.107   3.554   5.537  0.4390 -0.1285 -0.5230
 7709TIP3    H144542   6.098   3.571   5.443 -0.6073 -0.7224 -0.5289
 7709TIP3    H244543   6.151   3.469   5.543 -0.4000 -0.5589 -0.4721
 7710TIP3   OH244544   1.386   1.863  16.750 -0.2124 -0.2452 -0.5214
 7710TIP3    H144545   1.398   1.778  16.792 -0.7275  0.9913  2.2573
 7710TIP3    H244546   1.471   1.907  16.758  0.0016 -0.3967 -1.7845
 7711TIP3   OH244547   6.040   6.130  16.489 -0.1876 -0.3559  0.1200
 7711TIP3    H144548   5.947   6.110  16.501  0.2000 -1.6926  1.0530
 7711TIP3    H244549   6.046   6.166  16.400 -1.4288 -1.3320 -0.3721
 7712TIP3   OH244550   0.205   2.611   5.760  0.0320  0.1386  0.5708
 7712TIP3    H144551   0.280   2.563   5.726  0.1280  0.4226  0.3802
 7712TIP3    H244552   0.191   2.574   5.847 -1.4151 -1.9162 -0.5099
 7713TIP3   OH244553   5.243   1.338   3.437  0.4345 -0.5863 -0.3352
 7713TIP3    H144554   5.264   1.244   3.435 -0.8246 -0.8536 -2.9193
 7713TIP3    H244555   5.203   1.355   3.352 -0.6965  2.0053  0.6788
 7714TIP3   OH244556   0.963   2.882  12.083 -0.2392  0.3274 -0.4620
 7714TIP3    H144557   1.000   2.888  12.171 -1.6068 -0.8796  0.2188
 7714TIP3    H244558   0.872   2.912  12.094 -0.1646  0.9960 -1.6317
 7715TIP3   OH244559   3.711   4.002   4.434 -0.8674  0.1161 -0.3524
 7715TIP3    H144560   3.744   4.006   4.524  0.7900  0.5738 -0.9618
 7715TIP3    H244561   3.659   4.081   4.424 -2.1969 -0.6112  0.6216
 7716TIP3   OH244562   4.297   2.379   3.809  0.4244 -1.1358 -0.4427
 7716TIP3    H144563   4.385   2.374   3.773  1.6012  1.0177  2.0178
 7716TIP3    H244564   4.308   2.364   3.903 -1.7251 -0.1928 -0.0047
 7717TIP3   OH244565   2.694   2.111   1.427  0.2506  0.3457 -0.2531
 7717TIP3    H144566   2.701   2.072   1.514 -1.3995  1.3390  0.3708
 7717TIP3    H244567   2.726   2.201   1.438  0.6434  0.2756 -0.8138
 7718TIP3   OH244568   0.452   4.023   2.530 -0.0302 -0.4166 -0.3032
 7718TIP3    H144569   0.544   4.027   2.556  0.0949  0.1606 -0.8113
 7718TIP3    H244570   0.430   4.113   2.507 -0.4861 -0.6977 -0.9816
 7719TIP3   OH244571   2.664   2.640   3.960  0.1110 -0.1859  0.5013
 7719TIP3    H144572   2.745   2.587   3.958 -0.0377 -0.4073  0.2186
 7719TIP3    H244573   2.604   2.590   4.014  0.0806 -0.1446  0.5056
 7720TIP3   OH244574   1.605   2.687   2.450  0.1426  0.1150 -0.8840
 7720TIP3    H144575   1.627   2.624   2.381 -0.4981 -0.6186 -0.4288
 7720TIP3    H244576   1.549   2.751   2.406  1.2667  0.6939 -1.4860
 7721TIP3   OH244577   3.123   0.600   0.794 -0.1899  0.0155  0.0082
 7721TIP3    H144578   3.060   0.617   0.864 -1.0890 -0.9275 -0.5571
 7721TIP3    H244579   3.178   0.529   0.828 -0.6178 -0.4333 -0.2465
 7722TIP3   OH244580   6.288   0.503   0.737 -0.8271 -0.1114 -0.4925
 7722TIP3    H144581   6.300   0.438   0.806  0.4888 -0.6132 -1.1717
 7722TIP3    H244582   6.354   0.481   0.671  0.1179  2.3249 -0.4236
 7723TIP3   OH244583   5.620   0.558   3.571 -0.3160 -0.5716 -0.4685
 7723TIP3    H144584   5.530   0.591   3.567  0.6626  2.1462 -1.1731
 7723TIP3    H244585   5.665   0.602   3.499  1.8926 -0.9240  0.6421
 7724TIP3   OH244586   6.745   3.774  11.348  0.2367  0.2084  0.9550
 7724TIP3    H144587   6.677   3.841  11.357 -1.4002 -0.9091 -2.2616
 7724TIP3    H244588   6.819   3.820  11.310 -1.2452  0.0742 -2.2502
 7725TIP3   OH244589   2.378   3.172   2.298 -0.2832  0.9144 -0.0084
 7725TIP3    H144590   2.350   3.260   2.320 -0.7113  0.5099  1.0792
 7725TIP3    H244591   2.473   3.173   2.313 -0.5493  0.6763  1.7959
 7726TIP3   OH244592   3.412   0.682   6.103  0.3450 -0.3322  0.3694
 7726TIP3    H144593   3.405   0.626   6.180  0.5400  1.2001  1.5127
 7726TIP3    H244594   3.409   0.621   6.029 -0.7765 -1.7346  1.5437
 7727TIP3   OH244595   0.826   2.646  16.606  0.7539  0.3878  0.8513
 7727TIP3    H144596   0.819   2.603  16.691 -1.2786 -1.1101 -0.0156
 7727TIP3    H244597   0.766   2.597  16.549  2.0294  1.3760 -1.4420
 7728TIP3   OH244598   1.080   6.522   5.401  0.2658 -0.0881 -0.0210
 7728TIP3    H144599   1.143   6.517   5.328  1.1294 -2.0968  0.8136
 7728TIP3    H244600   1.015   6.455   5.380 -0.9932  1.2040 -0.2995
 7729TIP3   OH244601   6.403   5.972   5.332 -0.3085  0.3596 -0.0513
 7729TIP3    H144602   6.454   6.048   5.305 -0.0545  0.7364  1.4552
 7729TIP3    H244603   6.331   5.968   5.268 -0.1809  1.6955 -0.3021
 7730TIP3   OH244604   4.331   4.700  16.123 -0.5806  0.6730 -0.4026
 7730TIP3    H144605   4.245   4.711  16.163 -0.0382  1.3644  0.6163
 7730TIP3    H244606   4.389   4.757  16.174  0.4051  0.5223 -1.3208
 7731TIP3   OH244607   3.907   3.796   1.510  0.1909 -0.4162  0.2897
 7731TIP3    H144608   3.829   3.818   1.560 -0.6057  0.2909 -1.2308
 7731TIP3    H244609   3.938   3.714   1.549 -1.3199 -0.7246  0.8804
 7732TIP3   OH244610   1.612   1.825  14.139 -0.7841  0.2168 -0.1944
 7732TIP3    H144611   1.520   1.802  14.146 -0.6728 -0.3560 -0.5906
 7732TIP3    H244612   1.623   1.856  14.049 -1.1746  2.9562  0.6468
 7733TIP3   OH244613   0.575   4.323   1.879 -0.7517  0.2994 -0.4104
 7733TIP3    H144614   0.511   4.348   1.946 -2.5928  1.2226 -2.4598
 7733TIP3    H244615   0.636   4.396   1.876 -1.0985  0.6000 -0.2565
 7734TIP3   OH244616   1.031   1.400   4.907 -0.2850 -0.1904 -0.7065
 7734TIP3    H144617   1.067   1.486   4.931 -0.7448 -0.5373  1.3454
 7734TIP3    H244618   0.939   1.417   4.888 -0.8171 -0.4704  1.4540
 7735TIP3   OH244619   4.165   4.736  15.897 -0.4638  0.8991 -0.2736
 7735TIP3    H144620   4.114   4.663  15.864  0.8157  0.1851 -0.7244
 7735TIP3    H244621   4.157   4.730  15.992 -1.0143  0.6441 -0.3386
 7736TIP3   OH244622   6.530   5.275   2.826  0.3450  0.0106 -0.1456
 7736TIP3    H144623   6.555   5.352   2.775  0.0394  1.5097  1.9044
 7736TIP3    H244624   6.601   5.263   2.889 -2.5035  2.5968  3.8287
 7737TIP3   OH244625   2.584   0.086   4.850  0.0926 -0.7614  0.1010
 7737TIP3    H144626   2.525   0.158   4.870  0.0994 -0.2461 -1.6610
 7737TIP3    H244627   2.587   0.082   4.754  2.2182 -1.3488  0.1523
 7738TIP3   OH244628   0.956   0.387  16.268  0.2414 -0.0292 -0.0778
 7738TIP3    H144629   1.012   0.311  16.282 -0.3681 -0.3912  0.3610
 7738TIP3    H244630   0.978   0.447  16.339  0.2787 -0.0489 -0.0736
 7739TIP3   OH244631   1.199   1.709   3.239  0.2745  0.1642 -0.3299
 7739TIP3    H144632   1.225   1.661   3.317 -0.1338 -0.6009 -0.6573
 7739TIP3    H244633   1.208   1.802   3.263  1.8317 -0.0726  0.0418
 7740TIP3   OH244634   1.406   0.881  13.981  0.7878  0.5176  0.1108
 7740TIP3    H144635   1.432   0.973  13.990  2.8437 -0.1265  1.0699
 7740TIP3    H244636   1.438   0.856  13.894 -0.3364  0.8604 -0.4168
 7741TIP3   OH244637   1.663   4.961   1.769 -0.0781  0.0473  0.1127
 7741TIP3    H144638   1.696   5.007   1.692 -0.0847 -0.2039 -0.0401
 7741TIP3    H244639   1.720   4.885   1.777 -0.3560 -0.1608  0.0960
 7742TIP3   OH244640   1.316   0.727   3.478  0.5191  0.0842 -0.3932
 7742TIP3    H144641   1.388   0.664   3.484  0.9314  0.6570  0.8234
 7742TIP3    H244642   1.276   0.709   3.393  1.3125 -1.0860 -0.5387
 7743TIP3   OH244643   2.795   6.727  15.834 -0.1265  0.1936  0.5456
 7743TIP3    H144644   2.880   6.772  15.834  0.3993 -0.7780  0.9025
 7743TIP3    H244645   2.737   6.787  15.880  0.0309  1.4712 -0.8940
 7744TIP3   OH244646   6.400   5.287   4.290  0.7256 -0.1029 -0.3851
 7744TIP3    H144647   6.453   5.297   4.211  0.8447  2.0977 -0.0535
 7744TIP3    H244648   6.460   5.306   4.362  0.5573 -1.8527  0.2388
 7745TIP3   OH244649   6.398   1.523   4.663 -0.0673  0.6834 -0.7874
 7745TIP3    H144650   6.489   1.521   4.631  0.5096  0.9750  0.7861
 7745TIP3    H244651   6.375   1.432   4.677  0.6971  0.7115  0.7412
 7746TIP3   OH244652   3.215   0.856   4.979  0.2420  1.0330  0.0878
 7746TIP3    H144653   3.248   0.839   4.890  0.7884  1.7258  0.1523
 7746TIP3    H244654   3.191   0.770   5.012 -1.0723  0.9010 -1.1618
 7747TIP3   OH244655   4.156   5.843   4.878  0.1961  0.0107 -0.6589
 7747TIP3    H144656   4.117   5.882   4.956  0.6055  1.3585 -1.1175
 7747TIP3    H244657   4.101   5.872   4.806 -0.4440 -1.5928 -0.8512
 7748TIP3   OH244658   6.229   6.515  11.489 -0.1834 -0.4320 -0.0161
 7748TIP3    H144659   6.155   6.493  11.432  0.9563  1.1622 -2.1845
 7748TIP3    H244660   6.226   6.610  11.496  1.6888 -0.3409 -0.2031
 7749TIP3   OH244661   3.578   6.749  14.368  0.3153 -0.3707 -0.1881
 7749TIP3    H144662   3.549   6.709  14.286 -3.9922 -0.6574  1.3516
 7749TIP3    H244663   3.606   6.675  14.422 -1.4664 -0.7336  0.2889
 7750TIP3   OH244664   6.090   2.160   4.448 -0.4662  0.2239  0.1844
 7750TIP3    H144665   6.040   2.089   4.408 -0.5650  1.0563 -1.1872
 7750TIP3    H244666   6.175   2.156   4.404 -0.3074  0.6588  0.4537
 7751TIP3   OH244667   3.065   5.205   5.318  0.3750  0.2992 -0.6311
 7751TIP3    H144668   2.995   5.256   5.356 -0.3642 -0.2366 -1.2515
 7751TIP3    H244669   3.144   5.232   5.365 -0.3952  0.1795  0.7472
 7752TIP3   OH244670   1.147   2.097   3.670  0.7857  0.1018  0.3541
 7752TIP3    H144671   1.061   2.138   3.682  1.7666  2.8477 -1.4226
 7752TIP3    H244672   1.128   2.005   3.656 -2.1981  1.1738 -3.4723
 7753TIP3   OH244673   4.034   0.284   2.353 -0.1877 -0.0880 -0.1773
 7753TIP3    H144674   4.112   0.323   2.314 -0.1821 -0.0361 -0.1153
 7753TIP3    H244675   4.034   0.316   2.443  0.0326 -0.5474 -0.0117
 7754TIP3   OH244676   1.525   4.374   1.192 -0.1409  0.1659  0.2856
 7754TIP3    H144677   1.522   4.279   1.180 -1.4028  0.0450  1.4207
 7754TIP3    H244678   1.443   4.406   1.153 -0.7783  0.5342  1.8808
 7755TIP3   OH244679   4.880   0.907   0.620 -0.0211 -0.4560 -0.1819
 7755TIP3    H144680   4.927   0.856   0.686 -1.3798  0.2526  1.3709
 7755TIP3    H244681   4.788   0.901   0.647 -0.2170  2.6249 -0.0736
 7756TIP3   OH244682   5.958   4.772  15.510  0.4126  0.1206 -0.2033
 7756TIP3    H144683   5.921   4.860  15.511 -1.2757 -0.5675  0.7974
 7756TIP3    H244684   5.975   4.753  15.602  1.8345 -0.1816 -0.5183
 7757TIP3   OH244685   0.594   5.036  11.772  0.2211  0.1982  0.4912
 7757TIP3    H144686   0.624   4.960  11.823  1.1642 -0.8457 -1.5391
 7757TIP3    H244687   0.499   5.036  11.784 -0.0048 -2.3551 -0.8054
 7758TIP3   OH244688   1.241   1.546   6.479  0.1394  0.1404  0.3699
 7758TIP3    H144689   1.256   1.625   6.427  1.1868  0.6110  1.3640
 7758TIP3    H244690   1.147   1.528   6.469  0.0741  0.9856 -0.5990
 7759TIP3   OH244691   5.687   3.584  15.158 -0.6808  0.3763  0.0862
 7759TIP3    H144692   5.673   3.666  15.206  1.0370  0.0738  1.1507
 7759TIP3    H244693   5.719   3.611  15.072  4.0024  0.8466  1.7982
 7760TIP3   OH244694   5.069   0.462  12.841  0.5377 -0.3540  0.0073
 7760TIP3    H144695   5.005   0.395  12.819 -1.5154  1.5306  0.0498
 7760TIP3    H244696   5.153   0.426  12.812 -0.7333 -2.2407 -1.4170
 7761TIP3   OH244697   3.075   1.861  14.602  0.4207  0.0322  0.1130
 7761TIP3    H144698   3.165   1.878  14.630 -0.1630  0.5350  1.6944
 7761TIP3    H244699   3.076   1.772  14.569  1.6534  0.2768 -0.5330
 7762TIP3   OH244700   0.277   6.356  13.313  0.6567  0.0481  0.2988
 7762TIP3    H144701   0.246   6.342  13.223 -0.5857  0.2352  0.6848
 7762TIP3    H244702   0.206   6.324  13.368  1.1450  0.5220  1.2216
 7763TIP3   OH244703   2.390   4.601   2.930 -0.1488 -0.0703  0.2287
 7763TIP3    H144704   2.296   4.594   2.950 -0.3015  0.4202 -0.2988
 7763TIP3    H244705   2.431   4.619   3.015 -0.6149  0.4124  0.3542
 7764TIP3   OH244706   1.152   5.242   5.529 -0.1058 -0.5131  0.4923
 7764TIP3    H144707   1.105   5.319   5.497  1.0941 -0.4700 -1.2502
 7764TIP3    H244708   1.178   5.195   5.450  2.8936 -0.4717  1.3691
 7765TIP3   OH244709   3.046   0.098   4.194  0.3918  0.2259 -0.3428
 7765TIP3    H144710   3.077   0.007   4.189  2.3628  0.8648  0.1370
 7765TIP3    H244711   3.046   0.118   4.287  1.3762  1.2073 -0.5540
 7766TIP3   OH244712   6.298   4.027  14.853  0.3679  0.4994  0.5866
 7766TIP3    H144713   6.391   4.050  14.854  0.3069  0.7340  1.0392
 7766TIP3    H244714   6.278   4.004  14.944 -0.4929  2.3960  0.9030
 7767TIP3   OH244715   4.524   0.086   4.126  0.0624 -0.6958 -0.3604
 7767TIP3    H144716   4.539   0.053   4.037  0.9382  0.6439 -0.7277
 7767TIP3    H244717   4.461   0.025   4.164  1.0037 -2.2918 -1.3010
 7768TIP3   OH244718   0.232   3.109  17.034  0.5750  0.6551  0.7151
 7768TIP3    H144719   0.297   3.040  17.029  0.1895  0.3030  0.4806
 7768TIP3    H244720   0.282   3.191  17.026  0.9946  0.3926  0.6503
 7769TIP3   OH244721   4.759   4.389  15.931  0.2057 -0.2172  0.2094
 7769TIP3    H144722   4.671   4.354  15.948  0.2783 -1.6399 -2.1486
 7769TIP3    H244723   4.818   4.321  15.962  0.4674  0.4033  1.0751
 7770TIP3   OH244724   0.478   0.748  14.494 -0.5939  0.0838  0.2922
 7770TIP3    H144725   0.471   0.781  14.405 -1.5571  1.8856  1.0159
 7770TIP3    H244726   0.433   0.663  14.491 -1.0088  0.3340 -0.8377
 7771TIP3   OH244727   1.739   4.294  11.520  0.6161 -0.7853 -0.0160
 7771TIP3    H144728   1.656   4.289  11.474  0.0804 -0.7350  0.9291
 7771TIP3    H244729   1.753   4.204  11.552  2.4221 -1.5275 -2.7342
 7772TIP3   OH244730   3.217   6.575   3.649  0.1217  0.7338 -0.1008
 7772TIP3    H144731   3.279   6.627   3.701  1.3725  1.0404 -1.8334
 7772TIP3    H244732   3.133   6.620   3.659  0.2342  0.5310  1.9901
 7773TIP3   OH244733   4.131   6.330  12.045  0.1415  0.4918  0.5830
 7773TIP3    H144734   4.040   6.341  12.072 -0.0301 -0.1014  0.2418
 7773TIP3    H244735   4.137   6.240  12.015  0.6202  0.7971 -0.2600
 7774TIP3   OH244736   4.440   6.550  15.969  0.4459  0.2363  0.7148
 7774TIP3    H144737   4.465   6.605  16.043  1.2462 -0.4732  0.9727
 7774TIP3    H244738   4.344   6.553  15.968  0.4982  2.1661  0.3229
 7775TIP3   OH244739   3.808   3.647   2.704 -0.3677  0.1585  0.0054
 7775TIP3    H144740   3.736   3.585   2.694  0.4588 -0.7794 -0.3171
 7775TIP3    H244741   3.776   3.729   2.667 -1.4341 -0.1141  0.3168
 7776TIP3   OH244742   6.451   6.549  13.515 -0.3630 -0.6157 -0.3222
 7776TIP3    H144743   6.477   6.468  13.471 -0.9921 -0.0925 -1.6952
 7776TIP3    H244744   6.373   6.525  13.565 -0.4624 -0.8874 -0.6086
 7777TIP3   OH244745   6.449   2.526  12.422  0.1994  0.4660  0.3724
 7777TIP3    H144746   6.432   2.534  12.516  1.4474 -0.1010  0.6616
 7777TIP3    H244747   6.542   2.501  12.417  0.0289  0.0915 -0.9928
 7778TIP3   OH244748   1.662   2.361  16.656 -0.5614 -0.4604  0.4178
 7778TIP3    H144749   1.741   2.398  16.616 -0.5736 -0.6478  0.2234
 7778TIP3    H244750   1.690   2.332  16.743 -0.2118 -1.3094  0.0263
 7779TIP3   OH244751   4.471   4.972   6.453 -0.2459 -0.5441  0.3479
 7779TIP3    H144752   4.545   4.988   6.395  0.4890 -0.7143  1.2226
 7779TIP3    H244753   4.497   4.895   6.504 -1.8622 -1.8242 -0.7171
 7780TIP3   OH244754   5.171   4.647  13.910 -0.0491 -0.2187 -0.4617
 7780TIP3    H144755   5.249   4.699  13.928 -1.5237  1.5703  0.8378
 7780TIP3    H244756   5.133   4.686  13.832 -0.0453 -0.6372 -0.6775
 7781TIP3   OH244757   1.719   2.897   0.933  0.1366 -0.0027  0.0449
 7781TIP3    H144758   1.716   2.939   1.019  0.1730  0.4151 -0.1563
 7781TIP3    H244759   1.628   2.876   0.913  0.1709 -0.4477  0.3545
 7782TIP3   OH244760   2.948   5.004  15.244  0.1247  0.4059  0.4030
 7782TIP3    H144761   2.920   5.095  15.233  0.1675  0.2173 -1.3316
 7782TIP3    H244762   3.041   5.009  15.263 -0.2525  0.8184  2.2255
 7783TIP3   OH244763   1.332   4.065   1.909 -0.4570 -0.4904  0.6753
 7783TIP3    H144764   1.250   4.075   1.959 -0.7931 -0.5870  0.1442
 7783TIP3    H244765   1.387   4.137   1.938 -1.6966  1.1111 -0.8740
 7784TIP3   OH244766   1.934   2.052   4.594  0.1348 -0.6900  0.1123
 7784TIP3    H144767   1.897   2.114   4.657 -1.1867 -0.5947 -0.7319
 7784TIP3    H244768   1.966   2.108   4.523  0.0799 -0.8996 -0.0748
 7785TIP3   OH244769   4.896   5.962   0.046 -0.5932 -0.2294 -0.1252
 7785TIP3    H144770   4.816   6.015   0.051 -0.8754 -0.7256  0.7379
 7785TIP3    H244771   4.961   6.011   0.096 -0.2095  0.4051 -1.2148
 7786TIP3   OH244772   5.314   4.298  15.080 -0.2401 -0.1034 -0.1570
 7786TIP3    H144773   5.222   4.321  15.063 -0.2381  1.1156  1.3025
 7786TIP3    H244774   5.364   4.355  15.022 -0.4117 -1.8226 -2.0550
 7787TIP3   OH244775   5.374   2.966   3.322  0.3441 -0.5956  0.3924
 7787TIP3    H144776   5.460   2.992   3.354 -0.7743  3.7778  0.2333
 7787TIP3    H244777   5.344   2.898   3.383  3.9129 -2.2805  0.3419
 7788TIP3   OH244778   6.018   4.646  12.869 -0.2945 -0.6088  0.0533
 7788TIP3    H144779   6.053   4.735  12.875 -0.1659 -0.7416  1.4026
 7788TIP3    H244780   5.923   4.658  12.861 -0.2493 -0.3491 -0.1001
 7789TIP3   OH244781   6.375   0.828   1.581  0.1452  0.2657 -0.1179
 7789TIP3    H144782   6.356   0.735   1.569 -2.2535  0.8038 -0.8739
 7789TIP3    H244783   6.295   0.864   1.619  0.5694  2.2443 -1.0306
 7790TIP3   OH244784   4.769   1.105   0.883 -0.7220  0.6343 -0.1879
 7790TIP3    H144785   4.850   1.145   0.914 -0.2829 -1.4097  1.4278
 7790TIP3    H244786   4.731   1.063   0.961 -1.5204 -1.4233 -1.6217
 7791TIP3   OH244787   4.980   4.490  13.460  0.4333 -0.7540  0.1182
 7791TIP3    H144788   5.008   4.439  13.536  0.8883 -2.0454 -0.8960
 7791TIP3    H244789   4.929   4.429  13.407 -0.7339  0.4192 -0.1231
 7792TIP3   OH244790   2.398   3.637   1.826 -0.3504  0.4916 -0.1002
 7792TIP3    H144791   2.392   3.730   1.850 -1.5689  0.6938 -1.1089
 7792TIP3    H244792   2.407   3.591   1.909  1.4606  1.5955  0.3449
 7793TIP3   OH244793   3.145   1.091   3.810 -0.0086 -0.6831 -0.5090
 7793TIP3    H144794   3.214   1.067   3.873 -0.2491  0.0528  0.0399
 7793TIP3    H244795   3.106   1.007   3.786  0.4308 -1.0228 -0.0728
 7794TIP3   OH244796   4.218   0.120  15.900 -0.1141 -0.3923 -0.4919
 7794TIP3    H144797   4.302   0.156  15.869  0.2580 -0.7314  0.1059
 7794TIP3    H244798   4.209   0.154  15.989 -0.8474  0.0272 -0.7220
 7795TIP3   OH244799   0.786   6.460  16.678 -0.1800 -0.0480 -0.4138
 7795TIP3    H144800   0.807   6.393  16.743  1.3823  1.2779  0.4978
 7795TIP3    H244801   0.731   6.523  16.724 -0.1437  0.2400 -0.7580
 7796TIP3   OH244802   6.670   0.678   0.504 -0.0407  0.0937 -0.2901
 7796TIP3    H144803   6.632   0.741   0.444  0.3518  0.9126  0.2986
 7796TIP3    H244804   6.734   0.630   0.452 -1.0729 -0.5219 -0.9972
 7797TIP3   OH244805   2.326   0.360   2.716 -0.2723 -0.2446  0.3598
 7797TIP3    H144806   2.287   0.274   2.699 -1.8670  0.5738 -0.2184
 7797TIP3    H244807   2.413   0.356   2.676  0.6334 -2.4136  2.4329
 7798TIP3   OH244808   2.336   3.302  15.392  0.3827  0.5508  0.2654
 7798TIP3    H144809   2.424   3.299  15.430 -0.1209  1.0377  1.4826
 7798TIP3    H244810   2.278   3.311  15.467 -0.7829 -0.8580 -0.4612
 7799TIP3   OH244811   3.558   2.179  16.097  0.1440  0.2493  0.1701
 7799TIP3    H144812   3.644   2.137  16.088 -0.3755 -1.0071  0.8978
 7799TIP3    H244813   3.576   2.262  16.140  1.2543  1.0317 -1.7203
 7800TIP3   OH244814   6.613   3.022   1.760  0.2956  0.2509  0.5035
 7800TIP3    H144815   6.579   2.946   1.807 -0.7975 -0.9195 -2.0432
 7800TIP3    H244816   6.640   2.987   1.675  0.5086  2.5738 -0.4256
 7801TIP3   OH244817   6.413   4.264   0.730  0.1234  0.0542 -0.0363
 7801TIP3    H144818   6.369   4.259   0.645  0.0459  1.4045 -0.0866
 7801TIP3    H244819   6.348   4.229   0.792 -0.2091  0.0199 -0.3997
 7802TIP3   OH244820   4.854   4.133   5.372  0.4024 -0.3714  0.8182
 7802TIP3    H144821   4.908   4.196   5.324  0.0529 -2.0939 -1.8956
 7802TIP3    H244822   4.881   4.144   5.463  4.2321 -0.1103 -0.2837
 7803TIP3   OH244823   6.690   1.491   2.257  0.0614 -0.2538 -0.4392
 7803TIP3    H144824   6.701   1.579   2.222 -0.8733  1.1177  2.5341
 7803TIP3    H244825   6.603   1.492   2.297  0.3260 -2.3138  0.2491
 7804TIP3   OH244826   4.747   1.270  11.698 -0.0430 -0.1466 -0.1330
 7804TIP3    H144827   4.836   1.234  11.700 -0.4943 -1.2347  1.2135
 7804TIP3    H244828   4.693   1.202  11.737 -1.1015  1.5551  1.4458
 7805TIP3   OH244829   1.061   1.222  16.028 -0.0546  0.1093 -0.3268
 7805TIP3    H144830   1.134   1.207  15.967  1.3868  2.8240  0.6595
 7805TIP3    H244831   1.095   1.198  16.113 -0.9347 -0.3367 -0.0889
 7806TIP3   OH244832   3.822   2.038  16.018 -0.0442  0.0710  0.3200
 7806TIP3    H144833   3.892   1.974  16.018 -0.5147 -0.4592 -0.6280
 7806TIP3    H244834   3.828   2.081  16.103  0.6911 -0.7702  0.6955
 7807TIP3   OH244835   3.767   6.278  14.206 -0.1081  0.9029  0.0327
 7807TIP3    H144836   3.730   6.258  14.120  2.1561 -0.2803 -0.7057
 7807TIP3    H244837   3.736   6.208  14.262 -0.9841  1.2668  0.0087
 7808TIP3   OH244838   4.394   1.777  13.425  0.3488 -0.4890  0.4728
 7808TIP3    H144839   4.475   1.825  13.405 -0.2159  0.2960  0.0282
 7808TIP3    H244840   4.350   1.831  13.490 -0.4317 -0.2577 -0.2434
 7809TIP3   OH244841   3.748   2.430  11.049 -0.4092 -0.2156 -0.0867
 7809TIP3    H144842   3.735   2.459  10.958  2.3741 -1.9447 -1.0870
 7809TIP3    H244843   3.734   2.509  11.101  1.3825  1.6208 -2.2893
 7810TIP3   OH244844   2.097   5.903  14.936  0.2587  0.0128 -0.0109
 7810TIP3    H144845   2.022   5.912  14.995 -0.8525 -2.1277 -1.0309
 7810TIP3    H244846   2.058   5.904  14.848  1.6603  0.9880 -0.6266
 7811TIP3   OH244847   1.821   3.556  14.830  0.1009 -0.5293  0.1318
 7811TIP3    H144848   1.772   3.558  14.912 -0.1555 -0.9993 -0.0103
 7811TIP3    H244849   1.761   3.594  14.765  0.4402  0.1902  0.2347
 7812TIP3   OH244850   3.481   0.839   6.695  0.5842  0.1315 -1.0945
 7812TIP3    H144851   3.468   0.825   6.601  1.5717 -2.3562 -0.8789
 7812TIP3    H244852   3.395   0.822   6.734  0.3715  0.3971 -1.4354
 7813TIP3   OH244853   1.307   0.023  12.898 -0.2689  0.3960  0.3679
 7813TIP3    H144854   1.295  -0.055  12.953  0.0269 -0.9556 -1.4426
 7813TIP3    H244855   1.400   0.025  12.879 -0.7018 -0.4785 -1.9790
 7814TIP3   OH244856   5.877   6.048  10.819 -0.6853  0.4953 -0.4340
 7814TIP3    H144857   5.782   6.048  10.809 -0.6143  0.2505 -1.1662
 7814TIP3    H244858   5.891   6.033  10.912 -1.3740  1.3298 -0.1881
 7815TIP3   OH244859   5.897   2.981   0.316  0.5734  0.2769 -0.2146
 7815TIP3    H144860   5.935   2.999   0.402  2.3745 -0.8685 -0.7613
 7815TIP3    H244861   5.863   2.892   0.323 -0.5747  0.7015 -0.2520
 7816TIP3   OH244862   6.121   5.799   1.095  0.1999  0.5062  0.5645
 7816TIP3    H144863   6.092   5.880   1.136 -0.3669  0.4418  0.2916
 7816TIP3    H244864   6.162   5.749   1.167  0.3365  0.9262  0.7812
 7817TIP3   OH244865   0.695   6.421   3.197  0.4322  0.3242 -0.1159
 7817TIP3    H144866   0.738   6.338   3.176  0.3498  0.8114 -2.3767
 7817TIP3    H244867   0.660   6.408   3.285  1.9854 -1.3937  0.2908
 7818TIP3   OH244868   4.687   5.284  12.277  0.1892  0.3908  0.2242
 7818TIP3    H144869   4.743   5.278  12.355  2.0658 -1.5677 -1.2114
 7818TIP3    H244870   4.715   5.366  12.235 -0.0402  0.8800  1.0110
 7819TIP3   OH244871   1.680   1.998   0.775  0.0174  0.0822 -0.3986
 7819TIP3    H144872   1.591   1.992   0.741 -0.5783 -2.8322  1.5086
 7819TIP3    H244873   1.712   2.083   0.745 -3.7557  1.6390 -0.2240
 7820TIP3   OH244874   2.188   4.368  11.009 -0.4560  0.0227 -0.4094
 7820TIP3    H144875   2.283   4.362  11.012 -0.4516  0.2543 -0.1627
 7820TIP3    H244876   2.164   4.320  10.929 -0.4562 -4.2622  2.0412
 7821TIP3   OH244877   0.266   5.686  15.331 -0.0682  0.0745  0.2459
 7821TIP3    H144878   0.344   5.735  15.305 -0.0864  0.2011  0.4313
 7821TIP3    H244879   0.204   5.752  15.361  0.9255 -0.2433  3.1618
 7822TIP3   OH244880   6.074   3.573   0.144 -0.0731 -0.6146 -0.1523
 7822TIP3    H144881   6.062   3.558   0.237 -2.4922 -1.3218 -0.5340
 7822TIP3    H244882   6.016   3.510   0.102  1.0438 -0.3669 -2.1526
 7823TIP3   OH244883   1.653   5.496  15.008  0.6174 -0.0083 -0.2614
 7823TIP3    H144884   1.573   5.459  14.972 -0.0563  3.1943 -2.2410
 7823TIP3    H244885   1.722   5.437  14.977 -0.6751 -1.3451 -0.6890
 7824TIP3   OH244886   2.778   2.235  13.569  0.2328 -0.8962  0.5107
 7824TIP3    H144887   2.873   2.238  13.578  0.2092  0.8117  0.3493
 7824TIP3    H244888   2.745   2.267  13.653 -0.1630  0.0524  0.0080
 7825TIP3   OH244889   5.076   0.557  14.716 -0.4666 -0.1673 -0.1392
 7825TIP3    H144890   4.988   0.584  14.692 -0.0294  1.5973  0.1779
 7825TIP3    H244891   5.080   0.571  14.811  0.3886  0.4802 -0.2633
 7826TIP3   OH244892   5.594   6.324   2.176 -0.4069 -0.0509  0.1821
 7826TIP3    H144893   5.580   6.249   2.233  2.7401 -1.0903 -0.3183
 7826TIP3    H244894   5.675   6.365   2.208  0.4056  0.4387 -2.3220
 7827TIP3   OH244895   6.201   2.500  16.877 -0.6877  0.4565  0.1880
 7827TIP3    H144896   6.160   2.504  16.963 -0.3222  2.3359  0.2967
 7827TIP3    H244897   6.292   2.478  16.894 -1.4461 -3.0790 -0.0159
 7828TIP3   OH244898   1.054   2.595  11.752 -0.5661 -0.3463  0.6238
 7828TIP3    H144899   1.060   2.683  11.788 -2.5493  0.6487 -1.3364
 7828TIP3    H244900   1.108   2.597  11.673  1.4812 -1.6664  1.9734
 7829TIP3   OH244901   1.809   1.969   1.229 -0.0137 -0.3054  0.4099
 7829TIP3    H144902   1.782   1.885   1.266 -0.3624  0.0141  0.8811
 7829TIP3    H244903   1.854   1.945   1.148 -1.5001 -0.8631 -0.2850
 7830TIP3   OH244904   5.553   3.619  13.429  0.1089 -0.4502  0.3555
 7830TIP3    H144905   5.519   3.537  13.465 -2.5631  1.4260  2.3645
 7830TIP3    H244906   5.617   3.649  13.494  0.6007 -0.6359 -0.0463
 7831TIP3   OH244907   2.534   1.708   4.977  0.4413  0.2089 -0.0717
 7831TIP3    H144908   2.479   1.647   4.928  2.6124 -0.4312 -1.7826
 7831TIP3    H244909   2.602   1.734   4.915  2.2098  0.7887  2.0628
 7832TIP3   OH244910   4.891   1.634  13.569  0.1397  0.0003  0.1671
 7832TIP3    H144911   4.857   1.549  13.598 -1.4877  0.2506 -0.9486
 7832TIP3    H244912   4.975   1.642  13.613 -0.9104 -0.9723  2.4382
 7833TIP3   OH244913   3.508   4.048  13.037  0.1209 -0.0917 -0.1173
 7833TIP3    H144914   3.525   3.965  13.083 -1.0266 -1.0759 -1.4270
 7833TIP3    H244915   3.463   4.022  12.957 -1.8547  1.9474  0.2852
 7834TIP3   OH244916   5.006   6.635  14.068  0.2318  0.4682 -0.1974
 7834TIP3    H144917   4.922   6.656  14.109 -0.0881 -1.9567  0.4885
 7834TIP3    H244918   4.987   6.631  13.974  0.0775  2.0986 -0.2461
 7835TIP3   OH244919   4.530   2.157   1.456  0.2713 -0.0992 -0.4892
 7835TIP3    H144920   4.436   2.136   1.459  0.1330  0.4012 -1.2188
 7835TIP3    H244921   4.533   2.252   1.445  0.8917  0.0750  1.1124
 7836TIP3   OH244922   1.621   3.954  10.933 -0.1247 -0.0383  0.3856
 7836TIP3    H144923   1.528   3.950  10.955 -0.5053  0.1283 -1.1099
 7836TIP3    H244924   1.655   3.867  10.954 -0.6469 -0.1463  0.7974
 7837TIP3   OH244925   1.993   1.487   3.439  0.1602 -0.0180  0.6159
 7837TIP3    H144926   1.909   1.451   3.466 -0.6823  0.1848 -1.6618
 7837TIP3    H244927   2.006   1.563   3.497 -0.7153 -0.6327  1.6401
 7838TIP3   OH244928   4.361   3.937   0.375 -0.0039 -0.0239 -0.3776
 7838TIP3    H144929   4.391   4.009   0.319  0.3041  1.4446  1.6281
 7838TIP3    H244930   4.362   3.973   0.463 -2.8147 -1.5671  0.3246
 7839TIP3   OH244931   2.885   0.731  15.055 -0.1326 -0.1151 -0.0815
 7839TIP3    H144932   2.921   0.810  15.095 -0.8644  1.3927 -2.3155
 7839TIP3    H244933   2.865   0.674  15.129 -0.7386  2.2628  1.6486
 7840TIP3   OH244934   5.473   5.490   1.950  0.3376 -0.0390 -0.2737
 7840TIP3    H144935   5.506   5.566   1.902  0.3335 -0.0824 -0.3460
 7840TIP3    H244936   5.509   5.415   1.902  1.3310 -0.0696  0.4831
 7841TIP3   OH244937   5.036   5.756  16.694 -0.6514 -0.5438 -0.2836
 7841TIP3    H144938   5.077   5.840  16.714 -0.5882 -0.7292  0.3624
 7841TIP3    H244939   5.096   5.714  16.633 -1.7932  0.8530 -2.4244
 7842TIP3   OH244940   2.380   2.428   4.580 -0.3155 -0.1574  0.6981
 7842TIP3    H144941   2.315   2.490   4.547  0.6704  0.3533 -0.2921
 7842TIP3    H244942   2.418   2.389   4.501 -0.9561 -2.0633  1.3075
 7843TIP3   OH244943   5.383   2.785  11.286  0.4545 -0.1849  0.4684
 7843TIP3    H144944   5.330   2.816  11.359 -1.8410 -1.5410 -0.5520
 7843TIP3    H244945   5.332   2.809  11.208  0.5855 -2.8117 -0.4894
 7844TIP3   OH244946   6.336   4.061   2.027  0.2755  0.2842 -0.3447
 7844TIP3    H144947   6.385   4.090   2.103  0.5024 -0.0788 -0.3474
 7844TIP3    H244948   6.319   4.140   1.976 -1.5823  0.8329  1.0478
 7845TIP3   OH244949   5.103   1.296   0.302  0.5589  0.3630 -0.1246
 7845TIP3    H144950   5.072   1.354   0.372  0.5791 -0.1279  0.2932
 7845TIP3    H244951   5.082   1.343   0.221 -1.2239  0.0775  0.1541
 7846TIP3   OH244952   1.385   6.357  12.660 -0.2175  0.5458 -0.3909
 7846TIP3    H144953   1.293   6.335  12.648 -0.1832 -1.0050  1.7580
 7846TIP3    H244954   1.398   6.353  12.755  2.0679  0.6436 -0.6731
 7847TIP3   OH244955   1.284   2.322   0.355 -0.4980 -0.2324 -0.4422
 7847TIP3    H144956   1.310   2.303   0.265  0.9601 -1.4065  0.2082
 7847TIP3    H244957   1.270   2.236   0.395  0.5014  0.2016  0.9083
 7848TIP3   OH244958   1.949   3.819  16.040 -0.5414  0.8698  0.1486
 7848TIP3    H144959   1.956   3.883  15.970  1.8150 -0.6026 -1.0138
 7848TIP3    H244960   1.855   3.814  16.059 -1.1120  1.9862 -2.2467
 7849TIP3   OH244961   4.188   5.296   1.513  0.0640 -0.0615  0.2509
 7849TIP3    H144962   4.149   5.339   1.589 -0.0592 -0.6496  0.5261
 7849TIP3    H244963   4.135   5.217   1.500  0.0436  0.0707 -0.4885
 7850TIP3   OH244964   0.663   2.831  12.461  0.8578  0.0143  0.1402
 7850TIP3    H144965   0.638   2.815  12.370  0.3684  3.5171 -0.4200
 7850TIP3    H244966   0.590   2.795  12.512 -0.1920  0.4746 -0.9986
 7851TIP3   OH244967   5.026   0.603  14.313  0.3742  0.9305  0.0192
 7851TIP3    H144968   4.996   0.529  14.366  0.1055  1.2080  0.2549
 7851TIP3    H244969   5.103   0.570  14.268 -0.5903  0.0373 -1.0150
 7852TIP3   OH244970   3.874   0.007   2.813 -0.1766 -0.6058 -0.1342
 7852TIP3    H144971   3.956   0.017   2.763  0.1170  3.1901  1.0088
 7852TIP3    H244972   3.809  -0.017   2.747  1.4815 -2.0373 -1.3082
 7853TIP3   OH244973   6.079   0.127   0.212  0.0299 -0.7780  0.2705
 7853TIP3    H144974   6.068   0.099   0.121  0.1405 -2.0663  0.6299
 7853TIP3    H244975   6.118   0.214   0.207 -0.3750 -0.6593 -0.9134
 7854TIP3   OH244976   3.765   5.018  16.353  0.8373  0.1150 -0.4391
 7854TIP3    H144977   3.741   5.019  16.446  0.5870  1.0335 -0.5144
 7854TIP3    H244978   3.697   5.070  16.310  0.8881 -0.4063 -1.1579
 7855TIP3   OH244979   0.961   1.760   0.556  1.0619  0.6776 -0.0507
 7855TIP3    H144980   0.985   1.694   0.490  0.5877 -2.4103  2.7076
 7855TIP3    H244981   0.973   1.715   0.640 -2.4075  3.0591  1.8654
 7856TIP3   OH244982   2.554   3.312  12.952  0.2584  0.2854  0.0266
 7856TIP3    H144983   2.490   3.360  12.900 -1.4757 -1.2706  0.6583
 7856TIP3    H244984   2.626   3.374  12.964  0.1595  1.1295 -3.0999
 7857TIP3   OH244985   2.008   0.291  16.456  0.4478  0.4874  0.0213
 7857TIP3    H144986   1.951   0.273  16.531  0.8496  3.7544  1.1642
 7857TIP3    H244987   2.043   0.205  16.432 -4.0710 -1.4840 -0.0545
 7858TIP3   OH244988   0.281   5.249   3.965 -0.2092  1.0401  0.0686
 7858TIP3    H144989   0.228   5.292   3.898 -0.6609  1.5653  0.7664
 7858TIP3    H244990   0.226   5.247   4.043  0.1770  0.0927  0.3262
 7859TIP3   OH244991   5.739   4.354  16.657  0.0689  0.3463  0.3255
 7859TIP3    H144992   5.652   4.393  16.662 -0.0119  0.1979  0.0961
 7859TIP3    H244993   5.725   4.260  16.672 -0.1929 -0.1204 -2.5520
 7860TIP3   OH244994   0.111   0.165   1.905  0.3547 -0.4084 -0.4173
 7860TIP3    H144995   0.104   0.260   1.894 -2.1090 -0.8566 -3.0539
 7860TIP3    H244996   0.195   0.142   1.864  0.7619  0.5491 -0.1366
 7861TIP3   OH244997   0.283   3.625  16.452 -0.3757  0.0961 -0.6019
 7861TIP3    H144998   0.229   3.574  16.391 -1.6521  1.5230 -0.6979
 7861TIP3    H244999   0.274   3.716  16.422  0.7795  0.5395  0.3710
 7862TIP3   OH245000   4.718   2.183  14.516 -0.7488 -0.4025  0.0755
 7862TIP3    H145001   4.685   2.105  14.471 -1.2493 -0.3407  0.3277
 7862TIP3    H245002   4.719   2.159  14.609 -1.1255 -0.0312  0.1767
 7863TIP3   OH245003   2.604   2.769   4.781  0.8143 -0.6748 -0.5373
 7863TIP3    H145004   2.602   2.714   4.860  0.5920  0.3493  0.1843
 7863TIP3    H245005   2.683   2.823   4.792  1.3836 -1.2973 -1.5483
 7864TIP3   OH245006   3.160   3.798   5.582  0.2783 -0.7772 -0.1759
 7864TIP3    H145007   3.195   3.855   5.513 -1.1023 -0.5499 -0.6987
 7864TIP3    H245008   3.227   3.801   5.651 -0.2549  2.3529  0.2882
 7865TIP3   OH245009   5.534   3.391  13.845  0.3844  0.1592  0.4712
 7865TIP3    H145010   5.533   3.296  13.836 -0.3543  0.3928 -2.2572
 7865TIP3    H245011   5.464   3.410  13.908 -2.0347 -0.9025 -1.7729
 7866TIP3   OH245012   0.685   5.537  13.864  0.3699 -0.6355 -0.0106
 7866TIP3    H145013   0.651   5.451  13.840  0.5087 -0.6211 -0.2507
 7866TIP3    H245014   0.621   5.570  13.927 -1.1286  0.2058 -1.9251
 7867TIP3   OH245015   5.830   1.270   0.200  0.4749  0.7925 -0.3836
 7867TIP3    H145016   5.757   1.329   0.220  0.5703  1.4105 -1.8401
 7867TIP3    H245017   5.884   1.271   0.279 -0.1075  1.7929  0.0022
 7868TIP3   OH245018   1.567   1.772  11.868 -0.3556 -0.3440 -0.1706
 7868TIP3    H145019   1.656   1.803  11.855 -0.0135 -1.0651  0.4101
 7868TIP3    H245020   1.518   1.807  11.794  0.5769 -0.5904 -0.9144
 7869TIP3   OH245021   0.349   3.580  15.883  0.0748 -0.2380 -0.3214
 7869TIP3    H145022   0.295   3.650  15.846 -1.9622 -0.4473  2.1779
 7869TIP3    H245023   0.312   3.499  15.848 -2.2527 -0.4781  2.5215
 7870TIP3   OH245024   0.595   5.084  10.470  0.0306 -0.3379 -0.7514
 7870TIP3    H145025   0.558   5.159  10.423 -1.1068 -1.2056 -1.2661
 7870TIP3    H245026   0.683   5.074  10.434  0.2189  0.8012 -0.6206
 7871TIP3   OH245027   5.295   4.563   4.162  0.0006  0.0016 -0.0792
 7871TIP3    H145028   5.232   4.499   4.194  1.4755 -0.5061  1.9398
 7871TIP3    H245029   5.266   4.584   4.073 -1.6393 -1.9500 -0.0264
 7872TIP3   OH245030   1.305   4.456   1.501 -0.0161  0.1030 -0.6828
 7872TIP3    H145031   1.249   4.447   1.423  0.3857 -1.1134 -0.8363
 7872TIP3    H245032   1.258   4.408   1.569  0.2218  0.1608 -0.4792
 7873TIP3   OH245033   6.373   2.147   6.189 -0.4467 -0.0735 -0.2646
 7873TIP3    H145034   6.329   2.062   6.187 -1.6937  0.4785  1.8432
 7873TIP3    H245035   6.445   2.136   6.250  1.2167 -0.4111 -2.2214
 7874TIP3   OH245036   5.526   2.598  11.648 -0.3296 -0.4563  0.5622
 7874TIP3    H145037   5.549   2.573  11.558  0.0015 -2.9016  1.2838
 7874TIP3    H245038   5.446   2.650  11.639  1.0243  1.3429 -1.3262
 7875TIP3   OH245039   6.450   3.040  11.655  0.4966 -0.5529 -0.1090
 7875TIP3    H145040   6.510   3.067  11.586  0.5277  0.2665  0.2315
 7875TIP3    H245041   6.392   2.977  11.613  0.6583 -0.2336 -0.8217
 7876TIP3   OH245042   2.289   5.677  15.537 -0.6501 -0.2561 -0.1667
 7876TIP3    H145043   2.373   5.710  15.570 -0.7316  0.4715 -0.6633
 7876TIP3    H245044   2.259   5.745  15.477 -1.6122 -0.5052  0.0253
 7877TIP3   OH245045   5.013   5.818  15.816 -0.6340  0.6470 -0.3696
 7877TIP3    H145046   5.022   5.872  15.738  0.0237 -0.2250 -0.9033
 7877TIP3    H245047   4.980   5.878  15.883 -2.0575  1.1983 -1.5370
 7878TIP3   OH245048   2.799   2.202   4.955 -0.5364 -0.4646  0.3032
 7878TIP3    H145049   2.836   2.277   4.908 -0.4084 -0.3337  0.6076
 7878TIP3    H245050   2.720   2.237   4.997 -1.5139 -0.9743 -1.0982
 7879TIP3   OH245051   1.874   0.545   1.652 -0.3033 -0.4783 -0.4043
 7879TIP3    H145052   1.798   0.535   1.594 -0.1260 -0.8451 -0.5741
 7879TIP3    H245053   1.904   0.456   1.668 -0.5982 -0.4018  0.5948
 7880TIP3   OH245054   5.984   3.372   3.433 -0.1349 -0.0076 -0.1691
 7880TIP3    H145055   5.895   3.358   3.400 -0.3013 -0.9937  0.6724
 7880TIP3    H245056   5.989   3.318   3.512  0.3280  2.1886  1.3387
 7881TIP3   OH245057   1.728   3.679   0.135  0.0193  0.2527 -0.6322
 7881TIP3    H145058   1.823   3.687   0.142 -0.0110  1.2012 -1.1421
 7881TIP3    H245059   1.701   3.639   0.217  0.8747 -0.1710 -0.5514
 7882TIP3   OH245060   5.824   4.942  11.240  0.0356  0.1878 -0.1140
 7882TIP3    H145061   5.841   4.905  11.153  0.4910  0.2281 -0.0436
 7882TIP3    H245062   5.867   4.882  11.300  1.2218  1.1035 -0.0283
 7883TIP3   OH245063   6.040   5.816  16.764 -0.1317  0.0869 -0.5548
 7883TIP3    H145064   6.114   5.761  16.791  0.3563  0.1416 -1.7283
 7883TIP3    H245065   6.053   5.898  16.810  1.1812  0.4974 -1.6157
 7884TIP3   OH245066   2.557   0.321   0.604 -0.2747  0.2139  0.5388
 7884TIP3    H145067   2.619   0.391   0.626  0.4050 -0.5742  1.1416
 7884TIP3    H245068   2.487   0.331   0.670 -0.8787  1.1868 -0.2249
 7885TIP3   OH245069   4.222   1.942  12.638  0.0287 -0.0114 -0.1914
 7885TIP3    H145070   4.304   1.991  12.636  0.1669 -0.2918 -1.7338
 7885TIP3    H245071   4.240   1.868  12.697 -0.1565  1.6900  2.0719
 7886TIP3   OH245072   4.397   5.701   4.864 -0.5518  0.6835  0.6757
 7886TIP3    H145073   4.307   5.729   4.848 -0.9275 -1.5941 -1.7107
 7886TIP3    H245074   4.388   5.628   4.926 -0.3607  0.3956  0.3637
 7887TIP3   OH245075   2.828   5.433  12.129 -0.5672  0.2164  0.2037
 7887TIP3    H145076   2.834   5.367  12.198 -1.0637  0.9512  0.9554
 7887TIP3    H245077   2.810   5.515  12.175 -4.5630  0.1230 -1.0232
 7888TIP3   OH245078   6.156   1.599  11.306 -0.5557  0.0860 -0.4251
 7888TIP3    H145079   6.137   1.692  11.301 -0.4708  0.0124 -2.6357
 7888TIP3    H245080   6.072   1.556  11.290 -0.1596 -0.2068 -1.7817
 7889TIP3   OH245081   2.868   4.397  13.566  0.4967 -0.1150 -0.4466
 7889TIP3    H145082   2.907   4.368  13.648  0.5164 -1.7205 -1.0198
 7889TIP3    H245083   2.942   4.399  13.504  0.5086  1.2118 -0.4035
 7890TIP3   OH245084   4.710   6.401   4.710 -0.7163  0.4325 -0.5085
 7890TIP3    H145085   4.622   6.363   4.709 -0.7905  0.6286 -1.0350
 7890TIP3    H245086   4.702   6.484   4.663 -0.2267  0.4064 -0.6409
 7891TIP3   OH245087   3.065   4.659  14.144 -0.0826  0.4477  0.2214
 7891TIP3    H145088   2.972   4.675  14.126 -0.1977  0.4797  0.8153
 7891TIP3    H245089   3.083   4.712  14.222  0.7632  1.4512 -0.6469
 7892TIP3   OH245090   3.548   5.213  13.366  0.4512  0.0506  0.1058
 7892TIP3    H145091   3.627   5.264  13.385  0.2846  0.2850  0.1743
 7892TIP3    H245092   3.477   5.276  13.376  0.3811  0.2843 -1.6559
 7893TIP3   OH245093   4.045   4.235  15.674 -0.2889 -0.1330 -0.1890
 7893TIP3    H145094   4.010   4.263  15.758 -1.3042 -0.1024 -0.6117
 7893TIP3    H245095   4.075   4.146  15.689  0.6532  0.2974  0.5169
 7894TIP3   OH245096   0.974   1.975  11.194 -0.3570  0.0146 -0.4770
 7894TIP3    H145097   0.911   2.025  11.246  0.3509  0.3270  0.0788
 7894TIP3    H245098   1.013   1.913  11.256 -3.1525 -3.1345 -1.6958
 7895TIP3   OH245099   3.427   4.946   1.467 -0.1112  0.1056 -0.3268
 7895TIP3    H145100   3.423   5.042   1.460 -0.5793  0.1086 -0.0739
 7895TIP3    H245101   3.344   4.922   1.508 -0.4128 -0.4955 -1.2791
 7896TIP3   OH245102   4.188   4.371  11.812  0.0419  0.2551  0.0466
 7896TIP3    H145103   4.122   4.438  11.794 -0.7710  0.5140  3.5797
 7896TIP3    H245104   4.247   4.412  11.875  0.3151 -1.8496  1.2067
 7897TIP3   OH245105   6.721   6.289  12.297 -0.1971  0.0147 -0.5429
 7897TIP3    H145106   6.785   6.342  12.345  1.3457 -1.4020 -1.0109
 7897TIP3    H245107   6.759   6.277  12.211 -1.0874 -0.8542 -0.8314
 7898TIP3   OH245108   1.237   0.959  13.161  0.4738 -0.1692  0.1291
 7898TIP3    H145109   1.235   1.032  13.099 -0.5140 -0.2277  0.0787
 7898TIP3    H245110   1.257   0.882  13.107  2.2264  0.1607  0.2915
 7899TIP3   OH245111   4.466   2.860  14.049 -0.0821 -0.2152  0.3519
 7899TIP3    H145112   4.440   2.794  14.113 -0.9154  0.1991  0.4335
 7899TIP3    H245113   4.453   2.943  14.093  0.6505  0.0271  0.1257
 7900TIP3   OH245114   6.673   1.130   2.294 -0.2477 -0.3321  0.2318
 7900TIP3    H145115   6.753   1.079   2.299 -1.3141 -2.2332 -1.2109
 7900TIP3    H245116   6.664   1.152   2.201  0.7363  3.4608  0.9501
 7901TIP3   OH245117   2.278   2.576   5.618  0.9329 -0.3743  0.3276
 7901TIP3    H145118   2.289   2.606   5.527  0.8160 -0.4116  0.3004
 7901TIP3    H245119   2.357   2.605   5.663  0.8480 -0.0731  0.2866
 7902TIP3   OH245120   3.153   5.937  12.161  0.2920 -0.4749 -0.3951
 7902TIP3    H145121   3.108   6.002  12.107 -1.9576 -0.2073  1.6930
 7902TIP3    H245122   3.098   5.858  12.153  1.5188 -1.3023 -0.7606
 7903TIP3   OH245123   1.518   4.945  16.735  0.0034 -0.0847  0.0597
 7903TIP3    H145124   1.489   4.858  16.761 -0.7288  0.7762  2.3072
 7903TIP3    H245125   1.568   4.977  16.811  0.6389  1.2692 -0.9069
 7904TIP3   OH245126   6.420   2.709   1.035  0.0489 -0.4365 -0.1298
 7904TIP3    H145127   6.416   2.646   1.107  1.3144  0.8556  1.0879
 7904TIP3    H245128   6.507   2.697   0.998  0.2555  0.4993  0.0374
 7905TIP3   OH245129   6.109   0.122   0.900  0.2001 -0.0506  0.2325
 7905TIP3    H145130   6.176   0.065   0.862 -2.1183 -1.6667 -1.6326
 7905TIP3    H245131   6.090   0.185   0.831 -1.3173 -0.6267  0.0956
 7906TIP3   OH245132   1.673   4.529  12.382 -0.7162  0.1554 -0.6018
 7906TIP3    H145133   1.604   4.499  12.322 -0.5570  1.1085 -1.2750
 7906TIP3    H245134   1.707   4.448  12.421 -0.5610 -0.5190 -2.0796
 7907TIP3   OH245135   3.402   4.132  12.104 -0.1594 -0.1853 -0.2883
 7907TIP3    H145136   3.442   4.117  12.018 -0.9256  2.1735 -1.0945
 7907TIP3    H245137   3.470   4.177  12.154 -0.6684  0.8741 -0.5586
 7908TIP3   OH245138   0.262   1.077  12.394 -0.3620 -0.4484 -0.0060
 7908TIP3    H145139   0.179   1.046  12.358 -0.8957 -0.5461  1.2670
 7908TIP3    H245140   0.323   1.004  12.381 -0.6997 -0.7032 -0.1733
 7909TIP3   OH245141   2.717   3.729  13.972  0.1281  1.3218 -0.1798
 7909TIP3    H145142   2.763   3.753  14.053  1.0087 -2.3233  0.4752
 7909TIP3    H245143   2.780   3.751  13.903  1.8795 -1.1515  0.5491
 7910TIP3   OH245144   2.620   1.222  15.836 -0.8704  0.1797 -0.3218
 7910TIP3    H145145   2.598   1.299  15.784 -2.7618  0.6873  1.1375
 7910TIP3    H245146   2.708   1.239  15.868  0.4147 -0.2609 -3.4966
 7911TIP3   OH245147   3.001   6.520   6.436 -0.2019  0.0601 -0.0119
 7911TIP3    H145148   2.963   6.603   6.406 -0.5593 -0.1903 -0.2554
 7911TIP3    H245149   2.956   6.453   6.384  1.1567 -0.1858 -0.9025
 7912TIP3   OH245150   1.718   2.730   5.322  0.4781  0.1408 -0.0599
 7912TIP3    H145151   1.785   2.720   5.254  1.6610 -0.9928  1.2275
 7912TIP3    H245152   1.693   2.822   5.318  1.7768  0.4773 -0.8910
 7913TIP3   OH245153   4.215   2.251  15.128 -0.1395 -0.6862  0.5262
 7913TIP3    H145154   4.142   2.276  15.184 -1.0576 -1.4835 -0.2868
 7913TIP3    H245155   4.189   2.166  15.091  0.1489  0.0983 -1.5793
 7914TIP3   OH245156   0.272   2.727   2.084 -0.0684  0.2645 -0.7886
 7914TIP3    H145157   0.257   2.764   1.997 -0.5503 -1.3329 -1.4103
 7914TIP3    H245158   0.336   2.657   2.070 -0.5049 -0.3175  0.0542
 7915TIP3   OH245159   0.836   4.010   4.684 -0.9515  0.0875  0.2975
 7915TIP3    H145160   0.825   4.105   4.687 -0.4262  0.1173  1.7803
 7915TIP3    H245161   0.899   3.991   4.754 -0.4459 -1.2676 -0.5146
 7916TIP3   OH245162   4.370   6.750   1.611 -0.5152 -0.1455  0.1149
 7916TIP3    H145163   4.464   6.730   1.618 -0.2359  0.9333 -0.5140
 7916TIP3    H245164   4.334   6.679   1.557  0.3766  0.7461 -1.6842
 7917TIP3   OH245165   4.667   6.513  15.491  0.5710 -0.3425  0.5124
 7917TIP3    H145166   4.627   6.597  15.513 -1.3355 -1.0135 -0.3085
 7917TIP3    H245167   4.740   6.535  15.432  0.6495  0.7926  1.0350
 7918TIP3   OH245168   6.274   4.283  13.871  0.0577 -0.4480  0.0336
 7918TIP3    H145169   6.190   4.260  13.833  0.7054 -0.7922 -1.2156
 7918TIP3    H245170   6.330   4.207  13.856  1.7573  1.2352 -2.7540
 7919TIP3   OH245171   1.947   6.262  14.767  0.4949  0.1925  0.0090
 7919TIP3    H145172   1.957   6.229  14.856  1.4000 -0.7546 -0.4307
 7919TIP3    H245173   1.885   6.334  14.775 -0.3730 -0.6650  1.2250
 7920TIP3   OH245174   1.024   5.942   4.939  0.1056  0.2500 -0.5573
 7920TIP3    H145175   0.936   5.965   4.907  0.0550 -0.8113 -1.2300
 7920TIP3    H245176   1.015   5.851   4.968  0.5012  0.7661  1.2333
 7921TIP3   OH245177   5.586   4.420  16.389  0.2251 -0.5967 -0.6249
 7921TIP3    H145178   5.642   4.344  16.373 -0.3830 -1.1373 -0.2226
 7921TIP3    H245179   5.624   4.461  16.467  1.7056  0.6287 -1.9546
 7922TIP3   OH245180   2.391   1.998   3.578 -0.4514 -0.0342 -0.5108
 7922TIP3    H145181   2.373   2.069   3.517  1.3355  1.9400  1.1453
 7922TIP3    H245182   2.320   1.935   3.564 -1.7477  1.7909 -2.4396
 7923TIP3   OH245183   5.717   4.847   3.172  0.1179 -1.0460  0.0749
 7923TIP3    H145184   5.656   4.855   3.246  0.6904 -0.2807  0.4771
 7923TIP3    H245185   5.731   4.937   3.143  2.0384 -1.0778  0.8213
 7924TIP3   OH245186   1.863   0.215   2.697 -0.2168  0.4044  0.0112
 7924TIP3    H145187   1.833   0.287   2.752 -0.4829  1.0039 -0.9180
 7924TIP3    H245188   1.835   0.238   2.609  0.4802 -0.4074 -0.4330
 7925TIP3   OH245189   3.758   3.890  14.971  0.4335 -0.0613 -0.1237
 7925TIP3    H145190   3.701   3.890  14.895  3.4097 -0.4687 -2.4332
 7925TIP3    H245191   3.755   3.980  15.004 -0.5075  0.2247 -0.9663
 7926TIP3   OH245192   4.326   5.987   0.196  0.3748 -0.2710 -0.3635
 7926TIP3    H145193   4.356   6.038   0.121  0.6238  0.2291  0.0702
 7926TIP3    H245194   4.405   5.942   0.226  0.3614 -0.1622 -0.1655
 7927TIP3   OH245195   5.914   3.609   5.816 -0.6738 -0.0762 -0.2094
 7927TIP3    H145196   6.006   3.615   5.843 -0.3317 -1.4633 -1.0253
 7927TIP3    H245197   5.896   3.693   5.774 -0.0795  0.5933  0.8590
 7928TIP3   OH245198   5.779   5.616  15.362 -0.7210  0.0447 -0.0338
 7928TIP3    H145199   5.790   5.573  15.447  0.2901  0.3335 -0.0213
 7928TIP3    H245200   5.686   5.604  15.342 -0.9185 -0.2258  1.0057
 7929TIP3   OH245201   6.385   5.527   5.318  0.7722  0.6754 -0.3685
 7929TIP3    H145202   6.469   5.573   5.316  0.3377  1.5008 -0.0965
 7929TIP3    H245203   6.320   5.596   5.300  0.1906 -0.0442 -1.1049
 7930TIP3   OH245204   2.810   1.539   5.243 -0.0464  0.3323  0.0773
 7930TIP3    H145205   2.846   1.466   5.193  0.6459  0.2156  0.7186
 7930TIP3    H245206   2.846   1.617   5.201  0.7781  0.2243  0.5576
 7931TIP3   OH245207   6.014   3.344  12.299  0.0485 -0.4652 -0.4019
 7931TIP3    H145208   5.935   3.328  12.351  1.4569  1.3779  2.4197
 7931TIP3    H245209   6.074   3.274  12.324  0.6420  0.2923  0.3488
 7932TIP3   OH245210   6.434   0.178  16.220 -0.1062 -0.2412 -0.3896
 7932TIP3    H145211   6.498   0.113  16.249 -0.5641  0.1172  1.4632
 7932TIP3    H245212   6.409   0.149  16.132 -0.7911 -2.9440  0.6413
 7933TIP3   OH245213   3.321   2.198  12.722 -0.2291  0.0371  0.7809
 7933TIP3    H145214   3.294   2.121  12.773  0.4692 -1.2970 -0.8031
 7933TIP3    H245215   3.367   2.161  12.647  0.3291  2.0416  0.1214
 7934TIP3   OH245216   0.453   2.371  11.909  0.3833 -0.3745 -0.8013
 7934TIP3    H145217   0.434   2.406  11.996 -0.8712 -1.5145 -0.5893
 7934TIP3    H245218   0.544   2.344  11.914 -0.2871 -2.5325  0.9375
 7935TIP3   OH245219   4.264   2.248  14.212  0.5167  0.2014  0.0156
 7935TIP3    H145220   4.261   2.153  14.222 -0.1777  0.3750  1.6232
 7935TIP3    H245221   4.310   2.278  14.290  1.5480  1.1317 -0.9357
 7936TIP3   OH245222   2.533   0.226  13.277  0.8414 -0.7658 -0.3596
 7936TIP3    H145223   2.520   0.156  13.212 -1.4414 -0.2912 -0.4721
 7936TIP3    H245224   2.530   0.180  13.361  0.1663 -0.9207 -0.4634
 7937TIP3   OH245225   4.172   2.825   5.101 -0.1727 -0.5125  0.6267
 7937TIP3    H145226   4.120   2.772   5.162 -1.1699  0.4262  0.6018
 7937TIP3    H245227   4.173   2.913   5.140  2.4270 -0.7814  1.2495
 7938TIP3   OH245228   5.499   4.446  16.802 -0.1312  0.0312  0.3440
 7938TIP3    H145229   5.456   4.360  16.808 -1.9842  0.8981 -0.1451
 7938TIP3    H245230   5.520   4.468  16.892  0.0773 -0.7975  0.5084
 7939TIP3   OH245231   3.198   3.265  10.821  0.7347 -0.2497 -0.2419
 7939TIP3    H145232   3.147   3.321  10.763  1.2282  1.3371  0.8429
 7939TIP3    H245233   3.132   3.221  10.876  0.4494  0.6132  0.1062
 7940TIP3   OH245234   5.344   6.619   0.535  0.1636  0.0070  0.1650
 7940TIP3    H145235   5.404   6.669   0.591  0.7918 -0.2621 -0.2661
 7940TIP3    H245236   5.350   6.529   0.569  0.1272 -0.0517  0.0146
 7941TIP3   OH245237   1.178   1.079   0.923  0.7504 -0.4264 -0.0986
 7941TIP3    H145238   1.150   0.993   0.892  0.5997 -0.0559 -0.9977
 7941TIP3    H245239   1.097   1.122   0.952  0.4699  0.3827 -2.0522
 7942TIP3   OH245240   3.963   4.715  14.530 -0.2004 -0.2252 -0.1825
 7942TIP3    H145241   4.022   4.643  14.551 -0.4196  0.2789  2.3980
 7942TIP3    H245242   3.883   4.673  14.499  0.1653 -1.0454 -0.0305
 7943TIP3   OH245243   6.672   0.325   1.081  0.6913  0.8147 -0.7899
 7943TIP3    H145244   6.752   0.377   1.089  1.1420  0.0348 -0.1304
 7943TIP3    H245245   6.639   0.345   0.994  1.8677  0.7746 -1.2524
 7944TIP3   OH245246   1.165   1.213  11.288  0.4770 -0.4357 -0.1539
 7944TIP3    H145247   1.139   1.289  11.339  1.4023 -0.5494  0.5053
 7944TIP3    H245248   1.132   1.138  11.338  0.1070 -0.4917 -0.4815
 7945TIP3   OH245249   2.106   5.451   2.921 -0.2247  0.1103 -0.3790
 7945TIP3    H145250   2.023   5.459   2.874  0.0572 -0.1973 -0.9251
 7945TIP3    H245251   2.108   5.361   2.952 -0.6328  0.4382  0.6560
 7946TIP3   OH245252   0.960   0.941   1.693  0.2245 -0.6458 -0.3079
 7946TIP3    H145253   0.975   1.034   1.679  2.3761 -0.7511  0.9942
 7946TIP3    H245254   0.907   0.937   1.773  0.8730 -0.5350  0.1382
 7947TIP3   OH245255   5.315   0.718   5.446  0.9205 -0.0460  0.0982
 7947TIP3    H145256   5.324   0.702   5.540 -2.6959 -1.9708  0.2097
 7947TIP3    H245257   5.326   0.812   5.437  2.5856  0.0213  2.2550
 7948TIP3   OH245258   6.291   3.706  14.177  0.1318  0.2815  0.0969
 7948TIP3    H145259   6.228   3.639  14.149  0.7008 -0.3550  0.3277
 7948TIP3    H245260   6.349   3.660  14.237 -1.2972  1.6963  2.6547
 7949TIP3   OH245261   1.839   4.998   4.410 -1.0047  0.4173 -0.3389
 7949TIP3    H145262   1.758   5.043   4.386 -0.4761  1.2764 -0.5078
 7949TIP3    H245263   1.871   5.044   4.487 -1.1202 -0.4633  0.2504
 7950TIP3   OH245264   4.542   5.682   5.339 -0.0488  0.3205 -0.1057
 7950TIP3    H145265   4.581   5.596   5.329 -1.1663 -0.2513  0.3316
 7950TIP3    H245266   4.612   5.737   5.374  0.2004 -0.8145  1.2015
 7951TIP3   OH245267   5.559   3.650  15.539 -0.0118  0.0921  0.5060
 7951TIP3    H145268   5.491   3.717  15.534  0.1144  0.3100  1.4993
 7951TIP3    H245269   5.540   3.603  15.620 -0.7678 -1.8192 -0.7466
 7952TIP3   OH245270   2.541   3.940  16.081 -0.4482 -0.3611 -0.2186
 7952TIP3    H145271   2.485   3.889  16.022 -0.6208 -2.4820  1.6721
 7952TIP3    H245272   2.559   3.880  16.153 -0.0367  2.0753  1.7576
 7953TIP3   OH245273   5.830   4.095   5.840  0.2869 -0.4078 -0.5344
 7953TIP3    H145274   5.832   4.180   5.883  0.5591 -0.0259 -1.2862
 7953TIP3    H245275   5.856   4.033   5.907  2.1460  0.3504 -0.5415
 7954TIP3   OH245276   0.881   5.297  12.659  0.2304  0.4343  0.3436
 7954TIP3    H145277   0.866   5.213  12.614  1.0158 -1.0581  2.7456
 7954TIP3    H245278   0.806   5.306  12.718  0.3028  1.3068  0.3076
 7955TIP3   OH245279   0.443   5.140  12.784 -0.0593 -0.1081 -0.2261
 7955TIP3    H145280   0.366   5.167  12.734  0.3877  0.9333 -0.3512
 7955TIP3    H245281   0.441   5.044  12.781 -1.9410 -0.1068  0.6913
 7956TIP3   OH245282   4.818   3.321   1.660  0.2552 -0.4629  0.1958
 7956TIP3    H145283   4.859   3.348   1.742 -1.0311  0.7862  0.4405
 7956TIP3    H245284   4.886   3.334   1.594  0.4023  1.2067  0.6601
 7957TIP3   OH245285   5.329   2.690   4.992 -0.6175 -0.0971 -0.3881
 7957TIP3    H145286   5.388   2.623   5.027 -0.1001 -0.2352 -1.4715
 7957TIP3    H245287   5.373   2.773   5.010 -1.1093 -0.0690  0.6796
 7958TIP3   OH245288   0.431   5.131  10.665  0.0324  0.1266  0.7685
 7958TIP3    H145289   0.348   5.087  10.653  1.0855 -2.0692  1.2606
 7958TIP3    H245290   0.488   5.095  10.598 -0.0317  3.3847 -1.1488
 7959TIP3   OH245291   0.699   2.681   1.475 -0.2089  0.1207 -0.4909
 7959TIP3    H145292   0.781   2.659   1.518 -1.1705 -3.3558 -0.2787
 7959TIP3    H245293   0.703   2.637   1.390 -1.2768  1.0590 -1.0436
 7960TIP3   OH245294   3.539   4.157  12.360 -0.5396 -0.2468  0.0809
 7960TIP3    H145295   3.566   4.241  12.323 -1.5146 -0.0355 -0.1548
 7960TIP3    H245296   3.609   4.134  12.422  0.1568  0.3155 -0.4895
 7961TIP3   OH245297   3.458   2.032  11.677 -0.1625 -0.3652  0.0546
 7961TIP3    H145298   3.506   1.952  11.699  0.2979  0.3241  1.5814
 7961TIP3    H245299   3.527   2.096  11.657 -0.3535  0.9402  3.2994
 7962TIP3   OH245300   2.898   3.043   5.104  0.0938  0.0037 -0.0809
 7962TIP3    H145301   2.942   2.962   5.129 -0.2344 -0.5083 -1.1311
 7962TIP3    H245302   2.969   3.103   5.080  0.2449 -0.7502 -1.5615
 7963TIP3   OH245303   2.094   0.457  16.768 -0.4819 -0.0883  0.0542
 7963TIP3    H145304   2.094   0.548  16.738  0.2205 -0.1583 -0.1712
 7963TIP3    H245305   2.005   0.442  16.800 -0.0716  1.2705  1.9129
 7964TIP3   OH245306   1.809   2.561   6.247  0.3638 -0.4706 -0.2091
 7964TIP3    H145307   1.868   2.635   6.258 -0.5557  0.2226  0.1048
 7964TIP3    H245308   1.734   2.596   6.198 -0.8842 -0.7397  1.4475
 7965TIP3   OH245309   2.097   0.795  14.311  0.3507  0.1236 -0.0850
 7965TIP3    H145310   2.122   0.703  14.315  3.0683  0.8033 -0.4755
 7965TIP3    H245311   2.089   0.814  14.217  1.8756  0.7888 -0.0962
 7966TIP3   OH245312   1.447   4.799  14.752 -0.3508  0.0540 -0.6502
 7966TIP3    H145313   1.376   4.802  14.817 -0.2117 -1.8042 -0.3776
 7966TIP3    H245314   1.432   4.876  14.697 -1.4842  0.7132  0.5406
 7967TIP3   OH245315   1.467   3.840   0.040 -0.5826  0.3679  0.2528
 7967TIP3    H145316   1.542   3.790   0.071 -0.8462 -0.2245 -0.0541
 7967TIP3    H245317   1.462   3.819  -0.054  0.1965  2.1027 -0.2026
 7968TIP3   OH245318   3.268   6.759  13.749 -0.2481  0.1291  0.0136
 7968TIP3    H145319   3.275   6.765  13.844  1.9602  1.3854 -0.1877
 7968TIP3    H245320   3.333   6.692  13.725 -0.3769  0.2439 -0.6641
 7969TIP3   OH245321   6.269   3.963   5.581 -0.6356 -0.1217  0.4240
 7969TIP3    H145322   6.191   4.017   5.588 -0.0023  0.6009  2.0243
 7969TIP3    H245323   6.307   3.987   5.496 -1.7835 -0.0097 -0.0715
 7970TIP3   OH245324   5.315   3.592   5.150 -0.1062  0.3596 -0.2929
 7970TIP3    H145325   5.326   3.678   5.191 -0.4174  0.7786 -1.0879
 7970TIP3    H245326   5.222   3.573   5.157  0.1531 -0.5279  1.0834
 7971TIP3   OH245327   2.817   0.909   2.873  0.2448 -0.1993 -0.1700
 7971TIP3    H145328   2.843   0.851   2.944 -1.0734  0.3056  0.7497
 7971TIP3    H245329   2.815   0.996   2.913 -1.6271 -0.0618 -0.5265
 7972TIP3   OH245330   4.582   2.765  13.482 -0.0451 -0.2394  0.6131
 7972TIP3    H145331   4.489   2.783  13.489 -0.8881 -3.8281 -0.1795
 7972TIP3    H245332   4.595   2.685  13.533  2.0386 -1.3255 -1.5110
 7973TIP3   OH245333   4.879   2.699  16.453  0.3020  0.0656  0.2585
 7973TIP3    H145334   4.839   2.746  16.380 -0.9099 -2.1710 -0.5861
 7973TIP3    H245335   4.852   2.748  16.531 -2.1164 -0.0215 -0.4798
 7974TIP3   OH245336   0.323   4.152   4.200 -0.1591  0.0568  0.0965
 7974TIP3    H145337   0.263   4.097   4.250 -1.8086  1.0451 -0.7500
 7974TIP3    H245338   0.408   4.111   4.211 -1.0535 -1.5912  1.0258
 7975TIP3   OH245339   1.895   1.742  10.919 -0.2657  0.3284  0.1746
 7975TIP3    H145340   1.808   1.715  10.950 -1.0354  1.9966 -0.4551
 7975TIP3    H245341   1.877   1.815  10.860  1.6878  1.8337  1.3876
 7976TIP3   OH245342   6.109   5.378  16.141  0.7831  0.0597 -0.1141
 7976TIP3    H145343   6.167   5.414  16.208  0.5399  1.0716 -0.4428
 7976TIP3    H245344   6.167   5.324  16.087  1.0043 -0.6675  0.8281
 7977TIP3   OH245345   5.373   2.425   5.530  0.3631 -0.3486  0.2902
 7977TIP3    H145346   5.315   2.470   5.591 -0.9581 -1.2627 -0.2593
 7977TIP3    H245347   5.426   2.495   5.491  2.7011  0.0297  3.9599
 7978TIP3   OH245348   3.966   4.256  16.853 -0.5311  0.1365  0.2706
 7978TIP3    H145349   4.035   4.201  16.816  0.7649  0.1501  2.5547
 7978TIP3    H245350   4.001   4.345  16.846 -0.2883  0.1399  1.4693
 7979TIP3   OH245351   0.726   0.053  14.583 -0.6655  0.0706  0.4332
 7979TIP3    H145352   0.814   0.068  14.549 -0.4170  1.9273  1.8132
 7979TIP3    H245353   0.732  -0.032  14.628  0.2409 -0.1053 -0.0076
 7980TIP3   OH245354   6.267   3.080   2.773  0.1021  0.0363 -0.0565
 7980TIP3    H145355   6.332   3.011   2.787 -1.0316 -1.3937 -1.6167
 7980TIP3    H245356   6.198   3.061   2.836  0.1300  0.1868  0.0195
 7981TIP3   OH245357   5.480   2.854  15.472  0.2871  0.2403  0.6422
 7981TIP3    H145358   5.565   2.848  15.515  1.3878  2.3679 -1.1399
 7981TIP3    H245359   5.501   2.855  15.378 -1.5863  2.4255  0.2083
 7982TIP3   OH245360   4.126   4.765  15.015  0.0447 -0.2265  0.1629
 7982TIP3    H145361   4.115   4.789  14.923  0.0823 -0.9989 -0.0443
 7982TIP3    H245362   4.206   4.713  15.018 -0.1045 -0.4425  0.5850
 7983TIP3   OH245363   2.753   5.962   4.318 -0.0724  0.7249 -0.0849
 7983TIP3    H145364   2.797   5.979   4.402  1.5543  0.6014 -0.9060
 7983TIP3    H245365   2.688   5.894   4.339 -1.3568  2.4114  1.5785
 7984TIP3   OH245366   2.077   5.582   5.284  0.2246  0.8774  0.0250
 7984TIP3    H145367   2.144   5.523   5.321  0.7473  1.4164 -0.0456
 7984TIP3    H245368   1.999   5.564   5.336  0.3082 -0.0522 -0.1553
 7985TIP3   OH245369   1.360   1.117  15.393 -0.2143  0.2582 -0.0617
 7985TIP3    H145370   1.331   1.027  15.382 -0.7190  0.4571 -0.3509
 7985TIP3    H245371   1.322   1.145  15.476  1.4717 -0.3968  0.9656
 7986TIP3   OH245372   1.095   0.693  13.595 -0.2639  0.1376 -0.2782
 7986TIP3    H145373   1.107   0.778  13.552 -0.1265 -0.5497 -1.6295
 7986TIP3    H245374   1.179   0.675  13.637  0.5566 -0.4893 -2.1269
 7987TIP3   OH245375   1.740   4.117  14.308 -0.4954 -0.0207 -0.7961
 7987TIP3    H145376   1.766   4.159  14.390  0.0426 -5.4659  2.0535
 7987TIP3    H245377   1.644   4.119  14.310 -0.4806  0.3334 -0.2412
 7988TIP3   OH245378   4.149   2.990   0.302 -0.2486  0.0150 -0.1996
 7988TIP3    H145379   4.161   3.045   0.225  0.6795 -1.2304 -0.9407
 7988TIP3    H245380   4.151   2.901   0.269 -1.0250 -0.5010  1.1077
 7989TIP3   OH245381   3.233   0.509  13.014  0.2165 -0.4881  0.4534
 7989TIP3    H145382   3.276   0.508  13.100 -0.0335 -0.6986  0.5764
 7989TIP3    H245383   3.285   0.447  12.962  0.0742 -0.7309  0.5971
 7990TIP3   OH245384   6.483   1.551  14.031 -0.4197  0.2122 -0.1477
 7990TIP3    H145385   6.477   1.637  13.991 -0.6267 -0.3924 -1.4444
 7990TIP3    H245386   6.392   1.525  14.045 -0.3492  0.3906  0.6496
 7991TIP3   OH245387   6.288   3.363   2.032 -0.5998  0.2862  0.5248
 7991TIP3    H145388   6.326   3.446   2.003 -1.6477 -0.2084 -2.3502
 7991TIP3    H245389   6.350   3.296   2.003 -0.6386 -0.0919  1.2809
 7992TIP3   OH245390   6.491   5.416  13.392  0.0174  0.1048  0.0898
 7992TIP3    H145391   6.568   5.368  13.423  0.7891  0.2185 -1.5993
 7992TIP3    H245392   6.420   5.351  13.393 -0.0197  0.1308  2.1528
 7993TIP3   OH245393   3.624   6.463  17.156  0.1126  0.4178 -0.1114
 7993TIP3    H145394   3.551   6.438  17.099 -1.6905 -0.2170  2.3918
 7993TIP3    H245395   3.586   6.527  17.216  1.7846  0.5393  0.8264
 7994TIP3   OH245396   3.607   1.174   0.189 -0.5569  0.3172 -0.0244
 7994TIP3    H145397   3.583   1.264   0.166 -1.5779  0.0961  0.1518
 7994TIP3    H245398   3.694   1.182   0.229 -1.5194  1.5122  1.9140
 7995TIP3   OH245399   4.044   3.898   0.522  0.2066  0.2515  1.0874
 7995TIP3    H145400   4.120   3.957   0.519 -0.6613  1.3585  0.3848
 7995TIP3    H245401   3.981   3.944   0.578  0.4853 -1.1960  2.6188
 7996TIP3   OH245402   1.616   1.336  13.670 -0.1518  0.5368  0.0767
 7996TIP3    H145403   1.621   1.431  13.673  0.5969  0.4780  1.5822
 7996TIP3    H245404   1.525   1.316  13.690  0.0299  0.9179  1.3789
 7997TIP3   OH245405   4.701   6.283  16.638 -0.1416  0.0066  0.2806
 7997TIP3    H145406   4.756   6.206  16.654 -0.1138 -0.2256 -0.9086
 7997TIP3    H245407   4.764   6.355  16.625 -0.1525  0.0860  0.6700
 7998TIP3   OH245408   5.342   2.941   2.790  0.2422  0.0453 -0.3369
 7998TIP3    H145409   5.366   3.031   2.771 -1.2017  0.6533  0.6274
 7998TIP3    H245410   5.327   2.901   2.704  0.8158  0.7448 -0.7651
 7999TIP3   OH245411   3.349   6.168   5.814 -0.4190  0.2590  0.6813
 7999TIP3    H145412   3.342   6.121   5.897  1.1867 -0.7714  0.2455
 7999TIP3    H245413   3.373   6.101   5.750 -1.6711  1.0296 -0.6428
 8000TIP3   OH245414   4.959   6.674   2.690 -0.0361 -0.2096 -0.1710
 8000TIP3    H145415   4.908   6.737   2.740  1.4580  1.1701 -0.3436
 8000TIP3    H245416   5.045   6.673   2.732  0.4140 -1.0330 -1.0661
 8001TIP3   OH245417   6.230   6.534  13.255 -0.4334 -0.1197 -0.0523
 8001TIP3    H145418   6.247   6.443  13.278  0.6882  0.5927  2.0084
 8001TIP3    H245419   6.304   6.583  13.290  0.6562  1.2365 -4.0071
 8002TIP3   OH245420   4.425   0.483   5.930 -0.3638  0.1347 -0.8351
 8002TIP3    H145421   4.446   0.545   5.999  0.2168 -1.3815  0.3919
 8002TIP3    H245422   4.394   0.405   5.976 -0.2882 -0.7824 -2.2911
 8003TIP3   OH245423   0.138   1.176   0.078 -0.0094  0.3056 -0.7710
 8003TIP3    H145424   0.089   1.238   0.132  2.8129 -0.3491  2.6992
 8003TIP3    H245425   0.087   1.095   0.083 -0.5486  0.6658 -0.3117
 8004TIP3   OH245426   1.298   2.423  16.001 -0.2143  0.9555  0.4937
 8004TIP3    H145427   1.354   2.480  16.054  1.4519 -1.5328  1.4870
 8004TIP3    H245428   1.225   2.400  16.060  1.0608 -0.9096  1.3982
 8005TIP3   OH245429   1.926   4.017   3.217  0.4275 -0.5189 -0.0664
 8005TIP3    H145430   1.922   4.021   3.312  0.7597 -1.2621 -0.0163
 8005TIP3    H245431   1.836   4.030   3.188  0.3185 -0.3602  0.3512
 8006TIP3   OH245432   0.841   5.487   0.365  0.4231  0.3873  0.1937
 8006TIP3    H145433   0.859   5.500   0.272  1.6245  1.4800  0.5653
 8006TIP3    H245434   0.761   5.537   0.381  0.7659  1.0150 -0.0415
 8007TIP3   OH245435   1.294   6.365  13.377  0.1835  0.3099  0.0391
 8007TIP3    H145436   1.267   6.447  13.417 -0.5686 -0.0579  0.2921
 8007TIP3    H245437   1.234   6.353  13.304  0.6792  0.2888 -0.3644
 8008TIP3   OH245438   6.226   0.395  11.316 -0.0201  0.1455  0.6893
 8008TIP3    H145439   6.152   0.373  11.259  1.6223  1.0137 -1.8667
 8008TIP3    H245440   6.188   0.449  11.385 -2.2992 -2.0746  1.2466
 8009TIP3   OH245441   6.513   2.139  15.004  0.1101  0.0472  0.3434
 8009TIP3    H145442   6.467   2.066  15.047 -0.7448 -0.1332 -0.8739
 8009TIP3    H245443   6.503   2.122  14.911  0.3639  1.4573  0.0591
 8010TIP3   OH245444   3.656   2.262  15.140  0.2093  0.4336  0.1160
 8010TIP3    H145445   3.651   2.352  15.171  0.8320  0.4745  0.1016
 8010TIP3    H245446   3.688   2.269  15.050  0.3525  0.1908  0.1487
 8011TIP3   OH245447   0.767   5.807   1.424 -0.2768  0.0515 -0.2578
 8011TIP3    H145448   0.767   5.865   1.499  1.1960  2.0515 -1.7551
 8011TIP3    H245449   0.774   5.719   1.461 -2.4546  0.7792  2.0251
 8012TIP3   OH245450   4.906   1.714   4.529  0.1420  0.0716 -0.2885
 8012TIP3    H145451   4.870   1.692   4.443 -0.8997  2.0190 -0.3916
 8012TIP3    H245452   4.970   1.646   4.547  0.4385 -0.3089 -2.6601
 8013TIP3   OH245453   3.736   0.476   0.273  0.3234  0.8741 -0.1505
 8013TIP3    H145454   3.710   0.499   0.362  1.3739  2.5074 -0.2426
 8013TIP3    H245455   3.668   0.514   0.217  0.9489  1.9813 -0.1754
 8014TIP3   OH245456   1.907   3.710   3.609  0.1126  0.3773  0.2947
 8014TIP3    H145457   1.959   3.785   3.580 -1.1006  1.0551 -0.1645
 8014TIP3    H245458   1.836   3.749   3.661 -2.4531 -0.1577 -2.6797
 8015TIP3   OH245459   2.563   2.980  11.045 -0.1412  0.0077  0.0389
 8015TIP3    H145460   2.633   2.934  11.090  2.2624  1.1652 -2.3445
 8015TIP3    H245461   2.561   3.067  11.086 -0.0519  0.0272  0.0017
 8016TIP3   OH245462   3.800   6.493  11.201 -0.0576  0.6166 -0.4126
 8016TIP3    H145463   3.772   6.432  11.132  0.7052  0.5693 -0.6905
 8016TIP3    H245464   3.882   6.530  11.167  1.3032 -0.7637  1.2379
 8017TIP3   OH245465   0.409   3.696   1.864  0.1537  0.1968  0.7848
 8017TIP3    H145466   0.360   3.709   1.783 -0.9561 -0.6220  1.3212
 8017TIP3    H245467   0.410   3.602   1.877  1.3433  0.2498  1.1109
 8018TIP3   OH245468   2.141   5.785  10.397  0.0091  0.1394  0.4451
 8018TIP3    H145469   2.114   5.756  10.310 -0.0838 -0.6430  0.7340
 8018TIP3    H245470   2.073   5.753  10.455 -1.0641  2.4995  0.5582
 8019TIP3   OH245471   1.241   5.072   5.722  0.0666  0.1560 -0.2253
 8019TIP3    H145472   1.220   5.145   5.663 -0.7220 -0.0385 -0.1945
 8019TIP3    H245473   1.213   4.994   5.673 -2.1316  0.0990  1.0597
 8020TIP3   OH245474   4.444   2.900  13.059  0.3158  0.2153 -0.4302
 8020TIP3    H145475   4.520   2.949  13.090  0.6565 -0.8679  0.4832
 8020TIP3    H245476   4.376   2.917  13.124 -0.5950  2.0645 -1.8182
 8021TIP3   OH245477   0.764   6.300  14.748 -0.0540  0.5480 -0.2389
 8021TIP3    H145478   0.800   6.257  14.670 -0.2622 -0.7727  0.3836
 8021TIP3    H245479   0.678   6.261  14.760 -0.3127  1.2527  0.2650
 8022TIP3   OH245480   5.190   0.890  11.764  0.4774 -0.4687  0.1448
 8022TIP3    H145481   5.159   0.966  11.812  1.6853 -0.7098  1.3704
 8022TIP3    H245482   5.154   0.815  11.812  2.0270 -0.7208  0.9536
 8023TIP3   OH245483   3.589   2.593   3.075  0.0413  0.3814 -0.3890
 8023TIP3    H145484   3.497   2.584   3.101  0.1209 -2.2897 -0.8749
 8023TIP3    H245485   3.586   2.606   2.980  0.1757 -0.9124 -0.5868
 8024TIP3   OH245486   5.226   4.065  10.595  0.0056 -0.2853 -0.1924
 8024TIP3    H145487   5.281   4.066  10.517  1.7092  0.5973  0.9835
 8024TIP3    H245488   5.198   4.155  10.606 -0.6668 -0.5064 -0.0795
 8025TIP3   OH245489   0.063   1.422  11.817  0.3395  0.3068 -0.3956
 8025TIP3    H145490  -0.033   1.417  11.810  0.4566 -0.9339 -1.2068
 8025TIP3    H245491   0.095   1.347  11.766  1.6512 -1.2815  2.6292
 8026TIP3   OH245492   1.854   4.036  15.351  0.4896  0.0834 -0.1692
 8026TIP3    H145493   1.909   3.958  15.346  1.3393  0.7070 -0.6802
 8026TIP3    H245494   1.914   4.109  15.336 -0.9787  0.6038 -4.3066
 8027TIP3   OH245495   6.318   2.611   2.760  0.0795 -0.7362 -0.3967
 8027TIP3    H145496   6.394   2.635   2.811 -0.1712  0.5127 -0.6055
 8027TIP3    H245497   6.261   2.565   2.821 -1.2555  2.7512  1.0735
 8028TIP3   OH245498   2.354   0.246   5.244 -0.4897 -0.3912 -0.1734
 8028TIP3    H145499   2.422   0.179   5.228 -1.3235 -1.0560 -1.0110
 8028TIP3    H245500   2.402   0.320   5.280  0.6966 -0.8534 -0.7529
 8029TIP3   OH245501   4.444   2.603   5.525  0.0449  0.5655 -0.2892
 8029TIP3    H145502   4.433   2.582   5.433  0.0070 -0.2704 -0.1003
 8029TIP3    H245503   4.370   2.558   5.568  0.1638  0.8014  0.1612
 8030TIP3   OH245504   3.161   5.727   2.849 -0.0274  0.6131  0.7710
 8030TIP3    H145505   3.105   5.804   2.844 -0.2300  0.2915 -2.2957
 8030TIP3    H245506   3.249   5.760   2.832 -0.2174  0.0542 -1.3117
 8031TIP3   OH245507   1.170   0.386   4.373  0.2367 -0.1423  0.4911
 8031TIP3    H145508   1.119   0.461   4.342  0.3488 -0.2174  0.1185
 8031TIP3    H245509   1.213   0.418   4.452 -2.8192 -1.0505  2.5915
 8032TIP3   OH245510   2.795   0.108   5.016 -0.6270  0.8404  0.9434
 8032TIP3    H145511   2.731   0.121   4.946 -0.0490  0.0668  0.2665
 8032TIP3    H245512   2.772   0.023   5.054  0.3180  0.3221  0.3613
 8033TIP3   OH245513   4.993   6.557  15.623  0.4547  0.7181  0.4012
 8033TIP3    H145514   5.060   6.535  15.687  1.4771  1.3939 -0.4256
 8033TIP3    H245515   4.943   6.476  15.612  2.3455 -0.3643 -0.4147
 8034TIP3   OH245516   4.453   0.963  17.105 -0.5040 -0.2413  0.2976
 8034TIP3    H145517   4.452   0.930  17.015 -0.1216 -2.2994  1.0259
 8034TIP3    H245518   4.382   0.916  17.149  2.6097 -3.1555  2.3885
 8035TIP3   OH245519   3.493   3.806  13.262  0.0418  0.1308  0.8110
 8035TIP3    H145520   3.421   3.789  13.324 -0.2091  3.2820  1.4769
 8035TIP3    H245521   3.477   3.745  13.190 -0.5553 -2.5529  3.0857
 8036TIP3   OH245522   5.180   0.554   2.154  0.3778  0.7205 -0.4005
 8036TIP3    H145523   5.217   0.495   2.088 -0.4212  0.5872 -0.7328
 8036TIP3    H245524   5.124   0.613   2.105 -0.2584  0.5876  0.1655
 8037TIP3   OH245525   1.209   5.735   4.001 -0.1616 -0.1602  0.5956
 8037TIP3    H145526   1.208   5.704   3.910  0.0220 -1.5262  1.0425
 8037TIP3    H245527   1.273   5.805   4.002 -0.4899  0.1599 -0.4316
 8038TIP3   OH245528   5.868   2.500  12.926  0.7097 -0.1543  0.1445
 8038TIP3    H145529   5.819   2.582  12.920  0.1572 -0.4784  0.1522
 8038TIP3    H245530   5.955   2.525  12.956  0.4395  0.3901  0.4661
 8039TIP3   OH245531   1.519   3.935   5.523  0.1748 -0.2917  0.7736
 8039TIP3    H145532   1.588   3.993   5.555  0.3754 -0.5470  0.8075
 8039TIP3    H245533   1.509   3.869   5.592 -1.4578  0.8495  1.6666
 8040TIP3   OH245534   0.616   6.356  10.765 -0.7956  0.1112  0.0923
 8040TIP3    H145535   0.563   6.302  10.823 -0.3426 -1.5463 -1.0252
 8040TIP3    H245536   0.599   6.446  10.795 -1.2024 -0.6431  2.2548
 8041TIP3   OH245537   1.375   2.456  13.104 -0.6022 -0.2214  0.3714
 8041TIP3    H145538   1.438   2.528  13.099  0.0827 -0.6567  2.1738
 8041TIP3    H245539   1.371   2.421  13.015  1.9590 -0.3801  0.2946
 8042TIP3   OH245540   2.249   1.131   0.545 -0.1742 -0.8726  0.4430
 8042TIP3    H145541   2.233   1.037   0.551 -0.6114 -0.9250 -1.4399
 8042TIP3    H245542   2.275   1.156   0.634 -0.4447 -2.6878  1.0549
 8043TIP3   OH245543   1.574   5.404  13.888 -0.3289  0.0791  0.6802
 8043TIP3    H145544   1.636   5.416  13.960 -0.4374 -1.2358  1.0077
 8043TIP3    H245545   1.615   5.338  13.832 -1.0676 -0.2146  0.4796
 8044TIP3   OH245546   1.407   1.188   5.653  0.0407 -0.3222 -0.0722
 8044TIP3    H145547   1.479   1.134   5.686 -1.2455 -1.5721  0.7256
 8044TIP3    H245548   1.336   1.126   5.637 -0.7959  0.8786 -1.0316
 8045TIP3   OH245549   5.214   5.899  10.796 -0.3139  0.3099 -0.5064
 8045TIP3    H145550   5.301   5.860  10.790 -0.2502  0.4874 -0.7081
 8045TIP3    H245551   5.221   5.961  10.869 -1.0739 -1.8040  1.4521
 8046TIP3   OH245552   6.170   3.973  16.125  0.3541  0.2394 -0.4459
 8046TIP3    H145553   6.080   3.949  16.104  0.3265 -1.0534  1.0663
 8046TIP3    H245554   6.167   3.997  16.218  1.1551  2.3146 -0.9164
 8047TIP3   OH245555   5.315   2.430   0.351  0.2871  0.7028 -0.4996
 8047TIP3    H145556   5.229   2.389   0.366  0.2162  1.2408  0.6067
 8047TIP3    H245557   5.303   2.483   0.273  0.1170 -0.6463 -1.4138
 8048TIP3   OH245558   2.446   2.802   2.728  0.1076 -0.1513  0.2078
 8048TIP3    H145559   2.363   2.803   2.680  0.7031 -0.9243 -0.8498
 8048TIP3    H245560   2.434   2.867   2.798 -0.5338  1.4950 -1.3757
 8049TIP3   OH245561   4.860   1.596   4.303 -0.2307  0.2515 -0.3188
 8049TIP3    H145562   4.864   1.677   4.252  1.5709  0.7037  0.4813
 8049TIP3    H245563   4.865   1.527   4.237 -0.9072  0.8086 -0.9548
 8050TIP3   OH245564   1.160   0.063  14.313 -0.1266  0.8622  0.4789
 8050TIP3    H145565   1.233   0.123  14.295 -0.4977  0.2663 -3.3876
 8050TIP3    H245566   1.082   0.112  14.287 -0.8715  0.4853  1.9805
 8051TIP3   OH245567   2.193   0.945   4.358  1.1394  0.1096  0.3439
 8051TIP3    H145568   2.239   0.923   4.439  2.9421 -0.7363 -0.8562
 8051TIP3    H245569   2.226   1.031   4.334  1.4543 -0.1178 -0.0541
 8052TIP3   OH245570   3.420   5.863  12.033 -0.3060 -0.2269 -0.1541
 8052TIP3    H145571   3.373   5.798  11.981  0.3073 -1.1443  0.4278
 8052TIP3    H245572   3.352   5.904  12.086 -1.3554  2.5360 -3.5075
 8053TIP3   OH245573   2.053   6.729   1.969  0.4174 -0.0356 -0.1798
 8053TIP3    H145574   2.120   6.664   1.950 -0.0061 -0.7623  0.7774
 8053TIP3    H245575   2.099   6.813   1.967  1.0919 -0.4170 -0.7737
 8054TIP3   OH245576   1.746   3.621  13.062 -0.1574  0.9835  0.0573
 8054TIP3    H145577   1.776   3.700  13.108  0.6421  1.1677 -0.7564
 8054TIP3    H245578   1.772   3.635  12.971 -2.0521  0.7933 -0.5444
 8055TIP3   OH245579   0.307   5.369  13.730  0.4648  0.7292 -0.1581
 8055TIP3    H145580   0.284   5.289  13.777  0.8191  0.5487 -0.2890
 8055TIP3    H245581   0.330   5.339  13.642  0.9471  0.9350 -0.1028
 8056TIP3   OH245582   5.138   0.915   2.262  0.2691  0.1619  0.0163
 8056TIP3    H145583   5.048   0.883   2.273  0.6461  0.1253  3.5009
 8056TIP3    H245584   5.143   0.992   2.317  2.5225 -0.0962  0.2283
 8057TIP3   OH245585   5.306   5.888   3.730  0.0647  0.0571 -0.0054
 8057TIP3    H145586   5.247   5.963   3.721 -0.2578 -0.3158 -1.0551
 8057TIP3    H245587   5.247   5.812   3.734  0.4058 -0.1809  0.7039
 8058TIP3   OH245588   4.074   3.371   4.039  0.0177  0.1481 -0.0423
 8058TIP3    H145589   4.019   3.425   4.095 -0.0423  0.5716 -0.5030
 8058TIP3    H245590   4.163   3.383   4.073  0.2394  1.8490 -1.1525
 8059TIP3   OH245591   3.197   4.159  16.676 -0.2443 -0.3107  0.5994
 8059TIP3    H145592   3.210   4.179  16.768 -1.7075  0.7393  0.5924
 8059TIP3    H245593   3.113   4.113  16.673  1.0064 -2.6376  0.0743
 8060TIP3   OH245594   6.415   4.058  15.526  0.6122  0.1602  0.1176
 8060TIP3    H145595   6.424   4.019  15.438  0.5157  0.2497  0.0680
 8060TIP3    H245596   6.372   3.990  15.578 -0.7138  0.6760 -0.2888
 8061TIP3   OH245597   3.732   3.626   0.562  0.7166 -0.8047  0.0028
 8061TIP3    H145598   3.794   3.596   0.628  0.9888 -1.3363 -0.4969
 8061TIP3    H245599   3.786   3.659   0.490  0.4191 -0.8527 -0.2478
 8062TIP3   OH245600   4.376   5.539  12.120  0.4357 -0.0506  0.1339
 8062TIP3    H145601   4.362   5.481  12.195  0.5646 -0.6826 -0.3259
 8062TIP3    H245602   4.313   5.610  12.133 -0.9420 -1.1788 -0.1798
 8063TIP3   OH245603   1.854   4.172  12.049  0.1632  0.3547 -0.7622
 8063TIP3    H145604   1.840   4.087  12.008 -0.1798 -0.2890  0.6289
 8063TIP3    H245605   1.772   4.219  12.035 -0.0179  0.0709 -0.6619
 8064TIP3   OH245606   2.204   4.236  11.554  0.2290 -0.0827 -0.3362
 8064TIP3    H145607   2.195   4.239  11.649 -0.5451  0.2699 -0.4165
 8064TIP3    H245608   2.272   4.300  11.534  0.0300  0.2170 -0.0611
 8065TIP3   OH245609   6.782   1.560   4.387 -0.2875  0.2441 -0.3935
 8065TIP3    H145610   6.825   1.596   4.309  0.1679 -1.2339 -0.8360
 8065TIP3    H245611   6.854   1.542   4.448 -0.5412  0.3083 -0.0740
 8066TIP3   OH245612   1.682   6.224  12.632  0.1664 -0.4572  0.1636
 8066TIP3    H145613   1.666   6.277  12.553  0.5726  2.1595  1.7669
 8066TIP3    H245614   1.595   6.198  12.661  0.0266 -1.6691 -1.2824
 8067TIP3   OH245615   6.691   2.457  15.581 -0.3001  0.0514 -0.2834
 8067TIP3    H145616   6.778   2.439  15.618 -0.6635  1.7943  1.5025
 8067TIP3    H245617   6.709   2.495  15.495  0.7030  0.1709 -0.0280
 8068TIP3   OH245618   2.430   1.511  14.291 -0.5463  0.2604  0.7690
 8068TIP3    H145619   2.388   1.596  14.306 -1.1398  0.5191 -2.1609
 8068TIP3    H245620   2.371   1.465  14.232  1.6476 -0.6823 -0.7346
 8069TIP3   OH245621   2.089   2.831  13.141 -0.1135 -0.0881 -0.2793
 8069TIP3    H145622   2.020   2.883  13.099  1.5252  0.9416 -1.7692
 8069TIP3    H245623   2.129   2.781  13.070  0.1238 -1.3335  0.7110
 8070TIP3   OH245624   3.995   1.097  10.533 -0.0875  0.1965  0.5927
 8070TIP3    H145625   4.024   1.093  10.624 -1.2967  0.5889  1.0126
 8070TIP3    H245626   3.946   1.180  10.528 -1.8461 -0.8423  0.1419
 8071TIP3   OH245627   3.900   5.257  16.197  0.2221  0.0371 -0.0835
 8071TIP3    H145628   3.834   5.189  16.214  0.5287 -0.0717  0.6865
 8071TIP3    H245629   3.865   5.307  16.123  0.2270 -1.2677 -0.9789
 8072TIP3   OH245630   4.679   5.123   3.326 -0.1410  0.7536 -0.8792
 8072TIP3    H145631   4.647   5.116   3.236 -0.7959  0.2962 -0.6113
 8072TIP3    H245632   4.624   5.064   3.376  1.1408 -0.0784 -0.4102
 8073TIP3   OH245633   0.438   3.000  16.098 -0.3741 -0.6849  0.2043
 8073TIP3    H145634   0.518   3.051  16.083 -1.8704  1.9636  0.9074
 8073TIP3    H245635   0.368   3.054  16.062 -2.0230 -2.3107  0.8934
 8074TIP3   OH245636   0.466   0.413  11.862 -0.2225  0.1537 -0.3499
 8074TIP3    H145637   0.463   0.339  11.923  3.1913  0.2188 -0.0395
 8074TIP3    H245638   0.405   0.389  11.793 -0.5557 -2.1017  0.6779
 8075TIP3   OH245639   1.662   2.540   2.219 -0.2990 -0.1074  0.2397
 8075TIP3    H145640   1.748   2.575   2.195  0.4432  0.5866  3.6613
 8075TIP3    H245641   1.670   2.445   2.206 -0.0208  0.2164 -2.2456
 8076TIP3   OH245642   3.488   4.680  16.288 -0.1645 -0.1355 -0.4937
 8076TIP3    H145643   3.490   4.718  16.376  0.2947 -0.0973 -0.5205
 8076TIP3    H245644   3.488   4.586  16.302 -0.6692 -0.1303 -0.4440
 8077TIP3   OH245645   6.751   0.775   2.844  0.4169 -0.1999 -0.4888
 8077TIP3    H145646   6.664   0.813   2.845 -0.3488 -1.8282 -1.9062
 8077TIP3    H245647   6.790   0.806   2.762  1.3807  0.9341  0.3795
 8078TIP3   OH245648   1.773   2.649  17.123  0.0559 -0.1624 -0.2040
 8078TIP3    H145649   1.800   2.576  17.068 -0.5601 -0.0225 -0.7106
 8078TIP3    H245650   1.841   2.657  17.189 -0.3137 -1.7476  0.3878
 8079TIP3   OH245651   2.180   0.584  13.317  0.1936  0.1567  0.5568
 8079TIP3    H145652   2.249   0.619  13.374  0.4985  0.7484 -0.1558
 8079TIP3    H245653   2.110   0.649  13.322 -0.1214 -0.2138  0.9222
 8080TIP3   OH245654   1.914   0.242   4.534 -0.0089  0.1862 -0.1451
 8080TIP3    H145655   1.848   0.202   4.476  0.4296 -2.2214  0.9367
 8080TIP3    H245656   1.993   0.190   4.519  0.2501 -0.1644  2.2082
 8081TIP3   OH245657   4.037   6.181  11.670  0.4447  0.2531  0.5130
 8081TIP3    H145658   4.082   6.253  11.714  0.4054  1.1604 -0.8800
 8081TIP3    H245659   4.052   6.197  11.577  0.4120 -1.5383  0.1850
 8082TIP3   OH245660   2.136   3.575   0.314 -0.0534  0.2308  0.4253
 8082TIP3    H145661   2.159   3.484   0.329 -2.2107 -0.4513 -0.2307
 8082TIP3    H245662   2.107   3.608   0.399 -1.3863 -0.3594  0.2180
 8083TIP3   OH245663   2.974   2.546  16.209  0.2818  0.1021  0.9053
 8083TIP3    H145664   2.986   2.630  16.254  1.3380  0.2864  0.3010
 8083TIP3    H245665   3.008   2.481  16.270  1.1027  0.2882  0.6503
 8084TIP3   OH245666   3.066   0.417  11.606 -0.4827  0.6437 -0.4940
 8084TIP3    H145667   3.123   0.400  11.531 -1.6487  0.8778 -1.4409
 8084TIP3    H245668   3.031   0.505  11.591  0.6002  1.3967  1.1937
 8085TIP3   OH245669   0.923   2.031  11.752 -0.3822  0.8662 -0.2125
 8085TIP3    H145670   0.967   2.112  11.778  1.2167 -1.0500  3.2289
 8085TIP3    H245671   0.993   1.974  11.721 -0.9696 -0.6580  1.2120
 8086TIP3   OH245672   2.518   2.158  14.748 -0.5591  0.1967 -0.6163
 8086TIP3    H145673   2.593   2.169  14.807 -0.7436  0.2737 -0.3961
 8086TIP3    H245674   2.519   2.236  14.693 -0.7691  0.4321 -0.2863
 8087TIP3   OH245675   0.642   0.650  13.242  0.2984 -0.4488  0.0030
 8087TIP3    H145676   0.723   0.685  13.207 -1.1140  1.6252 -1.2851
 8087TIP3    H245677   0.585   0.639  13.166 -1.9812  1.7994  1.3122
 8088TIP3   OH245678   4.024   6.614   3.213 -0.3603  0.1589  0.0236
 8088TIP3    H145679   4.116   6.639   3.211 -0.1414 -0.6626 -0.0899
 8088TIP3    H245680   4.018   6.535   3.159 -1.0750  0.0281  0.2808
 8089TIP3   OH245681   2.734   2.682  12.948  0.2950  0.3134  0.3368
 8089TIP3    H145682   2.714   2.749  12.883 -0.4211 -0.2873 -0.0714
 8089TIP3    H245683   2.743   2.731  13.030  0.0913  0.9445 -0.0101
 8090TIP3   OH245684   1.539   3.390  17.041 -0.2849  0.0128 -0.1103
 8090TIP3    H145685   1.444   3.399  17.032 -0.6670 -1.0739  2.4162
 8090TIP3    H245686   1.556   3.299  17.016 -0.0775 -0.1085  0.4603
 8091TIP3   OH245687   5.444   3.959   4.745  0.1769  0.2720  0.2850
 8091TIP3    H145688   5.496   3.980   4.823 -1.6791  3.2855  0.7663
 8091TIP3    H245689   5.386   3.889   4.775 -0.9361  1.8013  1.8559
 8092TIP3   OH245690   1.450   1.950   0.013 -0.1367 -0.2968  0.4634
 8092TIP3    H145691   1.472   1.861  -0.014 -0.1174  0.1672 -1.1030
 8092TIP3    H245692   1.500   1.965   0.093  0.2480 -1.5149  0.4516
 8093TIP3   OH245693   1.539   4.556  12.754 -0.0882 -0.3992 -0.1986
 8093TIP3    H145694   1.506   4.644  12.771 -0.7140 -0.3825 -1.4177
 8093TIP3    H245695   1.619   4.550  12.806 -1.1845  0.1100  1.5903
 8094TIP3   OH245696   6.162   6.048   0.126 -0.2642  0.5655  0.7531
 8094TIP3    H145697   6.221   6.008   0.061 -0.7195 -0.2607  0.8483
 8094TIP3    H245698   6.191   6.012   0.210 -1.3802 -0.3978  0.7189
 8095TIP3   OH245699   5.780   6.208  11.934  0.1052 -0.3388 -0.4924
 8095TIP3    H145700   5.765   6.301  11.917  0.8046 -0.0111  0.6467
 8095TIP3    H245701   5.752   6.164  11.853 -2.0932  0.6730 -0.3078
 8096TIP3   OH245702   2.297   2.228   0.587 -0.2609  0.0384  0.3026
 8096TIP3    H145703   2.357   2.294   0.620 -1.4228  0.0159  2.5751
 8096TIP3    H245704   2.286   2.249   0.494  2.2919  0.7397  0.1339
 8097TIP3   OH245705   0.180   0.428  11.031 -0.0237 -0.0444  0.2876
 8097TIP3    H145706   0.249   0.491  11.011 -0.2710 -0.1465 -0.9268
 8097TIP3    H245707   0.100   0.481  11.033 -0.0445 -0.0921  0.6581
 8098TIP3   OH245708   6.122   2.533  15.610 -0.2274  0.2228 -0.3981
 8098TIP3    H145709   6.205   2.511  15.653 -2.3382 -2.1828  2.5800
 8098TIP3    H245710   6.137   2.622  15.576  2.4179  1.2632  3.1163
 8099TIP3   OH245711   6.279   4.439   5.981  0.1045 -0.0459  0.5914
 8099TIP3    H145712   6.301   4.459   5.891  1.7109 -2.6512  0.3688
 8099TIP3    H245713   6.317   4.511   6.032  0.5175  0.6312 -0.6631
 8100TIP3   OH245714   6.574   3.646  11.521  0.6074 -0.2603 -0.1103
 8100TIP3    H145715   6.653   3.663  11.470  1.2146  3.3710  1.8915
 8100TIP3    H245716   6.603   3.646  11.612 -1.6261  1.0823  0.6596
 8101TIP3   OH245717   3.863   6.049   3.298 -0.2129  0.3008  0.4096
 8101TIP3    H145718   3.798   5.979   3.284  2.1246 -1.6541 -1.0605
 8101TIP3    H245719   3.849   6.109   3.225 -0.7151  0.1823  0.4024
 8102TIP3   OH245720   4.830   4.701  13.882  0.5389  0.5707  0.6323
 8102TIP3    H145721   4.854   4.788  13.913 -0.5805  1.7089 -1.5562
 8102TIP3    H245722   4.894   4.681  13.813 -1.0254  1.0008 -0.9830
 8103TIP3   OH245723   6.059   3.019  16.767 -0.0380 -0.2991  0.5126
 8103TIP3    H145724   6.098   2.933  16.755 -2.6687 -1.3923 -0.6272
 8103TIP3    H245725   6.034   3.047  16.679  1.3961  1.9523  0.7805
 8104TIP3   OH245726   1.620   5.579   4.435 -0.1365  0.5788 -0.4103
 8104TIP3    H145727   1.527   5.593   4.451  0.2664  2.2164  0.5968
 8104TIP3    H245728   1.636   5.619   4.349 -0.4024  0.0201 -0.7290
 8105TIP3   OH245729   1.807   3.780   2.149  0.6081 -0.2115 -0.0101
 8105TIP3    H145730   1.899   3.799   2.134  0.6050 -0.0736  0.1329
 8105TIP3    H245731   1.807   3.700   2.201  0.7078  0.6007  1.2791
 8106TIP3   OH245732   1.580   5.341  15.781  0.1028 -0.2684  0.0459
 8106TIP3    H145733   1.664   5.295  15.789 -0.0967 -0.9517 -1.6169
 8106TIP3    H245734   1.524   5.302  15.848  0.3521 -1.5472 -0.4838
 8107TIP3   OH245735   2.742   4.656  16.823  0.0992 -0.5387 -0.5154
 8107TIP3    H145736   2.684   4.596  16.868  0.3499 -1.1466 -0.9954
 8107TIP3    H245737   2.806   4.600  16.778 -0.0057  0.0518 -1.4371
 8108TIP3   OH245738   0.379   4.596  10.461  0.7253 -0.7605  0.2467
 8108TIP3    H145739   0.451   4.549  10.505 -0.4195 -2.3372  0.4683
 8108TIP3    H245740   0.356   4.540  10.387 -1.0706 -0.8470  0.8650
 8109TIP3   OH245741   5.517   1.887  15.604 -0.3218  0.1413  0.3534
 8109TIP3    H145742   5.453   1.895  15.534 -0.1852  0.0822  0.2228
 8109TIP3    H245743   5.492   1.806  15.649 -0.6118  0.3528  0.5800
 8110TIP3   OH245744   4.488   6.270   0.358 -0.4412  0.1856  0.0604
 8110TIP3    H145745   4.467   6.292   0.449  1.9426  0.3766  0.5951
 8110TIP3    H245746   4.537   6.188   0.364  0.9636  0.9394 -0.9054
 8111TIP3   OH245747   0.488   0.645   0.777  0.2494  0.0872  0.3560
 8111TIP3    H145748   0.454   0.568   0.731 -0.5473  0.0869  0.9297
 8111TIP3    H245749   0.415   0.707   0.777  1.0007  0.9845 -0.4137
 8112TIP3   OH245750   6.237   6.326  14.084 -0.2478  0.5910 -0.3602
 8112TIP3    H145751   6.170   6.259  14.076 -0.1692  0.4060  0.5845
 8112TIP3    H245752   6.319   6.278  14.091 -0.2521  0.7757  0.9495
 8113TIP3   OH245753   1.169   4.524  12.094 -0.0995 -0.3381 -0.1124
 8113TIP3    H145754   1.178   4.619  12.087 -1.3600 -0.2032  0.1103
 8113TIP3    H245755   1.122   4.511  12.176 -2.0733 -1.0368 -1.3199
 8114TIP3   OH245756   1.385   2.902  13.057  0.3890  0.0533  0.1544
 8114TIP3    H145757   1.471   2.932  13.089 -0.2403  0.6013  1.3734
 8114TIP3    H245758   1.393   2.904  12.962  1.7354  0.1054  0.2603
 8115TIP3   OH245759   0.640   1.476  15.235  0.7576  0.2323  0.4787
 8115TIP3    H145760   0.687   1.393  15.249 -0.4599 -1.0266 -2.5291
 8115TIP3    H245761   0.708   1.537  15.206  1.1377 -0.5666 -0.3137
 8116TIP3   OH245762   0.411   4.342  12.881  0.6030 -0.2029  0.2783
 8116TIP3    H145763   0.355   4.294  12.942  0.6316 -0.5195  0.0566
 8116TIP3    H245764   0.416   4.286  12.804 -1.4413  1.3091 -1.0071
 8117TIP3   OH245765   6.264   6.576   0.061  0.4104 -0.2616 -0.4417
 8117TIP3    H145766   6.354   6.556   0.036  0.7196  0.3291  0.2063
 8117TIP3    H245767   6.235   6.641  -0.003  1.4193  1.7460  1.0881
 8118TIP3   OH245768   6.115   6.317   5.570 -0.3063  0.4820  0.2942
 8118TIP3    H145769   6.190   6.340   5.516  1.1831  1.3761  2.6394
 8118TIP3    H245770   6.046   6.377   5.542  0.0117  0.0393 -1.4925
 8119TIP3   OH245771   2.677   1.170   2.248  0.0744  0.4900  0.2366
 8119TIP3    H145772   2.704   1.259   2.224 -0.1522  0.8383  1.2365
 8119TIP3    H245773   2.726   1.150   2.327 -0.8695  0.2489  0.7759
 8120TIP3   OH245774   3.954   2.295  14.202 -0.4450  0.1090 -0.0608
 8120TIP3    H145775   3.972   2.301  14.296 -1.0732  1.8036 -0.0295
 8120TIP3    H245776   4.040   2.302  14.161 -0.2096 -0.2167  0.3722
 8121TIP3   OH245777   0.539   0.548   4.560 -0.5960  0.1148  0.0966
 8121TIP3    H145778   0.453   0.567   4.599  0.1580  0.1335  1.8101
 8121TIP3    H245779   0.582   0.634   4.558  0.5743 -0.4034  2.2465
 8122TIP3   OH245780   6.343   4.347  16.808 -0.3806  0.2554 -0.7928
 8122TIP3    H145781   6.265   4.319  16.856  0.7443 -1.0106  0.3474
 8122TIP3    H245782   6.324   4.327  16.717 -1.5849  0.4220 -0.5806
 8123TIP3   OH245783   4.012   4.333   6.015 -0.3333 -0.3531 -0.0499
 8123TIP3    H145784   3.983   4.256   5.965 -1.7232  0.7994 -1.0550
 8123TIP3    H245785   3.931   4.377   6.040  0.4563  0.8436  0.4247
 8124TIP3   OH245786   4.525   6.442  16.453  0.2730  0.7085  0.0519
 8124TIP3    H145787   4.521   6.405  16.541  1.5562  0.7355  0.1280
 8124TIP3    H245788   4.467   6.387  16.401 -0.6424  0.8095  0.9538
 8125TIP3   OH245789   5.233   2.573  15.714 -0.6789 -0.1443  0.2677
 8125TIP3    H145790   5.206   2.609  15.630 -0.8757  0.1941  0.4712
 8125TIP3    H245791   5.317   2.615  15.732  1.2038 -3.0042 -1.5044
 8126TIP3   OH245792   4.357   1.152  13.668  0.2909  0.4684  0.4196
 8126TIP3    H145793   4.361   1.073  13.721  1.7523  1.2438  1.4959
 8126TIP3    H245794   4.430   1.206  13.699  0.2335  1.5917 -1.3335
 8127TIP3   OH245795   6.549   6.431  12.647  0.2227  0.4521  0.5362
 8127TIP3    H145796   6.605   6.354  12.654 -0.5930 -0.1362  0.6500
 8127TIP3    H245797   6.539   6.445  12.553  0.2595  0.3372  0.5159
 8128TIP3   OH245798   0.138   6.157  14.325  0.6042  0.4192 -0.1818
 8128TIP3    H145799   0.062   6.164  14.383  0.6917  2.4244 -0.2692
 8128TIP3    H245800   0.210   6.131  14.382 -0.1681 -1.5972 -0.1156
 8129TIP3   OH245801   2.232   1.598   0.001 -0.1658  0.0060  0.1449
 8129TIP3    H145802   2.160   1.644  -0.042  0.1961  0.7698  0.3438
 8129TIP3    H245803   2.229   1.631   0.091 -0.6204 -1.2206  0.5848
 8130TIP3   OH245804   4.150   5.484   2.802  0.5044  0.5087 -0.2921
 8130TIP3    H145805   4.100   5.406   2.779 -3.7436  3.0221 -0.1421
 8130TIP3    H245806   4.240   5.463   2.778 -0.3350 -4.7126  0.5742
 8131TIP3   OH245807   0.127   1.527   6.372  0.0518  0.4050  0.6405
 8131TIP3    H145808   0.205   1.476   6.350 -0.4385 -1.1967  2.4775
 8131TIP3    H245809   0.161   1.604   6.418  0.7857  1.7282 -2.0151
 8132TIP3   OH245810   3.448   0.919  14.501 -0.5238 -0.8164  0.4975
 8132TIP3    H145811   3.451   1.000  14.551 -2.0572 -0.8098  0.6157
 8132TIP3    H245812   3.356   0.892  14.505 -0.5093 -1.2551 -1.6249
 8133TIP3   OH245813   1.279   1.495  15.984  0.2405 -0.6858 -0.5098
 8133TIP3    H145814   1.269   1.414  15.934  1.8273  0.1683 -2.2612
 8133TIP3    H245815   1.373   1.504  15.997 -0.0487 -0.1600  1.4775
 8134TIP3   OH245816   4.712   0.534  13.435  0.6135 -0.3247  0.4408
 8134TIP3    H145817   4.769   0.465  13.467  0.0147 -0.6524  0.8255
 8134TIP3    H245818   4.669   0.568  13.514  0.3436 -0.0266  0.1711
 8135TIP3   OH245819   3.110   0.784   2.344  0.3840  0.2147 -0.1279
 8135TIP3    H145820   3.166   0.825   2.278  0.5410 -0.4483 -0.4113
 8135TIP3    H245821   3.171   0.758   2.414  0.6096 -1.6729 -1.0190
 8136TIP3   OH245822   3.499   2.785  11.106 -0.2695 -0.2231  0.1383
 8136TIP3    H145823   3.494   2.756  11.015 -1.2318  1.2198 -0.2886
 8136TIP3    H245824   3.408   2.785  11.135  0.0409 -0.6967  1.1132
 8137TIP3   OH245825   5.703   6.059  15.107 -0.2947 -0.6427  0.1584
 8137TIP3    H145826   5.680   6.100  15.023 -1.4477 -1.0243  0.2866
 8137TIP3    H245827   5.789   6.021  15.091 -1.0539 -1.8522 -1.2798
 8138TIP3   OH245828   4.552   6.044  16.863 -0.3638 -0.1044  0.3640
 8138TIP3    H145829   4.526   6.136  16.869 -0.8512 -0.2544  0.5947
 8138TIP3    H245830   4.519   6.016  16.778 -1.1176 -0.3402  0.7278
 8139TIP3   OH245831   0.940   1.093   3.051 -0.1602 -0.1223  0.3099
 8139TIP3    H145832   0.945   1.152   2.976 -2.4525 -2.2141 -1.5856
 8139TIP3    H245833   1.013   1.033   3.039  1.6116  1.6705  1.7380
 8140TIP3   OH245834   4.788   1.263   1.694  0.3829 -0.4061 -0.2004
 8140TIP3    H145835   4.795   1.351   1.730 -1.1544 -0.7646  1.0430
 8140TIP3    H245836   4.871   1.221   1.717  0.1247 -0.0711  1.4367
 8141TIP3   OH245837   2.417   2.244   1.417  0.3948 -0.7170 -0.1245
 8141TIP3    H145838   2.510   2.228   1.402  0.1878 -1.8840 -0.2159
 8141TIP3    H245839   2.378   2.250   1.330  0.8461  2.7571 -0.1466
 8142TIP3   OH245840   2.702   5.801   0.775  0.1963  0.7296  0.5019
 8142TIP3    H145841   2.773   5.827   0.716  2.6206 -2.8481  1.6673
 8142TIP3    H245842   2.641   5.753   0.719  0.3133  1.0477  0.0993
 8143TIP3   OH245843   3.266   4.590  15.613  0.2303  0.1479  0.4288
 8143TIP3    H145844   3.222   4.546  15.541  0.3635 -0.4256  0.6978
 8143TIP3    H245845   3.351   4.617  15.576 -0.9411  2.6505 -0.5576
 8144TIP3   OH245846   0.438   1.573   0.007 -0.2210 -0.4274 -0.4670
 8144TIP3    H145847   0.396   1.582  -0.078 -1.0291  1.6092  0.1231
 8144TIP3    H245848   0.374   1.527   0.061 -1.0811  1.2550 -0.0242
 8145TIP3   OH245849   5.967   2.666   3.294  0.5597 -0.3460  0.3756
 8145TIP3    H145850   6.024   2.687   3.221 -2.8495  3.0718 -1.5328
 8145TIP3    H245851   5.971   2.744   3.351 -2.3774  0.1656 -0.0235
 8146TIP3   OH245852   3.291   3.149  16.055 -0.3813  0.6924 -0.2632
 8146TIP3    H145853   3.225   3.104  16.001  1.6026 -0.2679 -1.9365
 8146TIP3    H245854   3.337   3.206  15.993  1.1270  0.4727  0.6381
 8147TIP3   OH245855   1.839   0.063   1.807 -0.2320 -0.1165  0.4666
 8147TIP3    H145856   1.889   0.011   1.744 -1.2348 -1.4197  0.7093
 8147TIP3    H245857   1.784  -0.001   1.852 -0.7613  1.0328  1.4866
 8148TIP3   OH245858   4.372   4.032   1.762 -0.0039  0.1038  0.5936
 8148TIP3    H145859   4.312   4.106   1.755 -1.2242 -0.9430 -0.1264
 8148TIP3    H245860   4.321   3.964   1.806  1.2190 -0.1942  1.5672
 8149TIP3   OH245861   5.787   6.256  12.442  0.3320  0.1368  0.1821
 8149TIP3    H145862   5.723   6.227  12.378  0.2747  0.0242  0.2890
 8149TIP3    H245863   5.872   6.231  12.405  0.4859  2.4075 -1.0812
 8150TIP3   OH245864   2.422   4.523  12.284  0.8520 -0.0356 -0.5067
 8150TIP3    H145865   2.481   4.503  12.211  0.0827  1.0993 -1.4558
 8150TIP3    H245866   2.347   4.465  12.271  1.8359 -1.7087  0.8785
 8151TIP3   OH245867   5.601   5.129   3.682  0.1027 -0.6418 -0.1731
 8151TIP3    H145868   5.588   5.164   3.594  3.0699 -0.9281 -0.7769
 8151TIP3    H245869   5.686   5.085   3.679 -0.4601 -2.0667  2.4132
 8152TIP3   OH245870   1.175   2.526   4.428 -0.2684  0.4969  0.7825
 8152TIP3    H145871   1.170   2.539   4.334 -0.2981 -0.8574  0.5951
 8152TIP3    H245872   1.083   2.518   4.456 -0.1771 -1.1557  0.6307
 8153TIP3   OH245873   1.824   5.445  14.585  0.1446  0.3011 -0.4119
 8153TIP3    H145874   1.869   5.368  14.618 -0.7854 -0.2529 -0.4265
 8153TIP3    H245875   1.732   5.433  14.610 -0.2151  0.8376 -1.4223
 8154TIP3   OH245876   1.999   1.047   2.904 -0.2465 -0.5184  0.7592
 8154TIP3    H145877   1.999   1.054   2.808 -0.7173  0.9015  0.8440
 8154TIP3    H245878   2.061   0.977   2.923  0.0637 -0.6265 -0.5756
 8155TIP3   OH245879   0.967   6.278  15.637 -0.1474 -0.1562  0.0531
 8155TIP3    H145880   0.977   6.256  15.729  2.5611  4.0852  0.9469
 8155TIP3    H245881   1.049   6.249  15.597  0.2401  1.3023 -0.2401
 8156TIP3   OH245882   2.456   1.059   5.938 -0.6649  0.1192 -0.3242
 8156TIP3    H145883   2.474   0.965   5.926 -1.0146  0.1398 -1.0182
 8156TIP3    H245884   2.517   1.086   6.007  2.0135  0.1903 -2.5856
 8157TIP3   OH245885   5.460   6.158   4.047  0.3142 -0.5843 -0.1845
 8157TIP3    H145886   5.513   6.103   3.990  0.3057  0.4334 -1.1890
 8157TIP3    H245887   5.519   6.185   4.117  1.4744  1.4069 -1.8623
 8158TIP3   OH245888   3.194   4.557   1.449  0.1066 -0.1973  0.5027
 8158TIP3    H145889   3.195   4.571   1.544  0.1808 -0.0821  0.4852
 8158TIP3    H245890   3.106   4.583   1.422  0.9085  2.2772  0.1711
 8159TIP3   OH245891   6.104   5.532  17.069  0.3617 -0.5085  0.4934
 8159TIP3    H145892   6.110   5.485  16.986  0.5449  0.9621 -0.3395
 8159TIP3    H245893   6.115   5.464  17.136 -0.6483 -1.8422 -0.6567
 8160TIP3   OH245894   3.215   0.643  16.283 -0.4344 -0.0416 -0.2564
 8160TIP3    H145895   3.230   0.693  16.363 -2.1483 -0.4310  0.3178
 8160TIP3    H245896   3.121   0.650  16.267 -0.5842 -2.3524 -0.6324
 8161TIP3   OH245897   0.594   0.613  12.794  0.0030  0.1744 -0.0939
 8161TIP3    H145898   0.603   0.685  12.732 -0.4394  0.4863  0.2018
 8161TIP3    H245899   0.669   0.557  12.776  1.4463  1.7203  1.0224
 8162TIP3   OH245900   5.923   2.118  12.479  0.1381 -0.2424  0.1944
 8162TIP3    H145901   6.015   2.141  12.463 -0.3557  1.7371  0.0009
 8162TIP3    H245902   5.925   2.065  12.559  1.5325 -0.9682 -0.3068
 8163TIP3   OH245903   1.873   5.331   2.598 -0.4252 -0.0382 -0.6725
 8163TIP3    H145904   1.935   5.259   2.589  0.1709  0.2452  1.0641
 8163TIP3    H245905   1.802   5.309   2.539  1.8514  0.2134 -3.6553
 8164TIP3   OH245906   5.591   2.319   4.424  0.0517 -0.0624 -0.0306
 8164TIP3    H145907   5.679   2.340   4.455 -0.5685  0.1635  1.6315
 8164TIP3    H245908   5.533   2.364   4.485 -1.2208 -0.5236 -0.8841
 8165TIP3   OH245909   0.874   4.125  11.149  0.4052  0.1150  0.2063
 8165TIP3    H145910   0.844   4.049  11.100 -0.7375  0.7316 -0.0570
 8165TIP3    H245911   0.807   4.139  11.216 -0.4519  2.1024 -1.0227
 8166TIP3   OH245912   1.072   3.682   3.674 -0.5272  0.0444  0.4433
 8166TIP3    H145913   1.059   3.590   3.698 -2.3491  0.0403 -0.4530
 8166TIP3    H245914   1.020   3.731   3.737 -2.9388  0.1914 -1.5742
 8167TIP3   OH245915   4.719   1.164   5.944 -0.2499 -0.4082 -0.4893
 8167TIP3    H145916   4.650   1.223   5.975 -0.1247 -1.2169  1.3937
 8167TIP3    H245917   4.684   1.076   5.959  0.7861 -0.8178 -0.4670
 8168TIP3   OH245918   0.810   4.599   0.994  0.0501 -0.3284  0.4355
 8168TIP3    H145919   0.816   4.523   0.936 -1.0978  0.0404 -0.1795
 8168TIP3    H245920   0.895   4.643   0.982  0.3680 -1.0110  0.1011
 8169TIP3   OH245921   2.009   5.908   4.845  0.3992 -0.0797  0.2228
 8169TIP3    H145922   1.969   5.894   4.931 -1.2388 -1.4359 -0.7185
 8169TIP3    H245923   2.059   5.828   4.829  1.3617  0.5143  0.2657
 8170TIP3   OH245924   4.994   4.106  16.546 -0.2660 -0.0135  0.3527
 8170TIP3    H145925   4.960   4.120  16.635 -4.7157  0.1925 -1.2647
 8170TIP3    H245926   4.986   4.012  16.532 -0.3022  0.0609 -0.1212
 8171TIP3   OH245927   3.005   6.764  15.475 -0.3946 -0.1713 -0.1450
 8171TIP3    H145928   3.026   6.822  15.401  0.6601  0.0610  0.3153
 8171TIP3    H245929   3.016   6.820  15.552 -3.0177  0.0152  0.1280
 8172TIP3   OH245930   1.998   0.266  12.681  0.3813 -0.5212 -0.1992
 8172TIP3    H145931   2.046   0.263  12.764 -1.0735  1.2425  0.7585
 8172TIP3    H245932   2.023   0.186  12.636 -0.5734 -2.6995  2.9522
 8173TIP3   OH245933   5.539   4.424  16.126 -0.0964  1.2331 -0.1251
 8173TIP3    H145934   5.557   4.438  16.219 -1.6224  0.8542  0.2363
 8173TIP3    H245935   5.609   4.365  16.096 -0.6478 -0.1365  1.2196
 8174TIP3   OH245936   1.325   4.236   3.220 -0.0580 -0.4653 -0.4224
 8174TIP3    H145937   1.306   4.148   3.254  1.4892 -0.4945  0.3984
 8174TIP3    H245938   1.393   4.270   3.277 -1.5031  1.7848  0.0402
 8175TIP3   OH245939   2.189   0.134   1.540 -0.0297  0.3928  0.7016
 8175TIP3    H145940   2.143   0.051   1.538  0.6027  0.0005  1.9607
 8175TIP3    H245941   2.271   0.117   1.493 -0.0540  0.4064  0.6543
 8176TIP3   OH245942   4.983   1.267   3.823 -0.7131 -0.1513 -0.1010
 8176TIP3    H145943   4.925   1.260   3.899 -0.3101  0.0650  0.2303
 8176TIP3    H245944   4.926   1.293   3.751 -0.3195  4.5922  1.1676
 8177TIP3   OH245945   4.400   1.988   3.294 -0.1198  0.1619 -0.0169
 8177TIP3    H145946   4.482   1.948   3.322 -0.0647  0.7453  0.6608
 8177TIP3    H245947   4.334   1.921   3.308 -0.0688  0.3922  1.3687
 8178TIP3   OH245948   1.979   3.331  12.722  0.2891 -0.0127  0.1280
 8178TIP3    H145949   1.905   3.311  12.780  0.2645  0.0925  0.1328
 8178TIP3    H245950   1.939   3.345  12.636 -0.1412  3.7288  0.8599
 8179TIP3   OH245951   6.746   0.342  15.676  0.5210  0.3356 -0.5198
 8179TIP3    H145952   6.685   0.309  15.609  0.4091  1.3865 -0.9459
 8179TIP3    H245953   6.753   0.436  15.658  2.2232  0.2480 -0.4419
 8180TIP3   OH245954   4.584   1.092   4.254 -0.0505  0.2342  0.4629
 8180TIP3    H145955   4.507   1.042   4.280 -0.1972  0.1310 -0.1467
 8180TIP3    H245956   4.657   1.032   4.267 -0.3341 -0.5052 -1.2303
 8181TIP3   OH245957   1.182   2.441  13.288  0.4757  0.3156 -0.2597
 8181TIP3    H145958   1.193   2.348  13.308 -0.3623  0.7053  2.1278
 8181TIP3    H245959   1.247   2.458  13.220 -0.2984 -2.3252 -1.7555
 8182TIP3   OH245960   5.829   2.435   1.247 -0.0526 -0.2468 -0.2877
 8182TIP3    H145961   5.840   2.506   1.310  3.4230  0.4808 -1.6165
 8182TIP3    H245962   5.897   2.450   1.181 -1.5076 -2.8188 -2.4991
 8183TIP3   OH245963   4.092   3.892   0.231  0.1764  0.4443 -0.4759
 8183TIP3    H145964   4.134   3.924   0.151  0.6971  0.4173 -0.2162
 8183TIP3    H245965   4.151   3.920   0.302 -1.5012  2.6158  0.1181
 8184TIP3   OH245966   2.367   2.232   2.412  0.1004 -0.1473  0.1953
 8184TIP3    H145967   2.356   2.137   2.410  2.1375 -0.4264  1.4574
 8184TIP3    H245968   2.432   2.251   2.344  0.3967  0.2514  0.5874
 8185TIP3   OH245969   4.880   0.200  12.034 -0.0638 -0.2102 -0.6073
 8185TIP3    H145970   4.885   0.127  12.095 -0.2419 -2.4012 -3.0977
 8185TIP3    H245971   4.813   0.173  11.971  1.0414  1.3711 -2.5069
 8186TIP3   OH245972   0.582   1.075  13.371 -0.6343  0.0185 -0.8804
 8186TIP3    H145973   0.570   1.003  13.309  1.2674 -1.2428  0.1550
 8186TIP3    H245974   0.509   1.067  13.431 -1.1467 -0.2557 -1.5340
 8187TIP3   OH245975   0.297   0.248   3.471  0.5397  0.1360  0.2640
 8187TIP3    H145976   0.315   0.342   3.480  0.0630  0.1203  1.5778
 8187TIP3    H245977   0.264   0.238   3.382  0.4516  1.2405  0.1668
 8188TIP3   OH245978   6.458   4.380   3.530 -0.0562 -0.5837 -0.3011
 8188TIP3    H145979   6.496   4.302   3.490  0.1122 -0.7936  0.2610
 8188TIP3    H245980   6.514   4.452   3.502  0.8120 -0.9037  0.6001
 8189TIP3   OH245981   3.134   5.513  10.990  0.4393  0.1219  0.3241
 8189TIP3    H145982   3.197   5.502  11.061 -0.2434  0.7521  1.0454
 8189TIP3    H245983   3.138   5.607  10.969 -2.5837  0.8556  2.6262
 8190TIP3   OH245984   6.685   3.208  14.330 -0.2084 -0.4076  0.3510
 8190TIP3    H145985   6.778   3.219  14.308 -0.4419  2.6014  0.6384
 8190TIP3    H245986   6.647   3.168  14.252  1.2205 -1.0967 -0.0056
 8191TIP3   OH245987   4.984   4.726  12.854  0.4446  0.2542  0.2008
 8191TIP3    H145988   5.020   4.690  12.936  0.6971 -0.2646 -0.1372
 8191TIP3    H245989   5.009   4.663  12.787  2.4455  1.9310 -0.6943
 8192TIP3   OH245990   2.861   4.150  12.138  0.0324 -0.6913 -0.1476
 8192TIP3    H145991   2.837   4.233  12.097 -0.6219 -0.3496  0.9238
 8192TIP3    H245992   2.917   4.107  12.073  1.5547  1.2107 -0.1364
 8193TIP3   OH245993   1.804   1.150   1.761  0.1270 -0.1097 -0.6676
 8193TIP3    H145994   1.843   1.175   1.677  0.4773 -1.6014 -0.9730
 8193TIP3    H245995   1.710   1.155   1.746  0.1588  2.8317 -0.1372
 8194TIP3   OH245996   3.622   6.533   6.666  0.4610 -0.4968 -0.4103
 8194TIP3    H145997   3.640   6.626   6.657  0.9777 -0.5792 -0.2718
 8194TIP3    H245998   3.701   6.497   6.707 -0.3535 -0.7334  0.9878
 8195TIP3   OH245999   0.841   2.563   4.071 -0.5429 -0.4103 -0.1643
 8195TIP3    H146000   0.819   2.585   3.981  0.3446  0.7564 -0.1048
 8195TIP3    H246001   0.756   2.562   4.117 -1.0260 -1.3196 -1.0619
 8196TIP3   OH246002   5.644   1.024   5.781 -0.1083  0.3302 -0.0408
 8196TIP3    H146003   5.735   1.049   5.764  0.4406 -2.0302 -0.7042
 8196TIP3    H246004   5.601   1.030   5.696 -0.4133  0.7127  0.1350
 8197TIP3   OH246005   2.049   1.827  12.887  0.0615  0.5902 -0.5859
 8197TIP3    H146006   2.088   1.860  12.806  1.1380 -0.7435 -0.6315
 8197TIP3    H246007   1.972   1.778  12.859  1.4282 -1.3867 -0.9888
 8198TIP3   OH246008   0.999   5.769   1.893 -0.1750  0.3755 -0.1690
 8198TIP3    H146009   0.926   5.831   1.897  0.1833  0.6792  1.7416
 8198TIP3    H246010   0.997   5.737   1.803 -2.5575  0.5019 -0.1841
 8199TIP3   OH246011   4.298   1.319   4.148 -0.2688  0.6635  0.0635
 8199TIP3    H146012   4.261   1.379   4.213 -2.3012 -0.2770 -0.2018
 8199TIP3    H246013   4.302   1.370   4.067  1.3093  1.5174  0.6558
 8200TIP3   OH246014   0.258   2.688  16.337  0.4971 -0.2288  0.1311
 8200TIP3    H146015   0.190   2.720  16.395  1.4007 -2.2615  2.3973
 8200TIP3    H246016   0.326   2.755  16.341 -0.2728  0.5759 -0.1358
 8201TIP3   OH246017   2.897   0.657   1.934 -0.3372  0.0821  0.1197
 8201TIP3    H146018   2.938   0.624   2.014  0.4953  1.4211  0.2520
 8201TIP3    H246019   2.804   0.638   1.946  0.0462 -1.6941  0.4445
 8202TIP3   OH246020   0.819   6.147  15.991  0.0520  0.6324  0.1596
 8202TIP3    H146021   0.758   6.212  16.028 -0.2939  1.1051 -1.2284
 8202TIP3    H246022   0.898   6.198  15.972 -0.1673  0.6194 -0.7901
 8203TIP3   OH246023   5.494   3.054   3.094  0.1899 -0.4794 -0.1261
 8203TIP3    H146024   5.466   3.146   3.104 -1.6391 -0.7242 -2.6073
 8203TIP3    H246025   5.444   3.007   3.161  1.0762  0.2879  1.1067
 8204TIP3   OH246026   3.307   2.675  11.289  0.2423 -0.2171  0.1391
 8204TIP3    H146027   3.218   2.640  11.294  0.1716  0.1514  1.6224
 8204TIP3    H246028   3.362   2.605  11.324  0.6605 -0.8598 -1.7626
 8205TIP3   OH246029   4.330   3.866   0.918  0.4816  0.0469 -0.8783
 8205TIP3    H146030   4.312   3.860   0.824 -1.3281 -0.1618 -0.5301
 8205TIP3    H246031   4.280   3.795   0.957 -1.0246  1.8590  0.5396
 8206TIP3   OH246032   5.312   4.272   2.758 -0.0007 -0.1496  0.3570
 8206TIP3    H146033   5.228   4.248   2.717 -0.0356  0.4206  0.0990
 8206TIP3    H246034   5.368   4.297   2.685 -0.1120  1.0215  0.6729
 8207TIP3   OH246035   5.905   1.101   5.743 -0.5616 -0.3781  0.8186
 8207TIP3    H146036   5.964   1.137   5.809 -0.9863 -1.3133  1.7195
 8207TIP3    H246037   5.962   1.051   5.685 -0.3452 -0.5238  1.1545
 8208TIP3   OH246038   1.173   0.678  16.717 -0.4564 -0.2371 -0.3794
 8208TIP3    H146039   1.252   0.629  16.740 -0.9429 -0.3190  1.2386
 8208TIP3    H246040   1.139   0.634  16.639  1.7344  0.5464 -1.7980
 8209TIP3   OH246041   3.243   2.461  14.143  0.2627  0.3292 -0.5924
 8209TIP3    H146042   3.303   2.445  14.216 -1.1375 -1.4664  0.1994
 8209TIP3    H246043   3.243   2.557  14.133 -0.0375  0.6587  2.2231
 8210TIP3   OH246044   5.016   0.298  15.357 -0.5443 -0.3874 -0.4128
 8210TIP3    H146045   4.927   0.330  15.374  0.1956  2.0310 -0.8699
 8210TIP3    H246046   5.058   0.296  15.444 -0.9457 -1.2609 -0.2343
 8211TIP3   OH246047   5.567   0.813  14.867  0.4340 -0.2292 -0.3030
 8211TIP3    H146048   5.488   0.772  14.833  0.2786 -0.3501  0.1965
 8211TIP3    H246049   5.629   0.741  14.876 -0.1127 -0.5160  1.3743
 8212TIP3   OH246050   5.749   3.278   4.156  0.1394  0.2196 -0.3107
 8212TIP3    H146051   5.788   3.295   4.241  0.4658 -2.7280  0.1725
 8212TIP3    H246052   5.764   3.359   4.106  0.8006  1.6097  2.0769
 8213TIP3   OH246053   1.872   4.482   3.938 -0.3916  0.3848 -0.4694
 8213TIP3    H146054   1.922   4.563   3.934 -0.9139  0.7669  0.3472
 8213TIP3    H246055   1.935   4.415   3.963  0.1412  0.4430 -1.6453
 8214TIP3   OH246056   3.528   2.709  13.003  0.2687  1.0887  0.2250
 8214TIP3    H146057   3.613   2.703  12.960  0.0560  0.4828 -0.1185
 8214TIP3    H246058   3.548   2.702  13.096  0.4670 -0.6842  0.0797
 8215TIP3   OH246059   2.779   5.354   2.926  0.2920  0.2772  0.0520
 8215TIP3    H146060   2.805   5.432   2.877  1.8467 -1.0752 -1.3429
 8215TIP3    H246061   2.839   5.352   3.001  1.5981 -0.6728 -1.0103
 8216TIP3   OH246062   4.151   0.761  14.661 -0.5714 -0.4977 -0.0042
 8216TIP3    H146063   4.084   0.801  14.606 -0.4296  0.6112  0.5961
 8216TIP3    H246064   4.172   0.678  14.618 -2.7475 -1.1430  0.1231
 8217TIP3   OH246065   0.901   2.269   6.517 -0.2697  0.4130 -0.0102
 8217TIP3    H146066   0.953   2.189   6.506  0.0281  0.6447 -0.3236
 8217TIP3    H246067   0.824   2.242   6.567 -0.3733 -0.1570 -0.4731
 8218TIP3   OH246068   2.014   0.498  12.523  0.7345  0.4047  0.3668
 8218TIP3    H146069   2.098   0.458  12.498  0.5795 -1.2382  2.3110
 8218TIP3    H246070   1.974   0.433  12.581 -2.2416  0.8196 -1.1359
 8219TIP3   OH246071   2.908   5.014   2.091 -0.6779 -0.1555  0.0415
 8219TIP3    H146072   2.981   5.066   2.124 -1.7313  1.3528  0.0230
 8219TIP3    H246073   2.837   5.076   2.080 -2.6958 -1.9817  2.2479
 8220TIP3   OH246074   6.576   5.710  16.159  0.3441  0.7519  0.2868
 8220TIP3    H146075   6.503   5.649  16.153  2.0707 -1.3893  0.5445
 8220TIP3    H246076   6.625   5.696  16.078  0.1910  2.5869 -0.1481
 8221TIP3   OH246077   2.683   6.440   0.414 -0.4606  0.3674  0.5096
 8221TIP3    H146078   2.682   6.522   0.364 -2.3204  0.1231  0.1183
 8221TIP3    H246079   2.739   6.381   0.364  0.7388  1.3289  0.6951
 8222TIP3   OH246080   3.966   0.309  10.754  0.0629 -0.4813 -0.5131
 8222TIP3    H146081   4.002   0.271  10.834 -0.6151  2.2550  1.1261
 8222TIP3    H246082   4.030   0.287  10.686  1.4766 -1.3753  1.0757
 8223TIP3   OH246083   6.272   5.449  11.510  0.1416 -0.0851  0.1624
 8223TIP3    H146084   6.200   5.430  11.450 -0.3966 -2.9779  1.6728
 8223TIP3    H246085   6.313   5.364  11.526  0.8940  0.7863  3.1216
 8224TIP3   OH246086   1.285   1.117  14.217  0.8669  0.1288  0.0720
 8224TIP3    H146087   1.238   1.178  14.273 -0.4135  0.2127 -1.0650
 8224TIP3    H246088   1.264   1.031  14.251  0.9498  0.2220  0.3616
 8225TIP3   OH246089   6.619   6.209  10.960 -0.0119  0.1249  0.0014
 8225TIP3    H146090   6.589   6.272  10.895  1.2988  0.7209 -0.0463
 8225TIP3    H246091   6.627   6.127  10.911 -3.0441 -0.4461  0.3756
 8226TIP3   OH246092   2.276   2.292  14.947  0.7367 -0.0189  0.1829
 8226TIP3    H146093   2.286   2.251  15.033  2.2770  1.5036  0.7428
 8226TIP3    H246094   2.295   2.384  14.961 -1.6534  0.7417 -1.2884
 8227TIP3   OH246095   6.405   6.289  15.674  0.3023  0.4438 -0.5243
 8227TIP3    H146096   6.314   6.262  15.686  0.6754 -0.9258 -0.6821
 8227TIP3    H246097   6.400   6.383  15.655 -0.9235  0.8292  1.5066
 8228TIP3   OH246098   6.431   2.674  13.681 -0.3497  0.3318  0.5427
 8228TIP3    H146099   6.436   2.680  13.586 -1.4095 -0.4357  0.4279
 8228TIP3    H246100   6.389   2.589  13.698  0.2553  0.2507  1.7001
 8229TIP3   OH246101   6.762   5.499  11.819  0.8000 -0.3391 -0.1860
 8229TIP3    H146102   6.768   5.533  11.909 -1.3450  0.4685 -0.3095
 8229TIP3    H246103   6.816   5.559  11.767  0.7142  0.1716  0.3051
 8230TIP3   OH246104   5.592   0.296   3.121  0.3229 -0.1339 -0.0066
 8230TIP3    H146105   5.622   0.386   3.107  0.7688 -0.3493 -0.4954
 8230TIP3    H246106   5.510   0.305   3.168 -0.2109  0.5747 -1.0483
 8231TIP3   OH246107   3.649   3.949  13.887  0.4056 -0.4986  0.3736
 8231TIP3    H146108   3.649   3.854  13.889  3.8637 -0.5698 -0.5970
 8231TIP3    H246109   3.695   3.975  13.967 -1.1876  0.4276  1.0283
 8232TIP3   OH246110   4.919   1.706   3.731 -0.6028 -0.0558 -0.2280
 8232TIP3    H146111   4.982   1.739   3.667 -0.1617 -1.6426 -0.6325
 8232TIP3    H246112   4.974   1.674   3.803 -0.9936 -0.3877 -0.0795
 8233TIP3   OH246113   5.832   3.812  12.659 -0.6610  0.0328  0.5745
 8233TIP3    H146114   5.861   3.876  12.594 -1.2075  0.2429  0.5363
 8233TIP3    H246115   5.910   3.792  12.709 -0.1896 -0.2726 -0.2697
 8234TIP3   OH246116   4.685   1.292  13.364  0.2872 -0.3138 -0.7382
 8234TIP3    H146117   4.669   1.377  13.404  0.3403 -0.4553 -0.4187
 8234TIP3    H246118   4.693   1.231  13.438 -0.9421 -0.8027 -0.9905
 8235TIP3   OH246119   5.680   0.492  14.559  0.3016 -0.3280 -0.1203
 8235TIP3    H146120   5.731   0.446  14.627  0.4761 -2.7318 -1.8031
 8235TIP3    H246121   5.590   0.492  14.593  0.6598 -0.1085  0.8312
 8236TIP3   OH246122   1.649   0.362  13.912  0.0182  0.7251  0.7227
 8236TIP3    H146123   1.680   0.444  13.949  1.3772  0.7450 -0.4104
 8236TIP3    H246124   1.708   0.345  13.839 -0.3258 -1.2013  0.8718
 8237TIP3   OH246125   5.029   5.312  16.882  0.0581  0.0934  0.2229
 8237TIP3    H146126   5.009   5.328  16.974  0.8920 -0.0536  0.4321
 8237TIP3    H246127   4.997   5.390  16.837  1.1954  0.9230  0.8404
 8238TIP3   OH246128   1.664   6.508  16.725 -0.5005  0.3766  0.5718
 8238TIP3    H146129   1.692   6.475  16.640 -1.1675  1.9664 -0.2830
 8238TIP3    H246130   1.575   6.539  16.711 -1.1231 -0.6031  2.1983
 8239TIP3   OH246131   0.220   1.382  12.586  0.0496  0.9226 -0.9337
 8239TIP3    H146132   0.266   1.383  12.502  2.6301  3.4962  0.4090
 8239TIP3    H246133   0.274   1.326  12.642 -0.7123  0.6271 -0.4846
 8240TIP3   OH246134   4.707   4.999  15.985 -0.5523  0.2260 -0.1143
 8240TIP3    H146135   4.626   4.976  16.030 -1.2608  0.5745 -1.1822
 8240TIP3    H246136   4.681   5.009  15.893  1.0422 -1.4168 -0.7602
 8241TIP3   OH246137   0.140   3.998   5.987  0.3556 -0.4332 -0.0889
 8241TIP3    H146138   0.209   4.039   6.040  0.9343  0.9427 -1.8675
 8241TIP3    H246139   0.115   3.920   6.037  1.6650  0.2156  1.6539
 8242TIP3   OH246140   4.943   3.205   4.747  0.1031 -0.2187 -0.7386
 8242TIP3    H146141   5.030   3.190   4.711  0.1218  1.3289 -1.3843
 8242TIP3    H246142   4.886   3.145   4.698  0.7600 -1.0343 -0.5066
 8243TIP3   OH246143   5.524   1.268  14.044 -0.8711 -0.4213  0.2360
 8243TIP3    H146144   5.460   1.243  13.977  0.7564 -0.5906 -1.2881
 8243TIP3    H246145   5.548   1.358  14.022 -0.0585 -0.6023  0.3513
 8244TIP3   OH246146   1.404   1.060   2.586  0.0052  0.3337 -0.0368
 8244TIP3    H146147   1.456   1.099   2.517  0.7534  1.0217  0.9041
 8244TIP3    H246148   1.316   1.096   2.573  0.2694  0.8914 -0.2875
 8245TIP3   OH246149   2.446   5.795   4.135  0.4925  0.6005  0.0106
 8245TIP3    H146150   2.524   5.740   4.126  0.4719  0.4768  0.5761
 8245TIP3    H246151   2.385   5.760   4.070  0.4774 -0.0503  0.3687
 8246TIP3   OH246152   1.623   1.813  16.098  0.2486 -0.2585  0.2300
 8246TIP3    H146153   1.691   1.870  16.061  0.7504 -0.5932  0.6321
 8246TIP3    H246154   1.542   1.843  16.057  0.5026  0.7697  0.4694
 8247TIP3   OH246155   3.963   2.166   2.562  0.1294  0.8211 -0.3195
 8247TIP3    H146156   3.869   2.166   2.583  0.2093  1.3243  0.0520
 8247TIP3    H246157   3.976   2.086   2.511  0.0576 -0.8826  2.2244
 8248TIP3   OH246158   1.368   1.868  16.447  0.2092 -0.3853  0.0874
 8248TIP3    H146159   1.392   1.936  16.510 -1.1683 -0.5522  0.8129
 8248TIP3    H246160   1.288   1.829  16.483  0.0102 -1.2081 -1.2135
 8249TIP3   OH246161   3.061   1.289  11.899  0.3312  0.1109  0.2963
 8249TIP3    H146162   3.122   1.300  11.826  1.2017  1.0106  1.1484
 8249TIP3    H246163   3.081   1.203  11.935 -0.3506 -0.4947 -0.7457
 8250TIP3   OH246164   1.856   4.011   5.462  0.2484  0.3076 -0.3124
 8250TIP3    H146165   1.933   3.974   5.418  0.0489  0.6722 -0.9741
 8250TIP3    H246166   1.837   4.091   5.414  1.4736  1.9975  1.8935
 8251TIP3   OH246167   3.966   5.456  12.809  0.3335  0.0408  0.0148
 8251TIP3    H146168   3.901   5.408  12.860 -1.6532  0.4681 -2.0326
 8251TIP3    H246169   4.033   5.391  12.789 -0.9697 -1.2313 -0.3725
 8252TIP3   OH246170   5.402   2.613   1.109 -0.5890  0.3157 -0.1325
 8252TIP3    H146171   5.453   2.554   1.164 -1.6626 -1.7062 -1.2612
 8252TIP3    H246172   5.431   2.701   1.135  2.8800 -0.7314 -0.1736
 8253TIP3   OH246173   1.339   5.669  16.416 -0.4415 -0.3395 -0.1899
 8253TIP3    H146174   1.375   5.637  16.333  0.4178 -1.5967  0.6540
 8253TIP3    H246175   1.389   5.749  16.433 -0.7041 -0.0082 -0.9413
 8254TIP3   OH246176   0.108   3.144   2.981  0.3931  0.3415 -0.8045
 8254TIP3    H146177   0.161   3.066   2.964  2.2639  1.5958 -0.7837
 8254TIP3    H246178   0.037   3.112   3.036  1.1645 -1.3449 -0.7363
 8255TIP3   OH246179   4.626   1.943   3.447  0.0684  0.1178  0.1350
 8255TIP3    H146180   4.672   1.880   3.392  0.6924  0.6943 -0.0196
 8255TIP3    H246181   4.656   1.924   3.536  0.0908  0.0524  0.1136
 8256TIP3   OH246182   2.485   6.246  14.389 -0.0685  0.0119 -0.0208
 8256TIP3    H146183   2.485   6.339  14.411  0.7892 -0.4043  1.7873
 8256TIP3    H246184   2.540   6.240  14.311  0.0237  0.9917 -0.0384
 8257TIP3   OH246185   3.829   2.986   3.001  0.0005  0.0664 -0.6397
 8257TIP3    H146186   3.808   3.075   3.030 -0.2011 -0.4619  0.9040
 8257TIP3    H246187   3.763   2.967   2.935 -0.7499  0.6034 -0.0615
 8258TIP3   OH246188   6.759   4.832  12.533 -0.2265  0.1118 -0.0595
 8258TIP3    H146189   6.822   4.761  12.548  0.9639  1.3183  0.8064
 8258TIP3    H246190   6.754   4.878  12.617  0.0285  1.8434 -0.9737
 8259TIP3   OH246191   1.091   0.385   1.445 -0.6963  0.0050  0.1028
 8259TIP3    H146192   1.146   0.421   1.514 -0.4244 -0.5989  0.1964
 8259TIP3    H246193   1.055   0.304   1.481 -1.0784  0.0284 -0.2178
 8260TIP3   OH246194   3.992   1.287  17.029 -0.3950  0.3041  0.3731
 8260TIP3    H146195   4.081   1.251  17.029 -0.7121 -0.4855  0.0399
 8260TIP3    H246196   3.977   1.314  17.120 -0.2906 -0.7473  0.7089
 8261TIP3   OH246197   0.668   1.269   4.279  0.0749  0.3374 -0.5444
 8261TIP3    H146198   0.644   1.184   4.243 -1.5935 -0.0998  1.5445
 8261TIP3    H246199   0.762   1.261   4.298 -0.0946 -1.0735 -0.2552
 8262TIP3   OH246200   1.669   3.597   4.490 -0.2474  0.5421 -0.1099
 8262TIP3    H146201   1.619   3.620   4.567 -1.0092 -0.5264 -0.2763
 8262TIP3    H246202   1.603   3.581   4.422  0.3307 -0.4186 -0.4511
 8263TIP3   OH246203   6.282   3.335   5.321  0.5522 -0.5158  0.1437
 8263TIP3    H146204   6.341   3.407   5.298  0.3881 -1.3336 -3.0216
 8263TIP3    H246205   6.200   3.356   5.277 -0.2946 -1.4054  1.2565
 8264TIP3   OH246206   4.248   6.741  12.587  0.0103 -0.5256  0.0536
 8264TIP3    H146207   4.211   6.709  12.669 -0.1072  0.1961  0.2941
 8264TIP3    H246208   4.250   6.836  12.598  0.2321 -0.4422 -0.6805
 8265TIP3   OH246209   3.213   5.131  16.310 -0.7835  0.6659  0.2771
 8265TIP3    H146210   3.127   5.090  16.322 -1.1432  0.5528 -2.4124
 8265TIP3    H246211   3.248   5.091  16.231  2.4623 -0.4106  2.1455
 8266TIP3   OH246212   1.761   0.048  16.572  0.0390 -0.0656  0.1487
 8266TIP3    H146213   1.782   0.026  16.481  1.0372  0.2693  0.2950
 8266TIP3    H246214   1.834   0.014  16.623 -1.0372 -1.2213  0.9596
 8267TIP3   OH246215   0.130   0.391  14.360  0.0960 -0.4428  0.2049
 8267TIP3    H146216   0.192   0.444  14.309 -0.4405  1.0687  1.0913
 8267TIP3    H246217   0.097   0.451  14.427 -2.1531 -1.2871 -0.0967
 8268TIP3   OH246218   4.168   0.905   4.770  0.4071 -1.0080  0.3236
 8268TIP3    H146219   4.123   0.973   4.820  1.7412  0.9356 -1.0003
 8268TIP3    H246220   4.113   0.893   4.692  1.0472 -0.1847 -0.2642
 8269TIP3   OH246221   0.917   4.255   2.720  0.2446  0.1464 -0.5602
 8269TIP3    H146222   0.929   4.332   2.665 -0.3774 -0.8381 -2.1007
 8269TIP3    H246223   0.822   4.239   2.720  0.2973 -0.2063  0.3120
 8270TIP3   OH246224   2.194   1.462  13.382 -0.3510  0.0621  0.0825
 8270TIP3    H146225   2.236   1.541  13.349  0.7498 -0.6813 -0.3213
 8270TIP3    H246226   2.160   1.418  13.304  0.3067 -0.5864  0.1626
 8271TIP3   OH246227   6.178   2.356  11.846  0.3961  0.4160  0.0298
 8271TIP3    H146228   6.179   2.274  11.797  2.0229  0.5058 -0.0917
 8271TIP3    H246229   6.143   2.332  11.932 -0.0597 -0.2150 -0.3292
 8272TIP3   OH246230   0.214   2.104  13.027 -0.4175  0.4108 -0.7599
 8272TIP3    H146231   0.236   2.078  12.937  1.3113 -0.3875 -0.1281
 8272TIP3    H246232   0.251   2.035  13.082 -1.5607  0.8339  0.5631
 8273TIP3   OH246233   5.953   3.856   6.317  0.4283 -0.7687  0.3777
 8273TIP3    H146234   5.998   3.782   6.277  1.8158 -0.3297  1.1044
 8273TIP3    H246235   6.021   3.923   6.327 -0.1600 -0.4347  2.3769
 8274TIP3   OH246236   6.160   2.013  15.759  0.2304 -0.0007  0.2211
 8274TIP3    H146237   6.099   1.990  15.829  1.0196  0.9872  1.2553
 8274TIP3    H246238   6.218   2.078  15.798  0.5884  0.6809 -1.4153
 8275TIP3   OH246239   1.244   1.155   0.205  0.2747 -0.0130 -0.3604
 8275TIP3    H146240   1.282   1.243   0.204  0.1099  0.0580 -0.4815
 8275TIP3    H246241   1.205   1.147   0.293 -0.7617  0.4926 -0.7705
 8276TIP3   OH246242   4.308   2.632  10.907  0.0924  0.1582 -0.2038
 8276TIP3    H146243   4.349   2.546  10.906 -0.6029 -0.1856  0.3698
 8276TIP3    H246244   4.298   2.653  11.000 -0.6342  0.4247 -0.3405
 8277TIP3   OH246245   1.796   2.968   4.338 -0.2650  0.5022  0.3597
 8277TIP3    H146246   1.885   2.954   4.368  0.8018  2.2910 -1.8409
 8277TIP3    H246247   1.775   3.057   4.365 -0.0549  1.3773 -2.1664
 8278TIP3   OH246248   3.167   6.267  13.360 -0.7074 -0.1822  0.1971
 8278TIP3    H146249   3.102   6.200  13.381 -0.1144 -0.3612  1.4654
 8278TIP3    H246250   3.116   6.344  13.338 -1.3559 -0.3135  1.2189
 8279TIP3   OH246251   1.300   6.595  13.078  0.0213 -0.3945  0.0973
 8279TIP3    H146252   1.213   6.580  13.114  1.2151  0.4956  3.5965
 8279TIP3    H246253   1.357   6.536  13.127  1.6654  0.3991 -0.8021
 8280TIP3   OH246254   0.101   4.990  15.512  0.2924  0.2227  0.1277
 8280TIP3    H146255   0.072   5.057  15.574 -2.2348  1.3039 -2.1245
 8280TIP3    H246256   0.095   5.033  15.427 -0.2422 -2.5301 -1.2547
 8281TIP3   OH246257   2.221   1.215   2.059 -0.3206 -0.2086 -0.4518
 8281TIP3    H146258   2.163   1.227   1.984 -1.0550 -0.8788 -0.0009
 8281TIP3    H246259   2.164   1.186   2.129  0.4862 -0.3903  0.1414
 8282TIP3   OH246260   3.212   1.487   5.086  0.1952  0.7006  0.1049
 8282TIP3    H146261   3.121   1.458   5.074  0.3465  0.2163  0.1251
 8282TIP3    H246262   3.216   1.513   5.178  0.2688  0.0398  0.2885
 8283TIP3   OH246263   5.274   1.064  15.985  0.1943  0.0190 -0.5375
 8283TIP3    H146264   5.214   1.118  15.934  0.6116 -0.0310 -1.0802
 8283TIP3    H246265   5.336   1.030  15.921  1.8173  1.4194  0.2310
 8284TIP3   OH246266   5.881   6.158   0.680 -0.8802  0.0548 -0.3435
 8284TIP3    H146267   5.963   6.108   0.679 -1.7257 -1.3428 -2.5394
 8284TIP3    H246268   5.898   6.232   0.623 -0.9418  0.1209 -0.2760
 8285TIP3   OH246269   2.247   6.488   5.580 -0.6296  0.1389 -0.2231
 8285TIP3    H146270   2.221   6.404   5.542 -0.2568 -1.1034  2.1709
 8285TIP3    H246271   2.268   6.468   5.671  1.8042  2.3961 -0.2150
 8286TIP3   OH246272   3.466   0.922  15.159 -0.4374  0.3038  0.1609
 8286TIP3    H146273   3.548   0.909  15.111  0.7388 -0.6620  2.3556
 8286TIP3    H246274   3.480   1.002  15.208 -1.8113  1.5363 -1.3903
 8287TIP3   OH246275   6.599   2.486   4.559 -0.1053  0.9786 -0.4513
 8287TIP3    H146276   6.522   2.436   4.586 -0.6430  3.1257  2.1445
 8287TIP3    H246277   6.564   2.561   4.512  0.3811  2.0001  0.8036
 8288TIP3   OH246278   5.610   3.356  14.920  0.6093 -0.0863 -0.0798
 8288TIP3    H146279   5.618   3.332  14.828 -1.6328  0.9383 -0.5719
 8288TIP3    H246280   5.639   3.447  14.923  0.3936 -0.0242  0.1616
 8289TIP3   OH246281   3.511   2.560   1.019  0.4369  0.2128  0.5951
 8289TIP3    H146282   3.552   2.636   0.978 -0.3337  0.2181 -0.1710
 8289TIP3    H246283   3.428   2.593   1.054  0.5704 -0.0471  1.1561
 8290TIP3   OH246284   5.703   1.789  15.982 -0.3543 -0.4563  0.1558
 8290TIP3    H146285   5.740   1.763  15.898 -1.1370  0.6199 -0.5206
 8290TIP3    H246286   5.750   1.868  16.006 -1.9096  0.6791 -0.5065
 8291TIP3   OH246287   4.380   2.752  12.834  0.3773 -0.3661 -0.1100
 8291TIP3    H146288   4.379   2.806  12.913  2.3963  0.6589 -0.7621
 8291TIP3    H246289   4.389   2.662  12.867  0.1989 -0.0353  0.8624
 8292TIP3   OH246290   5.442   0.406   1.003 -0.0654  0.0712  0.0760
 8292TIP3    H146291   5.529   0.366   1.008 -0.3406 -0.6167 -0.4288
 8292TIP3    H246292   5.440   0.471   1.073  0.8109 -0.0008  0.1651
 8293TIP3   OH246293   5.483   4.199  12.846  0.0221  0.2776  0.0551
 8293TIP3    H146294   5.501   4.124  12.903 -0.1691 -0.7898 -1.2758
 8293TIP3    H246295   5.404   4.239  12.883 -0.5583 -0.8760  0.0824
 8294TIP3   OH246296   5.307   3.044  16.524 -0.1263  0.2760  0.0048
 8294TIP3    H146297   5.322   2.956  16.489 -1.1927 -0.6603  1.8257
 8294TIP3    H246298   5.308   3.100  16.447  1.9409 -1.1321 -1.0556
 8295TIP3   OH246299   0.360   1.740   1.806 -0.1128  0.1715 -0.6689
 8295TIP3    H146300   0.266   1.726   1.803  0.0170 -0.9254  0.3548
 8295TIP3    H246301   0.395   1.689   1.733 -0.1180 -1.0138  0.1542
 8296TIP3   OH246302   4.987   1.527  14.163  0.1011  0.4798  0.0394
 8296TIP3    H146303   4.955   1.515  14.252 -0.0814  0.7666  0.0117
 8296TIP3    H246304   5.079   1.552  14.174  0.6204 -1.3745  0.0878
 8297TIP3   OH246305   0.826   4.792   5.321 -0.0234  0.2373  0.1635
 8297TIP3    H146306   0.757   4.852   5.348  0.4423  0.2083  1.4191
 8297TIP3    H246307   0.786   4.741   5.250 -0.9585  0.9012  0.2010
 8298TIP3   OH246308   1.216   0.596   0.139 -0.1815 -0.2017 -0.2224
 8298TIP3    H146309   1.182   0.638   0.060  0.3482 -1.4797 -1.1687
 8298TIP3    H246310   1.235   0.667   0.199 -0.6213  0.7917 -1.2509
 8299TIP3   OH246311   5.693   4.731   4.983 -0.0022 -0.0634  0.3999
 8299TIP3    H146312   5.747   4.723   4.905  1.2173 -0.4273  1.2662
 8299TIP3    H246313   5.746   4.783   5.043 -1.1627  0.7080  0.7861
 8300TIP3   OH246314   4.329   0.771   2.310 -0.1154 -0.4235 -1.1040
 8300TIP3    H146315   4.369   0.738   2.230  1.9986  2.2675 -1.2433
 8300TIP3    H246316   4.336   0.699   2.372  1.8152 -1.2118 -2.1896
 8301TIP3   OH246317   4.158   5.420  14.092 -0.0923 -0.0462 -0.3695
 8301TIP3    H146318   4.219   5.349  14.074  0.6955  0.4811  0.1716
 8301TIP3    H246319   4.073   5.378  14.102  0.6386 -1.0772  1.5381
 8302TIP3   OH246320   1.030   4.037  14.900 -0.6882  0.6010  0.4701
 8302TIP3    H146321   1.077   4.116  14.928  2.1410  0.0785 -2.4900
 8302TIP3    H246322   1.046   3.974  14.970 -0.6785  1.7805  1.5615
 8303TIP3   OH246323   2.171   6.287  15.970 -0.0267  0.3801 -0.1732
 8303TIP3    H146324   2.188   6.289  15.876 -1.4343 -1.1172 -0.4857
 8303TIP3    H246325   2.241   6.340  16.009  0.9909  0.3936 -1.9895
 8304TIP3   OH246326   6.273   0.279  12.788 -0.4069  0.1930  0.1703
 8304TIP3    H146327   6.362   0.313  12.783  0.0420 -0.8605  0.9679
 8304TIP3    H246328   6.260   0.232  12.706  0.1169 -0.4914  0.4781
 8305TIP3   OH246329   4.578   5.057  14.342 -0.0199  0.1710  0.2158
 8305TIP3    H146330   4.630   5.027  14.417 -0.1867 -1.4671 -0.2914
 8305TIP3    H246331   4.542   4.976  14.305  0.8951  0.8513 -2.2571
 8306TIP3   OH246332   5.600   3.737  12.867 -0.0280 -0.3795  0.4229
 8306TIP3    H146333   5.510   3.767  12.867  0.3324  0.7481  1.3456
 8306TIP3    H246334   5.640   3.781  12.791  0.1555  0.4128  0.9766
 8307TIP3   OH246335   6.704   2.805   6.834 -0.8381 -0.3402 -0.0714
 8307TIP3    H146336   6.741   2.718   6.819 -1.8653 -0.9863  1.0973
 8307TIP3    H246337   6.701   2.845   6.747  1.7275 -0.6024 -0.3228
 8308TIP3   OH246338   3.590   6.285   4.004  0.0907 -0.3142 -0.3403
 8308TIP3    H146339   3.547   6.290   4.089 -0.2522 -0.2465 -0.5152
 8308TIP3    H246340   3.607   6.376   3.981  2.7442 -0.4577  0.9348
 8309TIP3   OH246341   6.582   3.845  13.283  0.3417  0.8912 -0.2635
 8309TIP3    H146342   6.588   3.867  13.190 -0.1429 -1.3032 -0.8517
 8309TIP3    H246343   6.619   3.921  13.328 -0.1439  2.3187 -2.2026
 8310TIP3   OH246344   5.901   1.238   6.218 -0.3837  0.0641  0.3953
 8310TIP3    H146345   5.888   1.308   6.282  0.6810  0.5322  0.1050
 8310TIP3    H246346   5.932   1.282   6.139  0.3907 -0.7400  0.2340
 8311TIP3   OH246347   0.993   4.941  11.445 -0.1221  0.1558  0.2824
 8311TIP3    H146348   0.984   5.033  11.418  0.2222 -0.5150 -2.2087
 8311TIP3    H246349   1.061   4.943  11.512 -0.4559  1.7833  0.6037
 8312TIP3   OH246350   3.185   4.028  15.145  0.1741 -0.0103 -0.2750
 8312TIP3    H146351   3.125   3.955  15.161  0.6898 -0.6249 -1.1165
 8312TIP3    H246352   3.192   4.072  15.229 -2.2941  0.7052 -0.4277
 8313TIP3   OH246353   4.207   0.686  11.368  0.0349 -0.7569  0.4757
 8313TIP3    H146354   4.208   0.613  11.307 -0.7827 -0.6328  0.3111
 8313TIP3    H246355   4.297   0.690  11.403  0.2553 -1.4022 -0.0202
 8314TIP3   OH246356   0.683   2.337   5.987  0.4786  0.5952  0.4818
 8314TIP3    H146357   0.622   2.410   6.001 -1.0431 -0.3865 -0.8353
 8314TIP3    H246358   0.757   2.377   5.942 -0.5089  1.2768 -0.5680
 8315TIP3   OH246359   5.168   0.336  16.464  0.2272  0.3043  0.2573
 8315TIP3    H146360   5.220   0.264  16.427  0.2879  0.1703  0.6062
 8315TIP3    H246361   5.194   0.339  16.556 -2.2180 -1.4028  1.0406
 8316TIP3   OH246362   4.252   6.138   3.711  0.1262 -0.5497 -0.3404
 8316TIP3    H146363   4.157   6.136   3.707  0.1113  0.5639 -0.5852
 8316TIP3    H246364   4.272   6.208   3.773  0.7887 -0.5266 -0.5767
 8317TIP3   OH246365   6.621   0.260   3.466 -0.2297  0.3353  0.5411
 8317TIP3    H146366   6.567   0.218   3.533  1.4515 -1.0359  1.0795
 8317TIP3    H246367   6.647   0.343   3.505 -1.2064  0.5985  0.6392
 8318TIP3   OH246368   4.640   6.138   1.194  0.1750 -0.0676  0.3641
 8318TIP3    H146369   4.714   6.165   1.247  0.0389 -1.2996  1.1972
 8318TIP3    H246370   4.679   6.113   1.110  0.6979 -0.6578  0.7792
 8319TIP3   OH246371   0.701   0.729  14.035  0.3824 -0.1515  0.5671
 8319TIP3    H146372   0.653   0.657  14.076  1.9118 -1.1216  0.7248
 8319TIP3    H246373   0.663   0.736  13.947 -2.1984  1.2422  1.7413
 8320TIP3   OH246374   6.100   5.567  13.285  0.4456 -1.0092  0.0008
 8320TIP3    H146375   6.164   5.625  13.244  0.3820 -2.3662 -2.1045
 8320TIP3    H246376   6.052   5.529  13.212 -2.4104 -0.4464  1.5217
 8321TIP3   OH246377   0.412   2.091   1.218 -0.1783 -0.2961 -0.6585
 8321TIP3    H146378   0.484   2.037   1.250 -0.4703 -0.7525 -0.7667
 8321TIP3    H246379   0.334   2.036   1.228 -0.6184  0.4542  0.1253
 8322TIP3   OH246380   2.023   3.802   4.154 -0.3479  1.2646  1.0022
 8322TIP3    H146381   2.086   3.845   4.212  2.0152 -0.4264 -0.2069
 8322TIP3    H246382   2.076   3.771   4.080 -2.1792 -2.2889  1.0539
 8323TIP3   OH246383   4.816   3.431  16.318  0.6622  0.8361 -0.0918
 8323TIP3    H146384   4.776   3.456  16.401  0.8341  1.1703 -0.1096
 8323TIP3    H246385   4.753   3.370  16.278  0.5616  0.7100  0.2642
 8324TIP3   OH246386   4.026   6.171   2.043  0.3735  0.0109  0.0627
 8324TIP3    H146387   3.972   6.138   2.115  0.1417  1.5908  0.6347
 8324TIP3    H246388   4.086   6.233   2.084  0.9064  0.1847 -0.9578
 8325TIP3   OH246389   4.170   0.515   3.628  0.0315 -0.1598  0.5881
 8325TIP3    H146390   4.091   0.466   3.652 -0.6419  1.5740  1.9946
 8325TIP3    H246391   4.144   0.607   3.633  2.0222  0.4213  0.6501
 8326TIP3   OH246392   6.352   6.731   5.806  0.0941 -0.3786 -0.3070
 8326TIP3    H146393   6.425   6.793   5.802 -0.2667  0.1347  1.0290
 8326TIP3    H246394   6.285   6.775   5.858 -1.0392 -1.0033 -1.2196
 8327TIP3   OH246395   3.411   5.188  12.250  0.1025 -0.4881  0.1947
 8327TIP3    H146396   3.358   5.109  12.265 -1.3659  0.4494  0.0713
 8327TIP3    H246397   3.413   5.197  12.154 -0.4044  0.0509  0.2297
 8328TIP3   OH246398   6.198   6.068   2.657  0.4039  0.1742  0.2666
 8328TIP3    H146399   6.120   6.033   2.701 -0.1048 -0.0848 -0.7927
 8328TIP3    H246400   6.271   6.019   2.694 -0.4175 -3.1198 -2.1601
 8329TIP3   OH246401   5.548   1.447   5.956  0.2175  0.4751  0.2063
 8329TIP3    H146402   5.480   1.503   5.995 -1.3055 -0.5526 -0.9083
 8329TIP3    H246403   5.594   1.409   6.031 -0.5271  1.0963  0.9825
 8330TIP3   OH246404   2.775   3.901  15.852 -0.3642  0.5872 -0.0361
 8330TIP3    H146405   2.791   3.987  15.814 -2.8000  0.9203 -0.4149
 8330TIP3    H246406   2.759   3.918  15.945  0.8538  0.3264  0.2318
 8331TIP3   OH246407   3.513   4.813  16.045 -0.6781 -0.4300  0.4456
 8331TIP3    H146408   3.566   4.888  16.019 -1.2175  0.0955  0.8721
 8331TIP3    H246409   3.528   4.803  16.138 -1.1767 -0.3933  0.5360
 8332TIP3   OH246410   3.775   3.802   3.908  0.0977  0.2548  0.3294
 8332TIP3    H146411   3.785   3.740   3.835  1.2334  2.0466 -1.0830
 8332TIP3    H246412   3.860   3.801   3.952 -0.6012 -0.8562  1.6999
 8333TIP3   OH246413   4.669   2.212  11.068 -0.1433  0.8478  0.5504
 8333TIP3    H146414   4.589   2.171  11.102 -0.4344  0.6990 -0.3039
 8333TIP3    H246415   4.664   2.200  10.973  1.7669 -0.7538  0.6234
 8334TIP3   OH246416   3.052   4.957  17.210  0.0347 -0.5926  0.0566
 8334TIP3    H146417   3.080   4.866  17.194 -1.2512 -0.7915 -1.1704
 8334TIP3    H246418   2.966   4.949  17.251 -0.0519  0.0661 -0.0000
 8335TIP3   OH246419   4.376   3.818  10.385 -0.0868  0.4921 -0.9147
 8335TIP3    H146420   4.314   3.788  10.319 -0.3988  1.7270 -1.1848
 8335TIP3    H246421   4.345   3.778  10.467 -1.4105  1.3196 -0.9924
 8336TIP3   OH246422   4.295   1.432   3.177 -0.3008  0.3095 -0.2639
 8336TIP3    H146423   4.298   1.493   3.251 -2.0674 -1.1685  1.0799
 8336TIP3    H246424   4.209   1.447   3.137 -0.3935 -0.6629 -0.4424
 8337TIP3   OH246425   5.352   3.645  13.889  0.1461 -0.0001 -0.1621
 8337TIP3    H146426   5.260   3.618  13.886 -0.4345  2.0164 -1.5885
 8337TIP3    H246427   5.371   3.653  13.982 -1.0614 -0.6431  0.1581
 8338TIP3   OH246428   6.553   6.137  12.889 -0.1825 -0.7069  0.3974
 8338TIP3    H146429   6.595   6.057  12.921 -0.1330 -1.5543 -1.6963
 8338TIP3    H246430   6.545   6.124  12.794  2.3588  2.9169 -0.4366
 8339TIP3   OH246431   5.048   2.314  16.693  0.2449  0.2570  0.4017
 8339TIP3    H146432   5.071   2.372  16.620  0.7001  0.9573  1.0976
 8339TIP3    H246433   4.961   2.344  16.720 -0.0671 -0.2179 -0.0585
 8340TIP3   OH246434   2.952   0.677   1.158  0.4387  0.0695  0.9503
 8340TIP3    H146435   2.973   0.747   1.097  0.9015  0.3707  1.4511
 8340TIP3    H246436   2.984   0.708   1.243 -0.6475 -0.1264  1.4455
 8341TIP3   OH246437   0.007   4.288  16.734  0.2383 -0.2699 -0.4391
 8341TIP3    H146438   0.087   4.236  16.724  0.9499  0.5498  0.9340
 8341TIP3    H246439   0.004   4.341  16.654  0.9656 -0.4540 -0.6005
 8342TIP3   OH246440   1.350   1.774   4.217 -0.4807 -0.3058 -0.7725
 8342TIP3    H146441   1.362   1.864   4.244 -0.2950 -1.5907  3.8999
 8342TIP3    H246442   1.264   1.750   4.252  0.3831 -2.5284 -0.0760
 8343TIP3   OH246443   1.012   6.170  10.725 -0.5811 -0.9642  0.6901
 8343TIP3    H146444   1.070   6.151  10.799  1.0557  3.3865  0.6711
 8343TIP3    H246445   1.071   6.202  10.657 -2.6373 -0.0982 -0.7256
 8344TIP3   OH246446   4.973   1.747  15.303  0.0462  0.0505  0.3754
 8344TIP3    H146447   4.900   1.779  15.355  0.1324 -0.6369  0.9212
 8344TIP3    H246448   4.935   1.727  15.217 -0.3953 -0.2864  0.6540
 8345TIP3   OH246449   5.385   5.125   0.230  0.0721  0.7957  1.0786
 8345TIP3    H146450   5.360   5.046   0.278  0.7387 -0.6995 -0.9247
 8345TIP3    H246451   5.394   5.095   0.139  0.1192  3.2415  0.2369
 8346TIP3   OH246452   4.632   5.473   0.927 -0.9453 -0.1826 -0.5553
 8346TIP3    H146453   4.694   5.433   0.866  0.0711  0.4747  0.0328
 8346TIP3    H246454   4.553   5.487   0.875 -0.3855 -0.4387 -1.4882
 8347TIP3   OH246455   3.168   2.715   5.461  0.1908 -0.4453 -0.1381
 8347TIP3    H146456   3.167   2.780   5.532  1.2945  0.7942 -1.2245
 8347TIP3    H246457   3.111   2.645   5.492  0.3623  0.2428  1.8196
 8348TIP3   OH246458   6.544   1.326  11.132 -0.0467 -0.1906  0.6347
 8348TIP3    H146459   6.540   1.300  11.040  0.4529 -1.1132  0.8738
 8348TIP3    H246460   6.589   1.411  11.131 -0.2225 -0.1012  0.0161
 8349TIP3   OH246461   6.049   4.116   5.661  0.4370 -0.0643  0.0262
 8349TIP3    H146462   5.958   4.095   5.683  0.8549 -1.5007  0.3958
 8349TIP3    H246463   6.089   4.140   5.745  1.2406 -2.6086  0.4017
 8350TIP3   OH246464   4.943   5.697  11.544 -0.2575 -0.1236  0.1172
 8350TIP3    H146465   4.898   5.748  11.477 -1.7419 -2.0991 -0.4541
 8350TIP3    H246466   5.003   5.640  11.495  0.5608  0.2616  0.6570
 8351TIP3   OH246467   3.154   5.240   2.019 -0.0968 -0.4154 -0.4162
 8351TIP3    H146468   3.148   5.225   1.924 -0.6305  0.0557 -0.4544
 8351TIP3    H246469   3.218   5.175   2.049 -0.7783 -1.3322 -0.9248
 8352TIP3   OH246470   2.823   5.648  12.632  0.1067  0.2576 -0.1584
 8352TIP3    H146471   2.760   5.582  12.660  0.4940 -0.3616 -0.7046
 8352TIP3    H246472   2.861   5.681  12.713  1.0445 -1.3265  0.0751
 8353TIP3   OH246473   3.406   0.022  13.984  0.2386 -0.3088 -0.2039
 8353TIP3    H146474   3.485   0.049  13.936 -0.4933  1.0725 -0.6348
 8353TIP3    H246475   3.411  -0.074  13.985  2.7778 -0.2128  1.1870
 8354TIP3   OH246476   0.976   3.221  12.308 -0.7083  0.0938  0.6071
 8354TIP3    H146477   0.985   3.224  12.403  0.1177 -0.1948  0.5448
 8354TIP3    H246478   0.989   3.312  12.280  3.3397 -0.4172  0.4447
 8355TIP3   OH246479   0.219   0.522  10.599  0.5654 -0.1927  0.4523
 8355TIP3    H146480   0.286   0.550  10.660  1.1795  0.0065 -0.3002
 8355TIP3    H246481   0.186   0.604  10.561  1.3407 -0.4011 -0.6841
 8356TIP3   OH246482   6.158   0.408  12.002 -0.1013 -0.2080 -0.3955
 8356TIP3    H146483   6.143   0.502  11.995 -0.1619 -0.3287 -2.0710
 8356TIP3    H246484   6.199   0.397  12.088  0.5337  1.4231 -0.4664
 8357TIP3   OH246485   2.199   5.143   1.867  0.0194 -0.1057 -0.1414
 8357TIP3    H146486   2.209   5.146   1.772 -0.0981 -0.3550 -0.1606
 8357TIP3    H246487   2.183   5.051   1.887  0.8751 -0.1862  0.1989
 8358TIP3   OH246488   1.518   0.427   6.323 -0.3151  0.0451 -0.3010
 8358TIP3    H146489   1.512   0.478   6.404  1.6005 -0.5878  0.2805
 8358TIP3    H246490   1.553   0.343   6.350 -1.3632 -0.8140 -1.5625
 8359TIP3   OH246491   3.088   5.796   1.960 -0.0507  0.5226  0.6993
 8359TIP3    H146492   3.075   5.712   1.916 -0.1425  0.7869  0.2264
 8359TIP3    H246493   3.169   5.784   2.010 -0.7113 -0.2611  1.6210
 8360TIP3   OH246494   2.429   2.032   0.399  0.2980  0.1789  0.2104
 8360TIP3    H146495   2.416   2.127   0.403 -0.8275  0.0117  0.7938
 8360TIP3    H246496   2.408   2.002   0.487  0.1527 -0.6677 -0.1099
 8361TIP3   OH246497   0.274   6.184   1.310 -0.1640 -0.1744  0.0786
 8361TIP3    H146498   0.185   6.193   1.345 -0.3083 -1.6234  0.1071
 8361TIP3    H246499   0.326   6.242   1.365 -0.5211 -1.8968  2.3162
 8362TIP3   OH246500   0.075   4.759  15.355  0.3002  0.0772  0.4892
 8362TIP3    H146501   0.096   4.839  15.402 -0.1331  0.2743  0.3435
 8362TIP3    H246502   0.012   4.785  15.288  0.3998 -0.3245  0.2298
 8363TIP3   OH246503   5.186   5.068   4.558 -0.3944 -0.4423 -0.3498
 8363TIP3    H146504   5.117   5.006   4.582 -0.2944  0.0990  1.4370
 8363TIP3    H246505   5.267   5.021   4.577 -0.2786 -0.8820 -1.9332
 8364TIP3   OH246506   0.563   0.238   4.462 -0.1999  0.2331 -0.0403
 8364TIP3    H146507   0.576   0.332   4.470  0.3371  0.0828  0.9159
 8364TIP3    H246508   0.649   0.200   4.482 -0.5070 -0.4768 -0.0565
 8365TIP3   OH246509   0.374   4.413   1.017 -1.4531 -0.2093  0.1220
 8365TIP3    H146510   0.427   4.487   0.986 -1.3403  0.9106  2.8238
 8365TIP3    H246511   0.291   4.452   1.043 -1.8280 -1.2164  0.4685
 8366TIP3   OH246512   0.797   4.062   1.700  0.7996  0.0125 -0.4016
 8366TIP3    H146513   0.794   4.032   1.609  0.5174 -0.5276 -0.2196
 8366TIP3    H246514   0.739   4.001   1.747  2.1611 -0.6729  0.4159
 8367TIP3   OH246515   0.672   4.133  11.317 -0.2742  0.2627 -0.4278
 8367TIP3    H146516   0.657   4.086  11.399  0.7028  0.8272  0.0862
 8367TIP3    H246517   0.602   4.104  11.260  0.1434 -1.6132 -0.0290
 8368TIP3   OH246518   2.531   4.029   4.912  0.3667  0.5886 -0.2541
 8368TIP3    H146519   2.624   4.010   4.901  0.7971  0.8492  2.7256
 8368TIP3    H246520   2.528   4.115   4.953 -1.1136 -0.0832  1.1040
 8369TIP3   OH246521   3.676   3.560  10.857  0.0385  0.1038 -0.2204
 8369TIP3    H146522   3.653   3.485  10.912 -0.5385  0.0020 -0.5994
 8369TIP3    H246523   3.641   3.636  10.904  0.8476  0.1693  0.2919
 8370TIP3   OH246524   2.428   3.148  11.635 -0.3095  0.5036  0.4816
 8370TIP3    H146525   2.467   3.171  11.551 -1.7644 -3.4142 -1.4190
 8370TIP3    H246526   2.384   3.228  11.665  2.4452  2.7056 -1.1418
 8371TIP3   OH246527   0.480   0.513   2.435  0.4413 -0.1507 -0.1225
 8371TIP3    H146528   0.539   0.451   2.393  0.1380  0.5034 -1.5284
 8371TIP3    H246529   0.412   0.458   2.473  1.3193 -0.8230  0.5001
 8372TIP3   OH246530   0.217   4.795  12.322  0.1287 -0.1757  0.4614
 8372TIP3    H146531   0.263   4.738  12.384 -1.2768 -2.5446 -0.5993
 8372TIP3    H246532   0.283   4.820  12.258  0.7775 -0.5401  0.9785
 8373TIP3   OH246533   6.409   0.327  11.856  0.3026 -0.0917  0.0388
 8373TIP3    H146534   6.378   0.367  11.775  2.4527 -2.0451 -1.8201
 8373TIP3    H246535   6.332   0.286  11.894 -0.6727  0.5767 -1.1816
 8374TIP3   OH246536   0.410   4.394   2.099 -0.2039 -0.4798  0.4888
 8374TIP3    H146537   0.423   4.312   2.145 -0.9267 -0.9340 -0.1020
 8374TIP3    H246538   0.316   4.396   2.078 -0.1488  0.3715  0.2777
 8375TIP3   OH246539   2.807   6.265   5.378  0.0849 -0.7634  0.3489
 8375TIP3    H146540   2.712   6.254   5.388  0.0099 -0.8553 -0.4522
 8375TIP3    H246541   2.843   6.229   5.459 -0.6356  0.5176  1.2502
 8376TIP3   OH246542   5.244   2.513   2.287 -0.2664 -0.6611  0.3888
 8376TIP3    H146543   5.230   2.597   2.243 -0.6711 -2.0468 -2.2943
 8376TIP3    H246544   5.304   2.465   2.229 -1.6808 -2.9765  0.7370
 8377TIP3   OH246545   5.436   3.456   3.969  0.2915  0.1922  0.1413
 8377TIP3    H146546   5.453   3.546   3.996 -1.2712  0.2931  0.8630
 8377TIP3    H246547   5.516   3.408   3.991  0.2606  0.9464  1.9214
 8378TIP3   OH246548   4.929   2.644   3.737  0.1840  0.1333  0.0091
 8378TIP3    H146549   4.881   2.586   3.678  0.1919  1.0426 -0.9203
 8378TIP3    H246550   5.021   2.618   3.727  0.2242  0.5149 -0.6623
 8379TIP3   OH246551   3.666   6.606   3.029  0.8518  0.2985 -0.5457
 8379TIP3    H146552   3.707   6.673   3.083  3.1964  0.4590 -2.4129
 8379TIP3    H246553   3.735   6.580   2.967 -1.2327 -1.0027 -2.4004
 8380TIP3   OH246554   5.346   5.194  11.130 -0.5870  0.8433  0.2732
 8380TIP3    H146555   5.435   5.166  11.150  0.3550  2.8824 -0.9572
 8380TIP3    H246556   5.352   5.233  11.044 -2.4478  2.0965  0.6940
 8381TIP3   OH246557   3.203   5.716   2.362 -0.2328  0.2956 -0.5033
 8381TIP3    H146558   3.136   5.784   2.368  0.9553  1.4346  0.2284
 8381TIP3    H246559   3.280   5.754   2.405  0.7760 -1.1207 -0.9997
 8382TIP3   OH246560   4.309   4.271   0.134  0.4202 -0.6644  0.4706
 8382TIP3    H146561   4.334   4.362   0.122 -1.1054 -0.1253  1.2282
 8382TIP3    H246562   4.392   4.225   0.149  1.2288  0.5274 -0.3128
 8383TIP3   OH246563   2.461   4.807   3.687  0.6867  0.1641 -0.1322
 8383TIP3    H146564   2.470   4.716   3.717 -0.4246 -0.0413 -0.3810
 8383TIP3    H246565   2.377   4.808   3.641  0.5664  1.3879  0.1085
 8384TIP3   OH246566   3.287   2.042   0.766  0.1246  0.5306  0.4372
 8384TIP3    H146567   3.208   2.095   0.777  1.5131  2.6965  0.2864
 8384TIP3    H246568   3.276   1.999   0.681 -0.5355  1.4756  0.0345
 8385TIP3   OH246569   4.560   5.473   0.112 -0.3911  0.0325  0.1556
 8385TIP3    H146570   4.609   5.531   0.169 -2.7438  0.4214  1.8428
 8385TIP3    H246571   4.570   5.386   0.152 -1.3464  0.1686  0.6954
 8386TIP3   OH246572   0.321   1.501   2.463 -0.4402 -0.3475  0.1710
 8386TIP3    H146573   0.322   1.415   2.504  0.7660 -1.2506 -1.6926
 8386TIP3    H246574   0.376   1.555   2.520 -1.1213 -0.8075  1.2882
 8387TIP3   OH246575   1.603   4.923  11.339 -0.7601  0.0356  0.3848
 8387TIP3    H146576   1.572   4.926  11.429 -1.0255 -0.1146  0.2969
 8387TIP3    H246577   1.695   4.896  11.346 -0.2171  1.9021  0.7501
 8388TIP3   OH246578   2.521   5.182  12.807 -0.2975  0.2487  0.0120
 8388TIP3    H146579   2.454   5.170  12.874 -1.0038 -2.6227 -1.1257
 8388TIP3    H246580   2.599   5.141  12.843 -0.3764 -0.3179 -0.4534
 8389TIP3   OH246581   1.013   3.876  13.174  0.6770 -0.5172 -0.1250
 8389TIP3    H146582   1.048   3.813  13.112  0.3749  0.5497 -1.4090
 8389TIP3    H246583   0.925   3.896  13.142  0.0792 -0.7957  1.2848
 8390TIP3   OH246584   4.401   5.249  14.035  0.5938  0.0511  0.4941
 8390TIP3    H146585   4.475   5.310  14.034  0.0026  0.7748 -1.6816
 8390TIP3    H246586   4.425   5.180  13.973 -0.2271 -0.0927  0.3282
 8391TIP3   OH246587   6.380   5.988   3.706 -0.0623  0.1006 -0.3116
 8391TIP3    H146588   6.466   5.974   3.746 -1.2630 -1.2560  1.9243
 8391TIP3    H246589   6.349   5.900   3.684 -0.2532  0.6874 -2.5623
 8392TIP3   OH246590   3.444   4.339  12.700  0.0236  0.2055  0.4417
 8392TIP3    H146591   3.400   4.266  12.657  0.4986  0.2439 -0.1077
 8392TIP3    H246592   3.454   4.405  12.631  4.1066 -1.1484 -0.3673
 8393TIP3   OH246593   2.891   4.084   5.593 -0.0375  0.7995 -0.1912
 8393TIP3    H146594   2.939   4.063   5.673 -1.2064 -1.9588 -0.1390
 8393TIP3    H246595   2.831   4.154   5.619  0.3058  0.6331  1.0980
 8394TIP3   OH246596   6.356   2.187   1.990 -0.4553  0.5762 -0.3067
 8394TIP3    H146597   6.399   2.105   1.967 -1.6733 -0.2010  0.1546
 8394TIP3    H246598   6.396   2.252   1.931  1.2169 -0.1407  0.0116
 8395TIP3   OH246599   2.618   2.216   6.118  0.1288 -0.2105 -0.2474
 8395TIP3    H146600   2.542   2.271   6.138 -0.2486 -0.9442  0.3557
 8395TIP3    H246601   2.602   2.135   6.165  0.4015 -1.0666 -1.6259
 8396TIP3   OH246602   5.782   2.882   4.003 -0.7686  0.3824 -0.5786
 8396TIP3    H146603   5.715   2.941   4.038 -1.2753 -0.1065 -0.7288
 8396TIP3    H246604   5.819   2.839   4.080 -0.5316  0.7497 -0.4848
 8397TIP3   OH246605   1.955   4.241   3.068  0.0370 -0.4199 -0.0114
 8397TIP3    H146606   1.952   4.175   3.138  1.1702 -1.3932 -0.8709
 8397TIP3    H246607   2.048   4.258   3.055 -0.1498 -0.5496 -1.5677
 8398TIP3   OH246608   3.783   5.952   4.434  0.6156 -0.0126 -0.0138
 8398TIP3    H146609   3.740   5.870   4.410  1.6954 -0.3404 -0.8901
 8398TIP3    H246610   3.759   6.013   4.364  0.1802  0.2918  0.4005
 8399TIP3   OH246611   5.019   5.951  15.574 -0.2395 -0.3990  0.3784
 8399TIP3    H146612   5.037   5.905  15.492  1.4031  1.0271 -0.1036
 8399TIP3    H246613   5.060   6.037  15.562  1.1030 -0.6007  3.1812
 8400TIP3   OH246614   2.578   0.554  11.949 -0.0760 -0.6423  0.0587
 8400TIP3    H146615   2.659   0.533  11.903  0.3480  1.0066  0.0514
 8400TIP3    H246616   2.590   0.643  11.981 -1.9216 -0.3476 -0.0119
 8401TIP3   OH246617   1.897   3.962  10.887 -0.3349 -0.4029  0.4709
 8401TIP3    H146618   1.863   3.892  10.831 -1.3701  1.0600 -0.7650
 8401TIP3    H246619   1.820   4.008  10.917  0.3661  0.4938  0.9176
 8402TIP3   OH246620   2.176   0.704  16.137 -0.2040  0.7135 -0.4037
 8402TIP3    H146621   2.149   0.615  16.114  0.3778  0.3172  0.3830
 8402TIP3    H246622   2.143   0.716  16.226 -0.3462  1.3194 -0.5367
 8403TIP3   OH246623   2.930   0.510   0.175 -0.0870  0.5006 -0.4110
 8403TIP3    H146624   2.838   0.532   0.159 -0.1024  0.0810 -0.8884
 8403TIP3    H246625   2.929   0.417   0.199  0.1085  0.7240  0.5105
 8404TIP3   OH246626   1.888   3.109  14.623 -0.0766 -0.3256 -0.1058
 8404TIP3    H146627   1.874   3.180  14.560 -2.5661 -1.9107 -1.4515
 8404TIP3    H246628   1.835   3.134  14.698 -0.0526 -0.2087 -0.1271
 8405TIP3   OH246629   2.724   0.843  16.898  0.0930  0.2109 -0.4780
 8405TIP3    H146630   2.646   0.788  16.896  0.8225 -0.8538 -0.4921
 8405TIP3    H246631   2.741   0.865  16.806  1.3593 -1.8458 -0.7789
 8406TIP3   OH246632   2.733   2.140  13.021 -0.1473 -0.5450  0.0815
 8406TIP3    H146633   2.694   2.070  13.074 -0.6245  0.1470  0.6624
 8406TIP3    H246634   2.760   2.206  13.085  1.1590 -0.6130 -0.3950
 8407TIP3   OH246635   0.460   6.116  16.762  0.4200  0.1594 -0.0392
 8407TIP3    H146636   0.369   6.096  16.780  0.4086  1.5749  1.6517
 8407TIP3    H246637   0.463   6.137  16.669 -0.7586 -1.0344 -0.3512
 8408TIP3   OH246638   0.067   2.097  14.562 -0.1954 -0.3604 -0.0567
 8408TIP3    H146639  -0.013   2.141  14.534  0.2205  0.5180  0.1193
 8408TIP3    H246640   0.138   2.155  14.534  0.3091 -0.2683  1.3517
 8409TIP3   OH246641   0.079   2.504   5.071  0.3722  0.8048 -0.5570
 8409TIP3    H146642   0.012   2.547   5.124 -0.4536 -1.0181 -0.0924
 8409TIP3    H246643   0.144   2.473   5.134  0.0313 -0.2459 -0.7111
 8410TIP3   OH246644   3.981   1.920   1.520 -0.0395  0.1001 -0.2811
 8410TIP3    H146645   4.059   1.972   1.500  0.6697  0.2694  2.6960
 8410TIP3    H246646   3.908   1.974   1.489  0.8769  1.2000 -0.5840
 8411TIP3   OH246647   5.615   5.860  15.754 -0.6754  0.0203  0.0682
 8411TIP3    H146648   5.561   5.909  15.692 -0.3377 -0.3848 -0.5418
 8411TIP3    H246649   5.564   5.861  15.835 -1.4665 -0.1010 -0.4166
 8412TIP3   OH246650   1.659   0.096   5.081  0.0130 -0.3254 -0.3215
 8412TIP3    H146651   1.698   0.098   5.168 -1.6042  1.3094  0.4022
 8412TIP3    H246652   1.676   0.183   5.045 -1.3324 -0.2055 -0.7100
 8413TIP3   OH246653   1.465   4.670   2.446  0.1850  0.1161 -0.1339
 8413TIP3    H146654   1.431   4.674   2.535  4.4374 -0.3475  1.5968
 8413TIP3    H246655   1.464   4.576   2.424  0.7034  0.0636  0.0661
 8414TIP3   OH246656   4.960   2.770   0.436 -1.0899  0.0657  0.4393
 8414TIP3    H146657   4.866   2.757   0.450 -1.3667  3.1803  1.7986
 8414TIP3    H246658   4.967   2.856   0.395  1.0827 -0.8403 -1.1532
 8415TIP3   OH246659   1.888   1.267  15.220 -0.5548  0.1995 -0.3818
 8415TIP3    H146660   1.890   1.187  15.272 -2.0645  1.0844  1.1142
 8415TIP3    H246661   1.961   1.319  15.252 -1.7393  0.9274  1.2270
 8416TIP3   OH246662   2.400   4.487   6.058  0.3800  0.9408 -0.1982
 8416TIP3    H146663   2.474   4.472   5.999  1.0340  0.6326  0.6971
 8416TIP3    H246664   2.432   4.549   6.123  0.5884 -0.9231  1.5235
 8417TIP3   OH246665   2.378   6.458  16.997  0.0847  0.5490 -0.5831
 8417TIP3    H146666   2.321   6.437  17.071 -0.6311  1.6661 -0.8020
 8417TIP3    H246667   2.392   6.553  17.005 -0.0173  0.6743 -1.8958
 8418TIP3   OH246668   1.792   1.889  17.045  0.0694 -0.0759 -0.2862
 8418TIP3    H146669   1.809   1.976  17.080 -2.1443  0.3964 -0.3566
 8418TIP3    H246670   1.727   1.851  17.104  1.9028 -2.1784  0.4714
 8419TIP3   OH246671   4.051   3.534  13.543  0.1761  0.2658  1.0679
 8419TIP3    H146672   4.139   3.497  13.542  0.0844  0.0569 -1.3304
 8419TIP3    H246673   4.058   3.615  13.493 -0.8146  0.7428  1.6679
 8420TIP3   OH246674   5.066   3.230  16.593  0.3903 -0.0809  0.5099
 8420TIP3    H146675   5.053   3.204  16.502  0.3880 -1.5439  0.9221
 8420TIP3    H246676   5.073   3.148  16.642 -0.5745  0.6715  1.9755
 8421TIP3   OH246677   3.798   6.269  15.923  0.5853 -0.3775  0.2614
 8421TIP3    H146678   3.878   6.252  15.973  1.0017  0.5462 -0.0563
 8421TIP3    H246679   3.816   6.352  15.878 -1.1849  0.6998  1.4816
 8422TIP3   OH246680   1.241   6.130   2.535  0.2105 -0.2652 -0.3037
 8422TIP3    H146681   1.210   6.155   2.448  1.4523  4.2568  0.4295
 8422TIP3    H246682   1.335   6.117   2.525  0.3507  0.2132  0.3085
 8423TIP3   OH246683   5.822   6.316  13.467 -0.2342  0.2414 -0.3598
 8423TIP3    H146684   5.880   6.240  13.478 -0.0596 -0.0477 -3.0599
 8423TIP3    H246685   5.743   6.280  13.428 -1.0456  1.1323  0.4447
 8424TIP3   OH246686   2.603   5.050  10.869  0.1936 -0.0591 -0.0029
 8424TIP3    H146687   2.560   5.056  10.954 -0.3906 -0.0243 -0.3021
 8424TIP3    H246688   2.648   5.134  10.859  0.6939 -0.2582  0.4954
 8425TIP3   OH246689   3.109   3.802   1.646 -0.2526  0.3880  0.2257
 8425TIP3    H146690   3.167   3.727   1.630  0.8616  0.6920  2.5909
 8425TIP3    H246691   3.021   3.765   1.648  0.0812 -0.4892 -0.9076
 8426TIP3   OH246692   3.996   3.951  12.932  0.2718 -0.3737 -0.0974
 8426TIP3    H146693   3.987   4.014  13.003 -0.4590 -0.6979  0.1063
 8426TIP3    H246694   3.914   3.900  12.934  0.9979 -1.5594 -0.0330
 8427TIP3   OH246695   2.102   4.745  15.762 -0.1698  0.4502 -0.1234
 8427TIP3    H146696   2.104   4.651  15.745  0.8491  0.5988 -0.8743
 8427TIP3    H246697   2.157   4.757  15.839 -0.7194  0.3695  0.2808
 8428TIP3   OH246698   3.240   2.189  11.793  0.1309 -0.2541 -0.3410
 8428TIP3    H146699   3.231   2.131  11.869 -0.1830  0.9211  0.5335
 8428TIP3    H246700   3.317   2.156  11.747  0.9051 -0.3769  1.0251
 8429TIP3   OH246701   5.954   5.149   5.265 -0.5334 -0.6295 -0.3813
 8429TIP3    H146702   5.903   5.210   5.212 -1.0186 -0.1552  0.5998
 8429TIP3    H246703   5.892   5.120   5.333  0.7733  0.7315  1.4305
 8430TIP3   OH246704   4.337   3.068   3.202  0.0554  0.7054  0.1135
 8430TIP3    H146705   4.274   3.066   3.274 -1.0896  1.8721 -0.8165
 8430TIP3    H246706   4.367   2.978   3.194 -3.9233 -0.5952 -1.4501
 8431TIP3   OH246707   1.412   4.879   3.200 -0.5495 -0.5577 -0.3593
 8431TIP3    H146708   1.410   4.974   3.210  0.4604 -0.5281 -0.3649
 8431TIP3    H246709   1.387   4.845   3.287  1.4769 -0.2819  0.3546
 8432TIP3   OH246710   3.272   3.263   3.271 -0.2163  0.1644 -0.0960
 8432TIP3    H146711   3.224   3.194   3.317 -1.6632  1.2665  0.0833
 8432TIP3    H246712   3.271   3.337   3.331 -0.5377  1.0304 -1.1510
 8433TIP3   OH246713   3.280   1.190  12.222  0.2542  0.2035 -0.3112
 8433TIP3    H146714   3.199   1.212  12.268 -0.2723  0.7721 -1.4804
 8433TIP3    H246715   3.252   1.127  12.155  1.2213 -1.6076  0.9580
 8434TIP3   OH246716   2.129   3.685   1.055 -0.2025  0.0812 -0.1413
 8434TIP3    H146717   2.081   3.763   1.082 -0.3363  0.1533 -0.5889
 8434TIP3    H246718   2.183   3.662   1.131  0.6477  1.2336 -0.3880
 8435TIP3   OH246719   4.084   4.380   1.740 -0.0056  0.0115  0.4830
 8435TIP3    H146720   4.112   4.340   1.658  1.1790  3.7006 -1.0418
 8435TIP3    H246721   4.000   4.339   1.760 -0.2978 -0.9979 -2.5527
 8436TIP3   OH246722   1.340   1.422  16.316  0.1457 -0.3296 -0.2043
 8436TIP3    H146723   1.423   1.374  16.326 -0.2578 -1.0197 -0.0858
 8436TIP3    H246724   1.364   1.514  16.325  0.6424 -0.6178  1.6973
 8437TIP3   OH246725   3.139   5.859  14.059 -0.2346  0.5885  0.0113
 8437TIP3    H146726   3.182   5.816  14.132 -1.4694  0.2857  0.5724
 8437TIP3    H246727   3.131   5.951  14.085 -2.5229  0.0974  1.1594
 8438TIP3   OH246728   6.585   5.915   0.309  0.4848 -0.1481 -0.0796
 8438TIP3    H146729   6.511   5.971   0.289  0.3840 -0.3273 -0.2110
 8438TIP3    H246730   6.546   5.830   0.330  0.7170 -0.6161 -1.4619
 8439TIP3   OH246731   6.305   1.383   3.847  0.0224 -0.4127 -0.3323
 8439TIP3    H146732   6.352   1.300   3.843 -0.2656 -0.5302 -1.4091
 8439TIP3    H246733   6.287   1.396   3.940  0.4626 -1.3330 -0.1124
 8440TIP3   OH246734   1.004   6.576   2.200  0.2725 -0.0512  0.2599
 8440TIP3    H146735   0.941   6.506   2.183  2.4400 -1.5102 -2.1346
 8440TIP3    H246736   0.951   6.656   2.199 -1.8309 -1.3990  0.2433
 8441TIP3   OH246737   0.612   2.422  12.692 -0.2299 -0.0120  0.5201
 8441TIP3    H146738   0.556   2.350  12.722 -0.8718  0.6543  0.9609
 8441TIP3    H246739   0.688   2.418  12.750 -1.0274  0.6780  1.6446
 8442TIP3   OH246740   5.036   3.732   2.052  0.0762 -0.0175  0.5840
 8442TIP3    H146741   4.976   3.715   2.125  0.7257 -1.6782  0.7587
 8442TIP3    H246742   5.114   3.681   2.074  0.9913  0.9674 -0.3588
 8443TIP3   OH246743   3.565   3.013   0.279 -0.2440  0.3655  0.0943
 8443TIP3    H146744   3.483   2.972   0.253  0.0586 -0.5650  0.5713
 8443TIP3    H246745   3.571   2.997   0.373 -0.7744  2.6970  0.5591
 8444TIP3   OH246746   1.306   3.921   5.875  0.5270 -0.1111 -0.0705
 8444TIP3    H146747   1.389   3.905   5.921  0.2258 -0.5741  0.3028
 8444TIP3    H246748   1.317   3.877   5.791 -0.5192 -2.8175  1.1686
 8445TIP3   OH246749   6.573   2.125   5.796  0.5625 -0.3264  0.1486
 8445TIP3    H146750   6.643   2.150   5.856  2.4185  0.0385 -2.0630
 8445TIP3    H246751   6.538   2.208   5.765  0.0096 -0.5058  0.2961
 8446TIP3   OH246752   1.069   0.900  12.323 -0.2096  0.2872  0.4528
 8446TIP3    H146753   1.040   0.831  12.263  0.2876 -1.3396  2.0345
 8446TIP3    H246754   1.155   0.871  12.352  0.4417  2.0925  0.3816
 8447TIP3   OH246755   5.055   4.231   2.611  0.4740 -0.4795 -0.3894
 8447TIP3    H146756   4.967   4.200   2.591 -0.9398  2.2384  1.2307
 8447TIP3    H246757   5.065   4.310   2.559  2.4903 -1.4418 -1.5297
 8448TIP3   OH246758   4.902   6.647  10.665  0.1046  0.1076  0.5890
 8448TIP3    H146759   4.994   6.640  10.690  0.3118  1.8432  0.3639
 8448TIP3    H246760   4.905   6.668  10.571 -0.5180  0.3818  0.6298
 8449TIP3   OH246761   4.416   4.404   0.464  0.0364 -0.0466  0.4434
 8449TIP3    H146762   4.454   4.418   0.377 -1.7384  0.1058 -0.3295
 8449TIP3    H246763   4.492   4.392   0.522  1.2174 -1.7880 -1.3964
 8450TIP3   OH246764   2.614   0.494   2.926  0.7878  0.1892 -0.2878
 8450TIP3    H146765   2.640   0.560   2.991  0.0153  0.2472 -0.0320
 8450TIP3    H246766   2.536   0.530   2.885  0.1436 -0.7223  0.1063
 8451TIP3   OH246767   0.524   2.484   1.763  0.4216 -0.1393 -0.7598
 8451TIP3    H146768   0.606   2.522   1.794  0.6931 -1.7762  0.6157
 8451TIP3    H246769   0.551   2.401   1.722 -0.4741 -0.3604 -0.8984
 8452TIP3   OH246770   2.632   1.425   6.368  0.4286 -0.7311 -0.4658
 8452TIP3    H146771   2.596   1.375   6.295 -0.8512 -0.9434  0.2873
 8452TIP3    H246772   2.726   1.409   6.364  0.6093  0.7702 -3.1764
 8453TIP3   OH246773   4.561   3.929  12.607  0.0033  0.5768 -0.3193
 8453TIP3    H146774   4.528   3.849  12.567  2.9796 -0.7183 -0.2417
 8453TIP3    H246775   4.558   3.912  12.701 -2.6531  1.9180 -0.1002
 8454TIP3   OH246776   0.433   1.166  16.358  0.3094 -0.0172 -0.2378
 8454TIP3    H146777   0.491   1.241  16.378 -0.5741  0.5889  0.0952
 8454TIP3    H246778   0.486   1.089  16.379  0.8525  0.5386  0.4683
 8455TIP3   OH246779   3.033   0.877   3.474  0.2498 -0.5938  0.3104
 8455TIP3    H146780   3.006   0.940   3.407  1.1313  0.7817  1.2474
 8455TIP3    H246781   2.950   0.847   3.513 -0.1401  0.6168  0.4329
 8456TIP3   OH246782   5.845   4.493   0.305  0.2139  0.1787  0.0599
 8456TIP3    H146783   5.780   4.438   0.351 -1.5886  0.6643 -1.8376
 8456TIP3    H246784   5.860   4.566   0.365 -0.5697 -0.2362  0.7826
 8457TIP3   OH246785   3.477   2.797  16.400  0.7968 -0.5868 -0.4669
 8457TIP3    H146786   3.475   2.876  16.347  0.3676 -0.0639  0.3160
 8457TIP3    H246787   3.427   2.733  16.349  1.0027 -0.3101 -1.0230
 8458TIP3   OH246788   0.343   6.652  16.401  0.0561 -0.1717 -0.1113
 8458TIP3    H146789   0.324   6.668  16.308 -1.6460 -1.9026 -0.0857
 8458TIP3    H246790   0.385   6.566  16.402  0.0990 -0.1402  0.7234
 8459TIP3   OH246791   4.423   1.782  12.234 -0.3549 -0.0944  0.3108
 8459TIP3    H146792   4.450   1.840  12.163  0.6750  0.8985  1.5055
 8459TIP3    H246793   4.328   1.794  12.240 -0.3052  0.5739 -0.2095
 8460TIP3   OH246794   2.332   4.484  15.622 -0.0911  0.3485  0.3438
 8460TIP3    H146795   2.402   4.464  15.684  1.0221  0.8123 -0.7268
 8460TIP3    H246796   2.288   4.401  15.608 -0.4974  0.2860  1.9100
 8461TIP3   OH246797   4.479   5.961   2.928 -0.0246  0.7113 -0.7314
 8461TIP3    H146798   4.419   5.897   2.891  1.6537 -1.1037 -0.4390
 8461TIP3    H246799   4.564   5.940   2.889  1.0954  0.9490  1.4519
 8462TIP3   OH246800   4.528   4.550  16.683 -0.8378 -0.3147  0.0201
 8462TIP3    H146801   4.491   4.608  16.616 -1.0150 -0.5977 -0.1313
 8462TIP3    H246802   4.545   4.469  16.636 -0.3471 -0.2967  0.1687
 8463TIP3   OH246803   2.606   3.128   4.243  0.0013  0.1407  0.5992
 8463TIP3    H146804   2.549   3.193   4.202  0.2769 -0.4090 -0.6757
 8463TIP3    H246805   2.673   3.109   4.177 -0.0772 -1.4480  0.9546
 8464TIP3   OH246806   6.062   3.453  13.041  0.1443 -0.5860 -0.0478
 8464TIP3    H146807   5.990   3.500  13.085  1.1519  0.6207  0.3414
 8464TIP3    H246808   6.018   3.392  12.982 -1.1956  0.6433 -0.3449
 8465TIP3   OH246809   4.614   4.377  12.160 -0.2970 -0.6475 -0.4367
 8465TIP3    H146810   4.631   4.283  12.169 -1.6875 -1.3447 -4.2194
 8465TIP3    H246811   4.699   4.414  12.136  0.1116 -0.9915  0.4357
 8466TIP3   OH246812   2.593   2.550  13.926 -0.6272  0.2254  0.0925
 8466TIP3    H146813   2.527   2.613  13.955  0.5575  1.7914 -0.5969
 8466TIP3    H246814   2.647   2.535  14.004 -2.4822 -2.0381  1.0377
 8467TIP3   OH246815   1.658   5.194   2.430  0.2661 -0.0091 -0.1710
 8467TIP3    H146816   1.600   5.193   2.506  0.4043  0.5454 -0.0564
 8467TIP3    H246817   1.599   5.182   2.355  0.0665  0.0044 -0.0180
 8468TIP3   OH246818   1.319   0.565  12.615 -0.1720 -0.6184 -0.3239
 8468TIP3    H146819   1.338   0.517  12.534 -1.4965 -0.0219 -1.0155
 8468TIP3    H246820   1.293   0.498  12.678  1.0152 -1.1043 -0.3394
 8469TIP3   OH246821   5.315   0.067  15.528 -0.0097 -0.3316 -0.4858
 8469TIP3    H146822   5.358   0.101  15.607 -3.1553  1.3601  0.5791
 8469TIP3    H246823   5.328   0.136  15.462  2.0557 -1.4579 -1.2901
 8470TIP3   OH246824   0.417   0.125  14.250 -0.2918 -0.2825  0.1072
 8470TIP3    H146825   0.331   0.109  14.288  0.6973  0.1344  2.6304
 8470TIP3    H246826   0.479   0.086  14.312  1.3389 -0.4294 -1.5738
 8471TIP3   OH246827   0.941   4.824   4.659 -0.0814  0.2515  0.3683
 8471TIP3    H146828   1.007   4.819   4.728 -0.8085  2.2244  1.2559
 8471TIP3    H246829   0.901   4.910   4.671 -1.2609  0.0058 -1.5778
 8472TIP3   OH246830   1.324   6.178  13.574  0.4990 -0.1061  0.4539
 8472TIP3    H146831   1.310   6.254  13.517 -0.8834  0.1490  1.1043
 8472TIP3    H246832   1.411   6.192  13.612  1.3148 -0.1363 -1.3563
 8473TIP3   OH246833   2.106   3.338   5.720  0.8163 -0.2941  0.1829
 8473TIP3    H146834   2.070   3.390   5.792  1.8895  0.8667 -0.1101
 8473TIP3    H246835   2.044   3.265   5.710  0.0049  0.2075  1.4608
 8474TIP3   OH246836   3.877   5.803   2.286 -0.1789 -0.0877 -0.1371
 8474TIP3    H146837   3.880   5.799   2.191 -0.6219  0.3082 -0.1745
 8474TIP3    H246838   3.899   5.894   2.307 -1.0655  0.0839  0.0821
 8475TIP3   OH246839   4.987   2.847  15.730  0.2596 -0.1156 -0.2710
 8475TIP3    H146840   4.909   2.859  15.676 -0.0598  0.0862  0.2351
 8475TIP3    H246841   5.053   2.814  15.669 -0.4569 -1.0841 -0.5193
 8476TIP3   OH246842   1.447   5.290   0.579 -0.0834  0.0620  0.0141
 8476TIP3    H146843   1.514   5.346   0.618 -1.6371  0.9316  1.5502
 8476TIP3    H246844   1.400   5.347   0.519 -0.8199  0.0457  0.5725
 8477TIP3   OH246845   4.501   4.114  12.264  0.1732  0.0290  0.2379
 8477TIP3    H146846   4.408   4.134  12.275  0.1292 -0.2289  0.3511
 8477TIP3    H246847   4.514   4.115  12.169  0.0996  0.2633  0.2284
 8478TIP3   OH246848   0.426   0.159   6.625  0.2426 -0.5337 -0.3548
 8478TIP3    H146849   0.484   0.233   6.637  0.3433 -0.9154  1.7759
 8478TIP3    H246850   0.482   0.082   6.634 -0.3268 -0.8847  0.3090
 8479TIP3   OH246851   5.491   3.298  12.487  0.0971  0.1715 -0.3605
 8479TIP3    H146852   5.487   3.248  12.568  0.7165  1.7764  0.6775
 8479TIP3    H246853   5.415   3.357  12.490  0.6934  0.9594 -0.4424
 8480TIP3   OH246854   2.536   2.258  16.655 -0.9456 -0.3914 -0.3340
 8480TIP3    H146855   2.562   2.265  16.563  1.3941  0.9635  0.3971
 8480TIP3    H246856   2.486   2.337  16.672 -0.8396 -0.3392 -0.2657
 8481TIP3   OH246857   2.088   2.052  15.332 -0.4051  0.2348  0.3234
 8481TIP3    H146858   2.005   2.013  15.304 -0.0851 -0.6280  0.5660
 8481TIP3    H246859   2.074   2.073  15.425 -0.0544 -0.7567  0.6135
 8482TIP3   OH246860   6.054   5.151   3.852  0.4713 -0.3288  0.2826
 8482TIP3    H146861   6.143   5.141   3.816  1.2477  0.7772  1.8260
 8482TIP3    H246862   6.062   5.124   3.943 -0.9159 -0.7681  0.2810
 8483TIP3   OH246863   5.986   0.963   0.948  0.5515 -0.2921  0.1723
 8483TIP3    H146864   6.063   0.971   1.004  0.7918  1.9958 -0.4193
 8483TIP3    H246865   5.915   0.941   1.008  0.9924  1.1912  1.2826
 8484TIP3   OH246866   4.280   5.808  16.011 -0.1014 -0.4914  0.5652
 8484TIP3    H146867   4.337   5.844  16.079  0.7715 -0.7914  0.0011
 8484TIP3    H246868   4.288   5.870  15.939  0.2757 -1.0399  0.1280
 8485TIP3   OH246869   4.966   0.947  12.617 -0.5677 -0.0275 -0.5554
 8485TIP3    H146870   4.976   0.943  12.522  0.5279  0.6419 -0.4728
 8485TIP3    H246871   5.050   0.979  12.649 -0.6303 -1.0514  0.7057
 8486TIP3   OH246872   0.693   3.822   0.764 -0.9430 -0.2956 -0.0234
 8486TIP3    H146873   0.636   3.746   0.778 -1.8570  0.2714 -0.6844
 8486TIP3    H246874   0.711   3.822   0.670 -1.1006  0.4167 -0.0560
 8487TIP3   OH246875   2.358   2.868  16.263 -0.3625 -0.0819  0.2079
 8487TIP3    H146876   2.283   2.924  16.286  0.4503  1.6928 -1.3304
 8487TIP3    H246877   2.334   2.830  16.178 -0.1308 -0.6264  0.3890
 8488TIP3   OH246878   1.477   3.252   0.219  0.3924 -0.0285  0.1209
 8488TIP3    H146879   1.573   3.254   0.210  0.2653 -0.4892 -1.5328
 8488TIP3    H246880   1.446   3.313   0.152 -0.5067 -0.8131 -0.1868
 8489TIP3   OH246881   0.754   0.365  13.673  0.7981 -0.8961  0.7195
 8489TIP3    H146882   0.822   0.422  13.709  0.6929 -0.5683  0.3985
 8489TIP3    H246883   0.731   0.307  13.746  0.2146  0.0996  1.3405
 8490TIP3   OH246884   2.315   5.947  15.412  0.2486 -0.1357 -0.7795
 8490TIP3    H146885   2.403   5.971  15.439  0.9297 -0.5064 -2.5609
 8490TIP3    H246886   2.272   6.031  15.393  0.0165  0.0755  0.6399
 8491TIP3   OH246887   1.435   4.345   0.575  0.3191  0.6116  0.0746
 8491TIP3    H146888   1.488   4.270   0.601  1.1590  0.4020 -2.1385
 8491TIP3    H246889   1.407   4.384   0.658  2.3619 -0.3617  1.2712
 8492TIP3   OH246890   5.898   5.887  11.387 -0.7003  0.3377  0.3092
 8492TIP3    H146891   5.823   5.878  11.446 -0.2578  0.9899  0.9722
 8492TIP3    H246892   5.862   5.934  11.311 -0.6474  1.8765  1.2244
 8493TIP3   OH246893   3.969   4.536  15.925  0.3662 -0.2271 -0.2679
 8493TIP3    H146894   3.883   4.573  15.902  0.6748  0.6975  0.0384
 8493TIP3    H246895   3.950   4.445  15.947 -0.4523 -0.1890 -0.7695
 8494TIP3   OH246896   6.080   1.142  12.844 -0.5253 -0.3134 -0.2121
 8494TIP3    H146897   6.086   1.172  12.753 -0.0353 -0.7334 -0.3185
 8494TIP3    H246898   6.153   1.082  12.855 -1.1308 -0.9848  0.1946
 8495TIP3   OH246899   3.417   1.635  17.036  0.1888 -0.3272 -0.7752
 8495TIP3    H146900   3.354   1.662  16.969 -0.2680 -1.1392 -0.6886
 8495TIP3    H246901   3.419   1.707  17.099  0.7347  0.5045 -1.7408
 8496TIP3   OH246902   5.920   1.771  12.540 -0.3809 -0.6026  0.5831
 8496TIP3    H146903   5.987   1.716  12.499  0.6446  0.5288  0.7292
 8496TIP3    H246904   5.844   1.764  12.481  0.7200  0.1796 -0.9570
 8497TIP3   OH246905   1.590   6.676   1.890 -0.0306 -0.7731 -0.1929
 8497TIP3    H146906   1.592   6.642   1.979 -0.1218 -0.4091 -0.0511
 8497TIP3    H246907   1.501   6.708   1.878 -0.7417 -3.1204 -1.2888
 8498TIP3   OH246908   1.895   1.263   2.314  0.0943 -0.2659 -0.1857
 8498TIP3    H146909   1.935   1.348   2.333  1.1567 -0.3649 -1.9114
 8498TIP3    H246910   1.820   1.284   2.259 -0.4718 -0.3402  0.5477
 8499TIP3   OH246911   5.499   4.005  15.072  0.3126 -0.2779  0.4330
 8499TIP3    H146912   5.413   3.970  15.095  0.3141 -0.7964 -0.3597
 8499TIP3    H246913   5.496   4.016  14.977  0.3573  1.7546  0.6401
 8500TIP3   OH246914   1.727   0.276   0.086 -0.0553 -0.0620  0.1606
 8500TIP3    H146915   1.779   0.201   0.113  0.6670  0.4239  0.1291
 8500TIP3    H246916   1.791   0.346   0.070 -0.6236  0.2490 -0.8556
 8501TIP3   OH246917   5.762   0.917   1.256 -0.2638 -0.0794 -0.0552
 8501TIP3    H146918   5.706   0.922   1.179  0.2184 -0.2894 -0.4217
 8501TIP3    H246919   5.842   0.876   1.224 -0.2215 -0.5502  0.6489
 8502TIP3   OH246920   2.560   1.165   6.533 -0.0827 -0.0589 -0.0295
 8502TIP3    H146921   2.549   1.096   6.599  0.1810 -0.5016 -0.4487
 8502TIP3    H246922   2.644   1.145   6.491 -0.7413 -0.3770 -1.2093
 8503TIP3   OH246923   5.158   3.529   2.424  0.5776  0.1195 -0.0328
 8503TIP3    H146924   5.249   3.503   2.414  0.2935 -2.5726  3.2482
 8503TIP3    H246925   5.155   3.575   2.508 -1.0961 -0.0645  0.0365
 8504TIP3   OH246926   6.173   6.743   5.491 -0.3069  0.1053 -0.0337
 8504TIP3    H146927   6.077   6.741   5.491 -0.2888 -1.3725  0.1368
 8504TIP3    H246928   6.197   6.735   5.583 -0.0191  0.0895 -0.1103
 8505TIP3   OH246929   4.417   5.706  14.640 -0.4913 -0.6920  0.5164
 8505TIP3    H146930   4.341   5.710  14.697  0.8606 -0.0955  2.3118
 8505TIP3    H246931   4.461   5.790  14.652 -0.0472 -0.6511 -1.2262
 8506TIP3   OH246932   6.755   2.743   4.583 -0.0037 -0.0897 -0.3716
 8506TIP3    H146933   6.721   2.810   4.643  2.1749  1.1657 -0.4576
 8506TIP3    H246934   6.776   2.669   4.640  1.6584  0.9411  0.4216
 8507TIP3   OH246935   1.925   0.771  14.571 -0.1363  0.5346  0.1711
 8507TIP3    H146936   1.941   0.746  14.480  0.7048  1.7836 -0.0399
 8507TIP3    H246937   1.862   0.843  14.565 -2.5516 -1.4518  0.7727
 8508TIP3   OH246938   4.483   2.006  11.495  0.4545 -0.0001  0.6166
 8508TIP3    H146939   4.408   1.946  11.492  0.0957  0.5144 -1.6092
 8508TIP3    H246940   4.555   1.951  11.526 -0.0089 -1.4692 -0.7970
 8509TIP3   OH246941   3.794   5.954   0.751 -0.5339  0.3968 -0.4487
 8509TIP3    H146942   3.715   5.919   0.710  0.0058 -2.3753  0.7449
 8509TIP3    H246943   3.763   6.001   0.828 -1.0959  0.2566 -0.5913
 8510TIP3   OH246944   4.784   6.555   4.177  0.2838 -0.2805  0.1971
 8510TIP3    H146945   4.834   6.582   4.254 -0.4384 -0.8319  0.8728
 8510TIP3    H246946   4.776   6.634   4.124  1.5704 -0.1108  0.2551
 8511TIP3   OH246947   1.188   4.296  15.810 -0.3205  0.5342  0.0487
 8511TIP3    H146948   1.174   4.289  15.716  0.3295 -0.0941 -0.0077
 8511TIP3    H246949   1.176   4.389  15.830 -0.9660  0.5812 -0.5679
 8512TIP3   OH246950   4.292   3.982   5.246  0.4786 -0.0717  0.1710
 8512TIP3    H146951   4.215   4.032   5.219 -0.3888 -1.7863 -0.6456
 8512TIP3    H246952   4.351   3.987   5.171  0.2051 -0.5918 -0.0892
 8513TIP3   OH246953   5.207   3.638  10.699 -0.5475  0.4691  0.1869
 8513TIP3    H146954   5.253   3.567  10.744  0.1361  0.3717 -0.6574
 8513TIP3    H246955   5.142   3.594  10.646  0.0089  0.4563 -0.4893
 8514TIP3   OH246956   2.955   6.224  12.340 -0.1729  0.0867 -0.6330
 8514TIP3    H146957   2.899   6.186  12.409  0.8954  0.4766  0.4678
 8514TIP3    H246958   2.896   6.236  12.265 -1.2945 -0.6037  0.1202
 8515TIP3   OH246959   3.828   4.278  16.342 -1.0086  0.1387  0.0328
 8515TIP3    H146960   3.835   4.335  16.418 -1.8025 -0.3808  0.4965
 8515TIP3    H246961   3.907   4.224  16.345 -0.7454  0.5246  0.1452
 8516TIP3   OH246962   5.408   4.813  13.990  0.2072  0.4179  0.6788
 8516TIP3    H146963   5.403   4.839  13.898 -2.3687 -1.2438  0.3012
 8516TIP3    H246964   5.366   4.885  14.038 -1.9373 -0.4790  0.1679
 8517TIP3   OH246965   6.281   5.352   1.728 -1.0812  0.0555 -0.2861
 8517TIP3    H146966   6.253   5.442   1.742  0.7114  0.4736  0.6946
 8517TIP3    H246967   6.374   5.358   1.707 -0.6127 -1.6706  1.1575
 8518TIP3   OH246968   5.911   6.603  15.496 -0.6574  0.1751  0.5637
 8518TIP3    H146969   5.993   6.561  15.470 -1.6404 -0.5026 -1.6273
 8518TIP3    H246970   5.890   6.566  15.581  0.6688 -0.5805  0.5668
 8519TIP3   OH246971   5.909   5.048  11.806  0.8133 -0.3239 -0.2376
 8519TIP3    H146972   5.924   5.084  11.719 -1.3170 -0.1667 -0.5725
 8519TIP3    H246973   5.914   5.124  11.864 -1.5571  0.2496 -0.7015
 8520TIP3   OH246974   1.865   1.229   5.338 -0.5323  0.4219 -0.0624
 8520TIP3    H146975   1.813   1.177   5.400 -1.1946  0.7847 -0.2999
 8520TIP3    H246976   1.913   1.291   5.392  0.6313 -0.7392  0.2617
 8521TIP3   OH246977   3.846   1.787  17.067  0.1494  1.7118  0.1001
 8521TIP3    H146978   3.888   1.803  16.982 -0.8449  0.9177 -0.5603
 8521TIP3    H246979   3.897   1.715  17.105  0.1435  1.5687 -0.1577
 8522TIP3   OH246980   1.005   3.447   0.362 -0.7891  0.0059 -0.0939
 8522TIP3    H146981   0.915   3.478   0.378  0.1730  3.6597 -1.1565
 8522TIP3    H246982   1.011   3.437   0.268 -1.0125 -3.4920  0.2262
 8523TIP3   OH246983   2.109   5.431  16.352  0.6489 -0.2165  0.6435
 8523TIP3    H146984   2.169   5.394  16.287 -1.1984 -0.6237 -0.8799
 8523TIP3    H246985   2.131   5.524  16.355 -0.5045  0.1750 -2.0096
 8524TIP3   OH246986   0.870   5.922  12.609  0.1263 -0.3663 -0.3294
 8524TIP3    H146987   0.778   5.912  12.630 -0.0723 -0.2543 -1.1460
 8524TIP3    H246988   0.914   5.925  12.694 -0.7343  0.7791  0.0724
 8525TIP3   OH246989   1.457   1.406   3.281  0.1495  0.1269 -0.5912
 8525TIP3    H146990   1.502   1.338   3.232 -0.3394 -0.9466  0.4187
 8525TIP3    H246991   1.514   1.483   3.274  2.4474 -1.3477  1.1336
 8526TIP3   OH246992   1.659   2.897  13.117  0.5491  0.0723 -0.3406
 8526TIP3    H146993   1.663   2.948  13.198  1.7126  1.4618 -1.2365
 8526TIP3    H246994   1.748   2.901  13.083 -0.2226  0.6435 -2.3584
 8527TIP3   OH246995   2.829   6.713  14.674  0.0851  0.2788  0.0545
 8527TIP3    H146996   2.796   6.671  14.753 -0.2602 -0.0375 -0.2543
 8527TIP3    H246997   2.862   6.641  14.620  0.0067  0.4606 -0.2357
 8528TIP3   OH246998   2.837   5.115  13.333  0.2951  0.2888  0.4302
 8528TIP3    H146999   2.766   5.054  13.353  1.0757 -0.1817  1.8024
 8528TIP3    H247000   2.872   5.085  13.249 -0.4279 -0.1016  0.2618
 8529TIP3   OH247001   2.811   4.100  10.347 -0.1398  0.7017 -0.1985
 8529TIP3    H147002   2.827   4.166  10.279 -0.1761  0.5900 -0.3158
 8529TIP3    H247003   2.802   4.151  10.428 -1.5611  0.9664 -0.5003
 8530TIP3   OH247004   0.671   4.655   4.225 -0.4912  0.3978 -0.2127
 8530TIP3    H147005   0.749   4.600   4.222 -0.7117  0.1176 -0.9830
 8530TIP3    H247006   0.684   4.711   4.302  0.7960  0.8371 -0.7312
 8531TIP3   OH247007   6.369   4.020  14.546  0.2279  0.3712 -0.5110
 8531TIP3    H147008   6.298   3.968  14.584  1.0053  0.5557  1.2376
 8531TIP3    H247009   6.329   4.061  14.469 -0.7767 -1.6967 -1.1403
 8532TIP3   OH247010   0.827   1.382   2.102  0.0487 -0.3149  0.1006
 8532TIP3    H147011   0.785   1.405   2.019  0.4955 -0.5918 -0.2029
 8532TIP3    H247012   0.877   1.303   2.083  0.8353  0.0977  0.4254
 8533TIP3   OH247013   3.964   4.885   1.265 -0.4104 -0.4765 -0.1899
 8533TIP3    H147014   3.944   4.844   1.181 -0.7733  0.4829 -0.5899
 8533TIP3    H247015   4.013   4.964   1.242 -0.8041 -0.0306  0.4689
 8534TIP3   OH247016   0.522   0.687  16.761 -0.0864  0.4814  0.5469
 8534TIP3    H147017   0.489   0.755  16.820  1.5855  0.4747  1.5297
 8534TIP3    H247018   0.607   0.661  16.799  0.3164 -0.5948 -1.0296
 8535TIP3   OH247019   4.918   0.631   1.746 -0.0097 -0.4005 -0.1155
 8535TIP3    H147020   4.950   0.541   1.732 -1.0920 -0.7144 -0.6605
 8535TIP3    H247021   4.944   0.678   1.667  2.0383  0.2106  0.8959
 8536TIP3   OH247022   1.537   3.935   5.996 -0.4839  0.3356 -0.4571
 8536TIP3    H147023   1.606   3.961   5.935  2.9472  1.1238  3.5747
 8536TIP3    H247024   1.561   3.847   6.024 -2.8204 -0.5975 -1.1882
 8537TIP3   OH247025   3.012   1.078  14.478  0.4582 -0.5530  0.2249
 8537TIP3    H147026   2.968   1.022  14.542 -2.0976  0.3880 -0.6205
 8537TIP3    H247027   3.020   1.163  14.522  0.3607 -0.4082 -0.0364
 8538TIP3   OH247028   6.056   2.357   5.055  0.5053  0.3536  0.1855
 8538TIP3    H147029   6.074   2.310   4.974  1.1209  2.7203 -1.0860
 8538TIP3    H247030   6.139   2.354   5.103  1.2240  2.0510 -0.9067
 8539TIP3   OH247031   5.383   3.130   0.545 -1.0640  0.3104  0.3281
 8539TIP3    H147032   5.387   3.042   0.582 -1.9730  0.3404  0.5176
 8539TIP3    H247033   5.455   3.134   0.483 -1.8231 -1.0037 -0.6452
 8540TIP3   OH247034   1.938   6.752   2.349  0.9157 -0.1962 -0.1166
 8540TIP3    H147035   1.860   6.708   2.385 -0.6028  2.2120 -0.3861
 8540TIP3    H247036   2.004   6.742   2.417 -0.1402 -0.7703  0.8504
 8541TIP3   OH247037   1.650   3.081  14.263 -0.0200 -0.0234  0.5401
 8541TIP3    H147038   1.724   3.142  14.262  0.0350 -0.0917 -0.6933
 8541TIP3    H247039   1.577   3.132  14.300  0.1772  0.6132  0.0544
 8542TIP3   OH247040   0.620   1.496   6.833  0.0520  0.1275  0.4483
 8542TIP3    H147041   0.623   1.406   6.801  1.4417 -0.3726  1.9104
 8542TIP3    H247042   0.703   1.534   6.806 -1.3565  1.6296 -1.9228
 8543TIP3   OH247043   3.199   4.337  16.098 -0.4754  0.4314  0.0429
 8543TIP3    H147044   3.169   4.286  16.023  2.3767 -0.0111 -0.8443
 8543TIP3    H247045   3.284   4.372  16.072  1.4936 -1.3190  3.7011
 8544TIP3   OH247046   5.623   2.740   5.009  0.3024 -0.4293 -0.6919
 8544TIP3    H147047   5.608   2.695   4.925 -0.4624 -1.0135 -0.2446
 8544TIP3    H247048   5.613   2.671   5.075  0.5921  0.0961 -0.0946
 8545TIP3   OH247049   6.046   6.502   2.852 -0.2302 -0.1072 -0.7286
 8545TIP3    H147050   6.123   6.462   2.810  0.2352  0.2235 -0.1996
 8545TIP3    H247051   6.023   6.441   2.922 -1.0783 -0.7160 -1.5245
 8546TIP3   OH247052   1.353   4.204  15.143  0.8990  0.0170  0.7225
 8546TIP3    H147053   1.276   4.258  15.122  1.8646  0.6081 -1.4155
 8546TIP3    H247054   1.326   4.115  15.123  0.5976  0.1642  0.4630
 8547TIP3   OH247055   3.113   6.357   3.839  0.4079 -0.1643 -0.7272
 8547TIP3    H147056   3.096   6.389   3.750  1.3871  1.1541 -0.4497
 8547TIP3    H247057   3.192   6.404   3.867 -0.3150 -0.0189  1.1264
 8548TIP3   OH247058   0.102   3.788   6.148 -0.2999  0.0951 -0.1376
 8548TIP3    H147059   0.153   3.750   6.220 -2.8098  0.2503  1.7926
 8548TIP3    H247060   0.012   3.760   6.165 -1.5867  3.5055 -0.9388
 8549TIP3   OH247061   0.252   1.598  11.880  0.1393 -0.5695  0.0674
 8549TIP3    H147062   0.253   1.671  11.817 -2.6599  3.0619  3.9631
 8549TIP3    H247063   0.182   1.541  11.849 -2.9759  2.5102  1.1782
 8550TIP3   OH247064   3.592   3.289   0.781  0.1414 -0.2174 -0.2846
 8550TIP3    H147065   3.592   3.260   0.872  2.3121  0.8838  0.1022
 8550TIP3    H247066   3.684   3.292   0.757 -0.4439 -1.5336 -2.8860
 8551TIP3   OH247067   5.357   5.836   3.405 -0.1264  0.2888 -0.1909
 8551TIP3    H147068   5.386   5.893   3.477 -0.6025 -2.4224  2.2499
 8551TIP3    H247069   5.438   5.809   3.362  0.1155  2.6054 -1.2352
 8552TIP3   OH247070   4.390   1.676   1.743  0.5758 -0.8488  0.0826
 8552TIP3    H147071   4.412   1.752   1.691  0.4345 -0.1215  1.0634
 8552TIP3    H247072   4.379   1.710   1.832  0.0539 -1.9302  0.4466
 8553TIP3   OH247073   2.565   6.577  14.371 -0.4694  0.4450  0.5341
 8553TIP3    H147074   2.593   6.666  14.395 -0.1091  0.5044 -0.0798
 8553TIP3    H247075   2.471   6.585  14.355 -0.4453  0.7061  0.5169
 8554TIP3   OH247076   2.087   0.606   3.327  0.3189 -0.0242  0.1404
 8554TIP3    H147077   2.139   0.526   3.324 -0.0831 -0.2582 -0.6281
 8554TIP3    H247078   2.003   0.582   3.287 -0.4031  0.3359  1.4175
 8555TIP3   OH247079   5.806   4.369   1.902 -0.4843 -0.4571 -0.3587
 8555TIP3    H147080   5.744   4.314   1.950 -1.7605  1.2189 -0.0157
 8555TIP3    H247081   5.775   4.367   1.811 -0.1934 -0.7803 -0.4481
 8556TIP3   OH247082   3.416   0.998   3.664  0.1848 -0.3845  0.2026
 8556TIP3    H147083   3.363   1.054   3.721  0.7351  0.0375  0.2950
 8556TIP3    H247084   3.478   0.956   3.723  1.1185  0.4721 -0.1586
 8557TIP3   OH247085   1.847   3.011  10.898  0.5457  0.1812 -0.0433
 8557TIP3    H147086   1.825   3.082  10.837  1.4786 -0.3311 -0.9967
 8557TIP3    H247087   1.847   2.932  10.844  1.3156 -0.2917  0.6360
 8558TIP3   OH247088   6.250   2.875  17.214  0.2771 -0.1728  0.2470
 8558TIP3    H147089   6.239   2.898  17.307 -0.6626 -0.7987  0.2959
 8558TIP3    H247090   6.204   2.945  17.167  0.4770 -0.0308  0.2613
 8559TIP3   OH247091   6.044   1.682  13.085  0.4186 -0.1409  0.1172
 8559TIP3    H147092   6.121   1.677  13.142  0.8140 -1.3175 -0.5030
 8559TIP3    H247093   5.982   1.620  13.124  1.0888 -1.7452 -1.2984
 8560TIP3   OH247094   1.850   4.764  12.938  0.0024  0.2422  0.3711
 8560TIP3    H147095   1.938   4.771  12.976  0.3849  1.3958 -0.7046
 8560TIP3    H247096   1.861   4.706  12.863 -0.3315 -0.2974  0.7344
 8561TIP3   OH247097   4.855   3.296  16.750 -0.6746  0.1261 -0.3057
 8561TIP3    H147098   4.923   3.236  16.721  0.0356  0.8866 -0.2317
 8561TIP3    H247099   4.889   3.334  16.831  0.1112  2.6483 -1.7473
 8562TIP3   OH247100   0.733   1.217   1.569  0.2015  0.2546 -0.2840
 8562TIP3    H147101   0.701   1.129   1.548 -0.3284  0.3004  0.3154
 8562TIP3    H247102   0.679   1.275   1.515  0.0292  0.2580 -0.1101
 8563TIP3   OH247103   1.238   3.887   3.601  0.1985 -0.4863  0.2630
 8563TIP3    H147104   1.177   3.961   3.600 -0.6181 -1.1432 -1.8025
 8563TIP3    H247105   1.182   3.811   3.612  0.8833 -0.9339  0.6795
 8564TIP3   OH247106   4.757   3.521  15.813  0.3469 -0.3952  0.2416
 8564TIP3    H147107   4.786   3.450  15.869  1.9940  0.6491  0.7450
 8564TIP3    H247108   4.681   3.559  15.858  1.2273 -0.0154  1.4160
 8565TIP3   OH247109   0.363   3.060   4.873  0.3054  0.3811 -0.1092
 8565TIP3    H147110   0.350   3.007   4.794 -0.9792 -0.9853  0.9925
 8565TIP3    H247111   0.292   3.124   4.871 -0.8043 -0.7943  0.8341
 8566TIP3   OH247112   2.377   5.728  15.258  0.0884  0.1703  0.5085
 8566TIP3    H147113   2.377   5.756  15.166  3.5609  1.2607  0.7731
 8566TIP3    H247114   2.336   5.800  15.305 -1.2532 -0.1710 -0.1302
 8567TIP3   OH247115   4.693   3.411  10.952 -0.3837 -0.0856 -0.2246
 8567TIP3    H147116   4.735   3.454  10.878  0.9273  0.0148  0.5704
 8567TIP3    H247117   4.606   3.388  10.920  0.4144 -0.6802 -2.0396
 8568TIP3   OH247118   1.237   5.772  12.557  0.0021 -0.1353  0.2647
 8568TIP3    H147119   1.320   5.766  12.604  0.2375 -2.1773 -0.3495
 8568TIP3    H247120   1.188   5.695  12.585 -1.3275  0.5751 -0.0649
 8569TIP3   OH247121   2.089   4.117   2.261  0.2041  0.6528  0.0613
 8569TIP3    H147122   2.101   4.196   2.314 -0.5682 -0.5167  2.0262
 8569TIP3    H247123   2.061   4.050   2.323 -2.3702 -0.3599 -2.0643
 8570TIP3   OH247124   4.095   1.094  10.794  0.0794  0.1842  1.2088
 8570TIP3    H147125   4.177   1.126  10.830  0.8085 -0.9792  0.6320
 8570TIP3    H247126   4.062   1.033  10.861  0.7353 -0.9136  0.5546
 8571TIP3   OH247127   2.378   0.085  15.604  0.3290  0.8876  0.0853
 8571TIP3    H147128   2.440   0.151  15.573 -0.3034  1.0368 -0.8623
 8571TIP3    H247129   2.292   0.122  15.588 -0.0358 -0.1564 -0.4696
 8572TIP3   OH247130   5.902   0.838  16.401 -0.1233  0.3008  1.1817
 8572TIP3    H147131   5.885   0.747  16.427 -0.9002  0.9979  3.1585
 8572TIP3    H247132   5.986   0.833  16.355 -1.2197 -1.7585 -0.7095
 8573TIP3   OH247133   0.795   0.467   2.876 -0.4288 -0.1301  0.1005
 8573TIP3    H147134   0.760   0.431   2.957  0.4337 -0.1488  0.4763
 8573TIP3    H247135   0.718   0.489   2.824 -0.9813 -1.6285  0.2612
 8574TIP3   OH247136   6.100   6.200   4.169  0.3134  0.3280  0.2590
 8574TIP3    H147137   6.112   6.143   4.245 -0.5045  0.4678  0.5045
 8574TIP3    H247138   6.155   6.276   4.187  1.3991 -0.3756 -0.0663
 8575TIP3   OH247139   1.027   6.345   2.668 -0.5008  0.3499 -0.3304
 8575TIP3    H147140   1.029   6.422   2.612 -1.2512  0.7581  0.2022
 8575TIP3    H247141   0.966   6.368   2.738  0.9709  0.1397  1.0569
 8576TIP3   OH247142   2.831   3.038  11.341 -0.9452 -0.1119 -0.3128
 8576TIP3    H147143   2.867   3.114  11.295  0.2081 -1.1231 -1.1088
 8576TIP3    H247144   2.763   3.075  11.398 -0.3189  1.5309 -0.5923
 8577TIP3   OH247145   0.162   0.963   0.529  0.1231  0.1902 -0.1428
 8577TIP3    H147146   0.098   1.008   0.474 -1.1529 -1.6149 -0.1793
 8577TIP3    H247147   0.109   0.917   0.594  1.1076 -4.1422 -2.2308
 8578TIP3   OH247148   5.609   0.580  13.793 -0.8943 -0.5958  0.2881
 8578TIP3    H147149   5.582   0.490  13.776 -0.1406 -1.0698  1.4919
 8578TIP3    H247150   5.606   0.588  13.889 -0.3114  0.4440  0.2254
 8579TIP3   OH247151   5.764   3.720  13.595  0.5716  0.1304 -0.0835
 8579TIP3    H147152   5.736   3.693  13.682 -1.7927 -1.0857 -1.1719
 8579TIP3    H247153   5.851   3.682  13.584  1.9826  2.4098  2.6739
 8580TIP3   OH247154   2.599   3.694  11.429  0.2418 -0.1421  0.1342
 8580TIP3    H147155   2.540   3.728  11.363 -0.3768  1.2609  1.3786
 8580TIP3    H247156   2.635   3.771  11.472 -0.2912 -1.0006  2.2248
 8581TIP3   OH247157   4.123   5.623  13.194 -0.0384 -0.8151  0.2427
 8581TIP3    H147158   4.191   5.679  13.231 -1.3231 -0.8140  2.7186
 8581TIP3    H247159   4.059   5.684  13.156  1.4640 -0.8254 -2.4256
 8582TIP3   OH247160   3.381   5.650   4.155 -0.4731 -0.1061  0.2412
 8582TIP3    H147161   3.459   5.604   4.126  0.4818  0.7462  1.4363
 8582TIP3    H247162   3.353   5.604   4.233 -1.8444 -1.1121 -0.8174
 8583TIP3   OH247163   2.061   4.308  14.535 -0.1844  0.6905 -0.2140
 8583TIP3    H147164   2.010   4.388  14.527  0.5616  1.0558 -1.5407
 8583TIP3    H247165   2.142   4.334  14.578 -0.4301  0.4261  0.4121
 8584TIP3   OH247166   1.229   3.915  16.197  0.2966 -0.2810 -0.2505
 8584TIP3    H147167   1.315   3.945  16.227 -0.5478  1.3124  0.6570
 8584TIP3    H247168   1.172   3.929  16.272 -0.9436 -0.4479 -1.1571
 8585TIP3   OH247169   1.762   1.021  14.422 -0.2795  0.0851  0.3531
 8585TIP3    H147170   1.725   1.108  14.411  0.4504  0.1610 -1.6492
 8585TIP3    H247171   1.686   0.962  14.417 -0.6567  0.5343  0.7619
 8586TIP3   OH247172   4.225   4.940  14.259 -0.2762 -0.2135 -0.2041
 8586TIP3    H147173   4.194   4.887  14.185 -2.1105 -1.7317  1.5602
 8586TIP3    H247174   4.301   4.892  14.293 -0.1919 -0.1924 -0.3648
 8587TIP3   OH247175   3.120   1.329   4.823 -0.2981  0.1563 -0.7137
 8587TIP3    H147176   3.108   1.303   4.732  0.5282 -0.8426 -0.5447
 8587TIP3    H247177   3.163   1.415   4.817  1.6485 -0.8235 -1.2787
 8588TIP3   OH247178   0.796   6.182   4.021 -0.3572  0.0125 -0.4416
 8588TIP3    H147179   0.766   6.271   4.000 -1.2502 -0.3856 -0.8549
 8588TIP3    H247180   0.720   6.140   4.060  0.4534 -0.1654  0.9852
 8589TIP3   OH247181   5.078   5.938  10.549  0.2192 -0.6054  0.2230
 8589TIP3    H147182   5.109   5.874  10.485 -0.2614 -0.6606  0.0457
 8589TIP3    H247183   5.135   5.925  10.625 -0.2715 -1.6740  0.4241
 8590TIP3   OH247184   0.382   3.198  13.379 -0.0448  0.3869 -0.3808
 8590TIP3    H147185   0.348   3.109  13.373  0.3191  0.3216 -1.8778
 8590TIP3    H247186   0.377   3.230  13.289  1.1210  1.3923 -0.0873
 8591TIP3   OH247187   1.409   5.495   5.051 -0.1594 -0.2022 -0.3295
 8591TIP3    H147188   1.331   5.466   5.004 -0.3357 -0.5700  0.1786
 8591TIP3    H247189   1.479   5.490   4.986 -0.4313 -0.5237 -0.6048
 8592TIP3   OH247190   0.075   4.644  16.285 -0.4342 -0.6780  0.0311
 8592TIP3    H147191   0.128   4.643  16.205  1.9280 -0.7685  1.5618
 8592TIP3    H247192   0.034   4.558  16.287  0.8778 -1.3244 -0.1988
 8593TIP3   OH247193   2.520   3.398   3.793 -0.4065  0.0598  0.0284
 8593TIP3    H147194   2.577   3.459   3.839 -1.3327  0.3598  0.7638
 8593TIP3    H247195   2.437   3.443   3.784 -0.1229  0.1956 -2.3593
 8594TIP3   OH247196   1.231   6.215  17.008  0.1686  0.6322 -0.5465
 8594TIP3    H147197   1.214   6.201  16.915 -0.4273  2.1783 -0.6774
 8594TIP3    H247198   1.324   6.195  17.019  0.3359  0.8433 -1.5502
 8595TIP3   OH247199   1.549   5.169  16.350 -0.5274  0.5024  0.0645
 8595TIP3    H147200   1.514   5.122  16.274 -0.9186  1.1482 -0.1579
 8595TIP3    H247201   1.614   5.229  16.313 -1.5080  1.6055  0.1134
 8596TIP3   OH247202   5.697   5.331  13.247  0.3414  0.2694  0.0616
 8596TIP3    H147203   5.646   5.328  13.328 -0.5676  0.4923 -0.4846
 8596TIP3    H247204   5.639   5.292  13.181  0.8153  0.6655 -0.5992
 8597TIP3   OH247205   3.823   3.925  16.507  0.4968  0.5594 -0.2828
 8597TIP3    H147206   3.782   3.878  16.434 -1.0560  2.0878 -0.4325
 8597TIP3    H247207   3.898   3.969  16.468  0.3203  0.4604 -0.7435
 8598TIP3   OH247208   4.026   1.779  13.074 -0.2714  0.1203  0.5646
 8598TIP3    H147209   4.096   1.821  13.025 -0.5777  0.7430  0.6535
 8598TIP3    H247210   3.976   1.730  13.009 -0.4658  0.6542  0.3095
 8599TIP3   OH247211   6.508   4.695   3.212  0.2666  0.1663 -0.1776
 8599TIP3    H147212   6.597   4.691   3.175 -0.2301  1.2693 -1.5284
 8599TIP3    H247213   6.479   4.603   3.213  2.5334 -0.6130  3.1423
 8600TIP3   OH247214   5.679   3.263  14.637  0.7755  0.2222  0.5931
 8600TIP3    H147215   5.602   3.227  14.594  1.1428  1.7029 -1.4384
 8600TIP3    H247216   5.727   3.187  14.670 -1.2335 -0.7347  1.3443
 8601TIP3   OH247217   0.859   3.623   4.517 -0.2193  0.7380 -0.0955
 8601TIP3    H147218   0.933   3.615   4.456  0.0293  0.3941  0.2501
 8601TIP3    H247219   0.832   3.533   4.534 -0.6015  0.8560 -0.0775
 8602TIP3   OH247220   1.849   2.568   0.953 -0.0687  0.4882 -0.7401
 8602TIP3    H147221   1.777   2.520   0.912 -0.2686  0.9447 -0.9286
 8602TIP3    H247222   1.838   2.658   0.922 -0.0906  0.7915  0.1333
 8603TIP3   OH247223   6.312   1.649   0.905  0.2934  0.1583 -0.5589
 8603TIP3    H147224   6.357   1.569   0.877 -2.2141 -0.9280 -1.6230
 8603TIP3    H247225   6.294   1.697   0.824  1.5705  1.7247  0.0514
 8604TIP3   OH247226   4.817   5.481  12.097 -0.5253  0.1227  0.2486
 8604TIP3    H147227   4.789   5.446  12.013  0.1368 -1.5741  0.7225
 8604TIP3    H247228   4.909   5.504  12.084 -0.4051 -0.1980  0.5350
 8605TIP3   OH247229   4.491   1.453  13.488  0.1548 -0.3967 -0.2512
 8605TIP3    H147230   4.413   1.478  13.539  0.2338  1.4489 -0.9782
 8605TIP3    H247231   4.539   1.535  13.478  0.4977 -0.8708 -2.6912
 8606TIP3   OH247232   0.720   5.757  11.456 -0.1633 -0.1541  0.3364
 8606TIP3    H147233   0.777   5.825  11.419 -1.2152  0.9022  0.6204
 8606TIP3    H247234   0.731   5.683  11.396  3.1207 -0.7522  1.5638
 8607TIP3   OH247235   6.496   4.742   1.929 -0.1464  0.8732 -0.5420
 8607TIP3    H147236   6.502   4.779   1.841 -1.3943  0.0081 -0.9922
 8607TIP3    H247237   6.403   4.743   1.949 -0.0095 -0.3627  0.1672
 8608TIP3   OH247238   0.761   0.549   1.280 -0.0605 -0.1364 -0.4241
 8608TIP3    H147239   0.778   0.615   1.212  0.6697  0.4617  0.3296
 8608TIP3    H247240   0.811   0.473   1.251  0.9212  0.3919 -0.1418
 8609TIP3   OH247241   5.412   4.145  11.689 -0.6795 -0.2842  0.0654
 8609TIP3    H147242   5.319   4.167  11.684 -0.4386  0.8516  0.4196
 8609TIP3    H247243   5.451   4.215  11.740  0.1848 -1.4042  0.9755
 8610TIP3   OH247244   2.426   6.129  11.781 -0.3210 -0.3257  0.2166
 8610TIP3    H147245   2.354   6.134  11.718  0.2755 -1.2447 -0.5497
 8610TIP3    H247246   2.387   6.159  11.863 -1.0368  1.0965 -0.6300
 8611TIP3   OH247247   5.143   2.245  14.978  0.0858  0.3968 -0.2757
 8611TIP3    H147248   5.201   2.260  14.903 -0.3840  1.9807 -0.3445
 8611TIP3    H247249   5.199   2.256  15.054  0.2168  0.3805 -0.3686
 8612TIP3   OH247250   6.186   6.624   2.649  0.3533  0.3709  0.1824
 8612TIP3    H147251   6.281   6.627   2.639  0.2188  1.4663 -0.8381
 8612TIP3    H247252   6.172   6.617   2.743  1.4560 -0.3244  0.2987
 8613TIP3   OH247253   5.193   4.055   4.533  0.3977 -0.2101 -0.1286
 8613TIP3    H147254   5.262   4.026   4.473 -0.7332 -0.4853 -1.3136
 8613TIP3    H247255   5.112   4.023   4.494 -0.3840 -0.2095  1.4414
 8614TIP3   OH247256   6.152   5.774  14.410 -0.2074 -0.5297  0.0977
 8614TIP3    H147257   6.169   5.764  14.317 -1.3206  0.8275 -0.2607
 8614TIP3    H247258   6.057   5.784  14.416 -0.0372  0.4302  1.2874
 8615TIP3   OH247259   4.687   0.032  12.592  0.4972 -0.1642  0.0599
 8615TIP3    H147260   4.756   0.034  12.658 -0.1898  3.0319  0.7460
 8615TIP3    H247261   4.723   0.081  12.518  0.9661 -3.0511 -1.7314
 8616TIP3   OH247262   0.301   2.821  14.582 -0.2399 -1.2350  0.1663
 8616TIP3    H147263   0.238   2.894  14.584  1.8036  0.6109 -0.7926
 8616TIP3    H247264   0.363   2.842  14.652  2.1773 -0.3358 -2.1859
 8617TIP3   OH247265   4.692   4.266   2.815 -0.0321 -0.3362  0.4450
 8617TIP3    H147266   4.741   4.185   2.801 -0.1718 -0.2263 -0.7277
 8617TIP3    H247267   4.608   4.236   2.851 -0.9685 -0.9239 -2.1168
 8618TIP3   OH247268   2.175   2.681   4.653 -0.3831  0.4439  0.1994
 8618TIP3    H147269   2.147   2.599   4.614  0.2045 -0.3832  1.4923
 8618TIP3    H247270   2.214   2.730   4.580 -0.9363 -0.3119 -0.6184
 8619TIP3   OH247271   4.893   3.636   5.506 -0.5615 -0.3830  0.1341
 8619TIP3    H147272   4.861   3.710   5.558  1.6652  1.0330 -0.4664
 8619TIP3    H247273   4.923   3.572   5.571  0.0567  0.4023  0.6285
 8620TIP3   OH247274   5.556   2.471  16.937  0.0427  0.2129 -0.8012
 8620TIP3    H147275   5.503   2.546  16.908 -0.7647 -0.5395 -1.2840
 8620TIP3    H247276   5.497   2.418  16.990  0.8990  0.4215  0.3897
 8621TIP3   OH247277   1.077   2.442   4.839  0.0941 -0.2980 -0.1975
 8621TIP3    H147278   1.084   2.459   4.933  1.7312 -0.4923 -0.2830
 8621TIP3    H247279   1.005   2.380   4.831 -1.8050  1.7290  0.6806
 8622TIP3   OH247280   6.256   2.566   5.726  0.3661  0.0231 -0.1476
 8622TIP3    H147281   6.302   2.621   5.663  0.0691 -0.6723 -0.9829
 8622TIP3    H247282   6.166   2.563   5.694 -0.2225  1.1577  1.3327
 8623TIP3   OH247283   4.353   2.109   0.165  0.2840 -0.3098  0.1296
 8623TIP3    H147284   4.416   2.041   0.190  0.8253 -0.6957 -2.1472
 8623TIP3    H247285   4.269   2.064   0.159  0.3552 -0.4470  0.1688
 8624TIP3   OH247286   5.338   4.933  15.406  0.1148 -0.4713  0.4107
 8624TIP3    H147287   5.343   4.847  15.447 -0.9481 -0.5033  0.4821
 8624TIP3    H247288   5.429   4.962  15.400  0.3945 -1.1343  1.3658
 8625TIP3   OH247289   4.192   6.479  12.476 -0.1056 -0.3953 -0.2438
 8625TIP3    H147290   4.244   6.560  12.476 -0.6625 -0.0320 -0.9024
 8625TIP3    H247291   4.257   6.409  12.471  0.3391  0.0569 -0.9240
 8626TIP3   OH247292   4.724   5.048   3.787  0.6074  0.0147 -0.2516
 8626TIP3    H147293   4.740   4.957   3.763 -1.1382 -0.4535  0.2305
 8626TIP3    H247294   4.808   5.082   3.817  0.8903 -1.9834  1.2882
 8627TIP3   OH247295   0.499   4.740   0.146 -0.1850 -0.1244  0.2097
 8627TIP3    H147296   0.437   4.717   0.076  0.6295  0.7303 -0.8039
 8627TIP3    H247297   0.545   4.658   0.164  2.0251  0.3873 -2.7177
 8628TIP3   OH247298   2.980   0.589   2.184  0.1347 -0.5721  0.2262
 8628TIP3    H147299   2.895   0.631   2.195  0.3452  0.1863 -0.8940
 8628TIP3    H247300   3.038   0.634   2.246 -0.0205 -0.3282  0.1931
 8629TIP3   OH247301   4.638   2.291   2.477 -0.6518 -0.2499  0.1699
 8629TIP3    H147302   4.651   2.372   2.429  1.2830 -1.2813 -1.1137
 8629TIP3    H247303   4.724   2.269   2.512 -1.5635 -0.7278  2.1926
 8630TIP3   OH247304   1.243   2.333  11.457  0.5116 -0.4376  0.1422
 8630TIP3    H147305   1.170   2.391  11.436  0.5110 -0.0300  1.2113
 8630TIP3    H247306   1.252   2.276  11.381 -1.8799 -1.4942  0.6006
 8631TIP3   OH247307   5.142   3.691   2.664 -0.0293 -0.0160  0.1030
 8631TIP3    H147308   5.220   3.731   2.704  0.2522 -0.9525  0.4997
 8631TIP3    H247309   5.071   3.752   2.684  0.5670  0.7568 -0.1071
 8632TIP3   OH247310   0.923   2.688   2.381 -0.3898 -0.3635  0.7395
 8632TIP3    H147311   1.007   2.723   2.353 -0.3474 -0.7892  0.3272
 8632TIP3    H247312   0.909   2.725   2.468  0.2492 -0.3348  0.8302
 8633TIP3   OH247313   5.508   0.843  13.726  0.4370  0.4048  0.3144
 8633TIP3    H147314   5.440   0.828  13.660  1.1057  1.6980 -0.6922
 8633TIP3    H247315   5.509   0.762  13.778 -1.7227  0.2781  0.2289
 8634TIP3   OH247316   0.806   4.217  13.284 -0.3363 -0.3527  0.0438
 8634TIP3    H147317   0.843   4.273  13.215  0.2655 -0.3515  0.3605
 8634TIP3    H247318   0.882   4.170  13.319 -1.0131 -2.2394 -1.0035
 8635TIP3   OH247319   2.441   6.611  16.651  0.2940 -0.0873 -0.0239
 8635TIP3    H147320   2.368   6.585  16.593 -0.3333 -2.0974  1.5841
 8635TIP3    H247321   2.519   6.586  16.603 -0.0765  1.3865 -1.4483
 8636TIP3   OH247322   3.328   3.359  13.684 -0.1331 -0.7093  0.3376
 8636TIP3    H147323   3.367   3.297  13.623 -0.2263 -2.0397  1.6135
 8636TIP3    H247324   3.399   3.418  13.706  0.3368 -1.2340  0.2343
 8637TIP3   OH247325   4.834   3.278  15.909 -0.0623  0.0247  0.0201
 8637TIP3    H147326   4.760   3.237  15.954 -0.5466  1.1841  0.2898
 8637TIP3    H247327   4.849   3.223  15.832 -0.4932 -0.8408  0.5436
 8638TIP3   OH247328   4.124   2.699   0.252  0.3204 -0.0254  0.6001
 8638TIP3    H147329   4.119   2.696   0.347  0.4017 -0.8554  0.5847
 8638TIP3    H247330   4.197   2.642   0.229 -0.9964 -1.5281 -0.0507
 8639TIP3   OH247331   3.365   3.686  11.369 -0.1608  0.1056 -0.2415
 8639TIP3    H147332   3.397   3.597  11.385  0.1149  0.0939 -0.8625
 8639TIP3    H247333   3.371   3.729  11.455  0.7979 -0.1263 -0.1860
 8640TIP3   OH247334   4.961   5.065  16.770 -0.8483 -0.2057 -0.2074
 8640TIP3    H147335   4.991   5.153  16.794 -0.9392 -0.8812  2.5044
 8640TIP3    H247336   5.032   5.030  16.717 -0.8708  1.5355 -1.4407
 8641TIP3   OH247337   0.666   5.216  15.840 -0.7059  0.3163  0.0429
 8641TIP3    H147338   0.624   5.143  15.887 -1.2981 -1.0699 -2.5828
 8641TIP3    H247339   0.618   5.294  15.870 -1.6857 -0.6426  1.0340
 8642TIP3   OH247340   2.347   1.788  16.879 -0.1985 -0.2046 -0.7390
 8642TIP3    H147341   2.268   1.839  16.898 -0.6391 -0.8782 -0.7275
 8642TIP3    H247342   2.412   1.853  16.854 -0.4023  0.4657  0.4264
 8643TIP3   OH247343   0.951   3.587   0.629  0.1777 -0.4754  0.2902
 8643TIP3    H147344   1.005   3.565   0.552 -1.3646  1.3778 -1.3952
 8643TIP3    H247345   0.901   3.664   0.601 -0.6096  0.0835  3.1011
 8644TIP3   OH247346   1.643   3.309  14.009 -0.6653  0.8967  0.4628
 8644TIP3    H147347   1.722   3.364  14.014 -0.7051  0.9330  0.7376
 8644TIP3    H247348   1.581   3.361  13.958  0.2341 -0.0658 -1.6534
 8645TIP3   OH247349   4.315   6.436   4.258 -0.4675 -0.9545 -0.9242
 8645TIP3    H147350   4.396   6.438   4.207 -1.0102 -1.4493 -1.8300
 8645TIP3    H247351   4.328   6.367   4.323  0.8406  0.7460  0.6635
 8646TIP3   OH247352   3.211   0.682   6.390 -0.0123  0.2540  0.0768
 8646TIP3    H147353   3.124   0.653   6.361  0.2928  0.1366 -0.7489
 8646TIP3    H247354   3.268   0.607   6.372  0.1539  0.1024  1.1985
 8647TIP3   OH247355   0.723   4.227  10.842 -0.3585  0.9218 -0.1912
 8647TIP3    H147356   0.718   4.135  10.819 -0.7125  1.0055 -0.4523
 8647TIP3    H247357   0.646   4.242  10.897  0.9695  0.5005  1.8379
 8648TIP3   OH247358   1.499   5.633  16.194 -0.4214  0.0482 -0.1343
 8648TIP3    H147359   1.550   5.711  16.216  0.4375 -1.0052  1.7413
 8648TIP3    H247360   1.529   5.609  16.106  1.5919  0.0463  0.5312
 8649TIP3   OH247361   5.647   3.547   4.249  0.3963  0.8612  0.3610
 8649TIP3    H147362   5.595   3.615   4.206 -0.0830  1.6599  2.1961
 8649TIP3    H247363   5.587   3.473   4.260  0.8723  0.1446 -1.4803
 8650TIP3   OH247364   5.666   1.799   6.414 -0.4679 -0.4095 -0.2069
 8650TIP3    H147365   5.681   1.886   6.378 -0.0769 -0.5211 -0.3216
 8650TIP3    H247366   5.748   1.777   6.458  0.2628 -1.6549 -2.1229
 8651TIP3   OH247367   4.657   0.957   5.425  0.6644  0.6564  0.4061
 8651TIP3    H147368   4.662   0.991   5.514 -1.1617  2.2564 -0.0515
 8651TIP3    H247369   4.634   0.865   5.435 -1.4547  1.2830  1.5807
 8652TIP3   OH247370   5.721   1.343  10.926  0.3767  0.2217  0.5991
 8652TIP3    H147371   5.775   1.421  10.911 -0.8543  1.6213  2.9878
 8652TIP3    H247372   5.658   1.343  10.854  1.5976  0.3125 -0.4920
 8653TIP3   OH247373   4.506   1.481   5.529 -0.1890  0.0173 -0.3772
 8653TIP3    H147374   4.579   1.498   5.589 -0.1398 -0.0548 -0.4183
 8653TIP3    H247375   4.535   1.407   5.476 -0.2271  0.0929 -0.5024
 8654TIP3   OH247376   4.694   5.900  12.460 -0.2670 -0.5758  0.3060
 8654TIP3    H147377   4.681   5.937  12.548 -1.3905 -0.7728  0.2315
 8654TIP3    H247378   4.620   5.840  12.449  0.0772 -0.8253 -0.6344
 8655TIP3   OH247379   0.391   0.036   4.517 -0.2459 -0.2952 -0.2495
 8655TIP3    H147380   0.315   0.027   4.459  0.6885  0.4043 -1.6138
 8655TIP3    H247381   0.431   0.118   4.490  0.3175 -0.0648  1.2787
 8656TIP3   OH247382   0.080   1.353  14.980  0.2486 -0.0319 -0.2872
 8656TIP3    H147383   0.068   1.259  14.991  1.9665 -0.1668  0.7083
 8656TIP3    H247384   0.002   1.382  14.934  0.4428 -2.2257 -2.1117
 8657TIP3   OH247385   3.858   6.467   5.254  0.0862 -0.1311 -0.4771
 8657TIP3    H147386   3.766   6.482   5.233  0.0151 -0.2800 -0.2703
 8657TIP3    H247387   3.898   6.554   5.250 -0.1667  0.0056 -0.0612
 8658TIP3   OH247388   4.321   0.832   1.194  0.1260 -0.1164 -0.2831
 8658TIP3    H147389   4.297   0.920   1.221  0.3891  0.3703 -1.6256
 8658TIP3    H247390   4.256   0.808   1.128 -0.0888 -1.0266  0.2396
 8659TIP3   OH247391   1.123   5.320   1.891 -0.1335 -0.3256  0.2352
 8659TIP3    H147392   1.117   5.262   1.966  1.0687 -0.7341  0.0329
 8659TIP3    H247393   1.214   5.353   1.893  0.3432 -1.4484 -1.8225
 8660TIP3   OH247394   5.539   4.474  11.706  0.1424  0.2705 -0.4349
 8660TIP3    H147395   5.462   4.475  11.649  0.1847  0.3243 -0.4926
 8660TIP3    H247396   5.612   4.455  11.647  0.3896  1.8173 -0.6644
 8661TIP3   OH247397   2.659   2.395  14.933 -0.3862 -0.0486  0.0090
 8661TIP3    H147398   2.640   2.436  14.849 -0.3738  0.4604  0.2495
 8661TIP3    H247399   2.585   2.419  14.989  0.4181  1.0390  0.6331
 8662TIP3   OH247400   2.291   4.180   1.002  0.3621 -0.2232 -0.4035
 8662TIP3    H147401   2.337   4.096   1.008  1.2463  0.2125 -0.9167
 8662TIP3    H247402   2.357   4.241   0.968  0.5662  1.3454  2.6421
 8663TIP3   OH247403   1.015   4.332   2.145 -0.3049 -0.3105  0.0475
 8663TIP3    H147404   0.949   4.289   2.200 -0.6381 -2.4933 -1.9724
 8663TIP3    H247405   0.975   4.415   2.120 -1.8413 -1.0942 -0.1745
 8664TIP3   OH247406   5.073   1.680  13.325 -0.2117  0.6894  0.6551
 8664TIP3    H147407   5.016   1.707  13.253  0.7492 -1.3753 -0.9442
 8664TIP3    H247408   5.013   1.660  13.397 -1.3780  0.2605 -0.4243
 8665TIP3   OH247409   4.891   3.582  14.248  0.4922  0.2217 -0.1082
 8665TIP3    H147410   4.852   3.577  14.335  1.9190 -1.3932  0.4467
 8665TIP3    H247411   4.932   3.668  14.245  1.0062  0.0241  1.0546
 8666TIP3   OH247412   6.533   5.539  11.494 -0.2479  0.3096 -0.1227
 8666TIP3    H147413   6.438   5.537  11.484 -0.0826 -2.5886 -1.6335
 8666TIP3    H247414   6.554   5.458  11.541  1.4310  1.1954  0.6978
 8667TIP3   OH247415   0.284   0.612  13.259 -0.6895 -0.0423 -0.3696
 8667TIP3    H147416   0.325   0.654  13.334 -1.9773 -0.9229  0.8389
 8667TIP3    H247417   0.352   0.611  13.192  1.5163 -2.2186  1.8397
 8668TIP3   OH247418   5.006   2.194  13.951 -0.1362 -0.1119  0.2703
 8668TIP3    H147419   5.010   2.264  14.017 -0.2960  0.7503 -0.6267
 8668TIP3    H247420   4.951   2.229  13.881  2.0800 -0.0210 -1.4910
 8669TIP3   OH247421   0.784   0.669   4.828 -0.3285  0.4357 -0.5544
 8669TIP3    H147422   0.754   0.620   4.751 -0.7101 -2.6517  1.4699
 8669TIP3    H247423   0.879   0.658   4.828 -0.5914 -2.2751  1.0930
 8670TIP3   OH247424   5.902   2.306  12.735  0.2089 -0.2783  0.3800
 8670TIP3    H147425   5.898   2.366  12.810 -1.7045  0.9399 -0.6480
 8670TIP3    H247426   5.994   2.280  12.730  0.8457  1.5973  1.6476
 8671TIP3   OH247427   1.378   0.522   4.046 -0.4529 -0.0457 -0.1959
 8671TIP3    H147428   1.350   0.581   4.116  0.1702  1.0899 -0.8713
 8671TIP3    H247429   1.409   0.581   3.977  1.0852 -1.1932 -0.5165
 8672TIP3   OH247430   0.642   2.723   5.280 -0.0090  0.0886  0.0605
 8672TIP3    H147431   0.588   2.776   5.340 -0.3699  1.0164 -1.0592
 8672TIP3    H247432   0.641   2.772   5.198  0.2922 -1.2853 -0.7795
 8673TIP3   OH247433   3.910   6.544   2.594  0.2620  0.1570  0.1383
 8673TIP3    H147434   3.911   6.637   2.570  1.0779  0.3358  0.8268
 8673TIP3    H247435   3.990   6.532   2.646 -1.0998 -0.3558  2.2059
 8674TIP3   OH247436   6.041   6.288   4.675  0.1026  0.1511  0.2733
 8674TIP3    H147437   5.995   6.241   4.606  0.0507 -0.0253  0.4273
 8674TIP3    H247438   6.019   6.240   4.755 -0.5826  0.8920  0.5387
 8675TIP3   OH247439   1.508   4.686   0.493  0.0680 -0.1578  0.2571
 8675TIP3    H147440   1.413   4.686   0.494  0.0356  1.0150 -1.5963
 8675TIP3    H247441   1.532   4.624   0.424  0.6499 -0.3785  0.6460
 8676TIP3   OH247442   4.464   0.156  14.169 -0.5710  0.4211  0.7180
 8676TIP3    H147443   4.419   0.083  14.127  0.8922 -1.0082  1.5300
 8676TIP3    H247444   4.446   0.144  14.263 -1.0248  1.5960  0.7819
 8677TIP3   OH247445   4.418   0.239   4.557  0.0299  0.0515 -0.3576
 8677TIP3    H147446   4.411   0.246   4.653  0.5623 -0.3333 -0.2891
 8677TIP3    H247447   4.401   0.327   4.525  0.5583  0.3376  0.1365
 8678TIP3   OH247448   1.074   3.996   5.649  0.1125 -0.5259  0.5340
 8678TIP3    H147449   1.144   3.987   5.713 -0.4205 -0.2856  1.1594
 8678TIP3    H247450   1.110   4.052   5.581 -0.1055  1.1591  1.7805
 8679TIP3   OH247451   4.408   2.117  10.473 -0.6901 -0.2114  0.3023
 8679TIP3    H147452   4.494   2.143  10.438 -0.4489  0.3964  1.3160
 8679TIP3    H247453   4.347   2.136  10.403 -0.1597  0.6131  0.0585
 8680TIP3   OH247454   3.333   1.633  13.110 -0.3581  0.0135  0.1217
 8680TIP3    H147455   3.294   1.597  13.190 -1.1709  2.4434  0.8648
 8680TIP3    H247456   3.268   1.616  13.042 -1.5152  1.5734  0.8060
 8681TIP3   OH247457   0.718   0.836  15.739 -0.1241  0.4099  0.2384
 8681TIP3    H147458   0.769   0.755  15.737  0.4356  0.7613  0.2724
 8681TIP3    H247459   0.703   0.858  15.647  1.4736  1.3664  0.1944
 8682TIP3   OH247460   4.594   4.024   5.814 -0.4388  0.4554 -0.1941
 8682TIP3    H147461   4.536   3.965   5.862  0.6246  0.4302  1.0796
 8682TIP3    H247462   4.619   3.975   5.736  0.6498 -0.9078  0.9772
 8683TIP3   OH247463   6.105   2.811   3.512  0.6678  0.2430 -0.0456
 8683TIP3    H147464   6.199   2.796   3.503  0.5192 -0.9172  0.3618
 8683TIP3    H247465   6.076   2.748   3.578 -0.5610 -0.0404 -0.8351
 8684TIP3   OH247466   4.014   3.419  13.915  0.2163 -1.0524 -0.1835
 8684TIP3    H147467   3.973   3.398  13.832  0.4706  1.9769 -1.1398
 8684TIP3    H247468   3.944   3.462  13.966  1.0739  0.5162 -0.3042
 8685TIP3   OH247469   6.726   2.328   6.046 -0.5012  0.4577  0.0432
 8685TIP3    H147470   6.642   2.374   6.042 -1.2456 -0.6500  2.1386
 8685TIP3    H247471   6.791   2.394   6.023 -1.7686  1.8738  0.4823
 8686TIP3   OH247472   1.145   3.104  16.284  0.3875 -0.0442  0.1255
 8686TIP3    H147473   1.072   3.159  16.255  0.2385 -1.0926 -1.6143
 8686TIP3    H247474   1.200   3.095  16.206  1.4947 -0.6500  0.9641
 8687TIP3   OH247475   0.114   5.900   6.493 -0.3462  0.1370 -0.3738
 8687TIP3    H147476   0.037   5.870   6.444 -1.6400  2.6731  0.0047
 8687TIP3    H247477   0.184   5.905   6.427 -1.1923  0.2622 -1.2661
 8688TIP3   OH247478   2.871   5.212  13.801 -0.3954  0.3624 -0.2140
 8688TIP3    H147479   2.838   5.228  13.889  0.4182  0.1326  0.1423
 8688TIP3    H247480   2.837   5.126  13.778  0.9870 -0.4390  0.6647
 8689TIP3   OH247481   5.172   2.803  15.271 -0.2394  0.4105  0.2468
 8689TIP3    H147482   5.254   2.829  15.229 -0.6036  0.5732 -0.3692
 8689TIP3    H247483   5.118   2.771  15.200 -0.5322 -0.1702  0.7272
 8690TIP3   OH247484   3.746   0.547   0.563 -0.2270 -0.2715  0.2364
 8690TIP3    H147485   3.719   0.471   0.615 -0.6330 -0.9312 -0.9172
 8690TIP3    H247486   3.841   0.535   0.551 -0.3668 -0.8406 -0.3265
 8691TIP3   OH247487   3.846   1.735   4.166  0.3295 -0.5829 -0.0503
 8691TIP3    H147488   3.766   1.729   4.218  1.8540 -2.0725  2.2408
 8691TIP3    H247489   3.910   1.776   4.225  1.4783 -0.2149 -1.5269
 8692TIP3   OH247490   1.083   2.282  13.789 -0.6757 -0.1943 -0.8579
 8692TIP3    H147491   1.020   2.292  13.718 -0.4725  0.4267 -0.9554
 8692TIP3    H247492   1.032   2.248  13.862 -0.6061 -2.2569 -1.7461
 8693TIP3   OH247493   2.186   4.449   0.814 -0.5195  0.1869 -0.2273
 8693TIP3    H147494   2.186   4.455   0.718 -1.6581 -0.5033 -0.2807
 8693TIP3    H247495   2.120   4.382   0.833  1.1344 -1.1331  0.9506
 8694TIP3   OH247496   0.639   5.778   2.801 -0.0741  0.2411 -0.8067
 8694TIP3    H147497   0.720   5.790   2.751 -0.2409 -1.4931 -1.5472
 8694TIP3    H247498   0.576   5.748   2.736 -1.0654  0.6924 -0.0596
 8695TIP3   OH247499   1.088   6.756  17.121 -0.5856 -0.1719 -0.1108
 8695TIP3    H147500   1.134   6.691  17.068  1.2695 -0.7139  2.1079
 8695TIP3    H247501   1.136   6.837  17.107 -0.2692 -0.2512  0.5318
 8696TIP3   OH247502   0.079   2.648   0.379  0.0851  0.2118 -0.0528
 8696TIP3    H147503   0.085   2.725   0.437 -0.9124  1.3794 -1.4489
 8696TIP3    H247504  -0.006   2.609   0.401  0.4585 -0.3217  0.4466
 8697TIP3   OH247505   4.402   4.183   5.605 -0.8048 -0.4189 -0.0445
 8697TIP3    H147506   4.447   4.216   5.683 -0.2840 -0.1827 -0.4384
 8697TIP3    H247507   4.471   4.140   5.554 -0.8939  0.4814 -0.9386
 8698TIP3   OH247508   5.961   6.333   1.485  0.0906  0.2041  0.3340
 8698TIP3    H147509   6.013   6.253   1.494 -0.3352 -0.1310 -0.1672
 8698TIP3    H247510   6.010   6.399   1.535  0.0228 -0.5519  1.4014
 8699TIP3   OH247511   1.999   0.786   0.208 -0.2593 -0.0567 -0.5903
 8699TIP3    H147512   2.068   0.721   0.197 -0.5852 -0.2130 -1.9103
 8699TIP3    H247513   1.931   0.741   0.259  0.9995  0.4133  1.5559
 8700TIP3   OH247514   5.413   1.126  12.907 -0.4813 -0.0309  0.6542
 8700TIP3    H147515   5.473   1.055  12.929 -2.6772 -2.5746 -1.1428
 8700TIP3    H247516   5.381   1.157  12.991  1.7915  0.0113  1.5412
 8701TIP3   OH247517   5.620   6.500  16.601 -0.1352 -0.0340 -0.2759
 8701TIP3    H147518   5.667   6.460  16.528  0.3230  0.8244 -0.4651
 8701TIP3    H247519   5.601   6.428  16.660 -0.0991 -0.6642 -1.0256
 8702TIP3   OH247520   3.698   6.251   0.075 -0.4252 -0.5584 -0.2229
 8702TIP3    H147521   3.643   6.173   0.065 -1.4032  0.1246 -0.2586
 8702TIP3    H247522   3.669   6.310   0.005  0.8656 -0.4873 -0.7047
 8703TIP3   OH247523   3.786   4.183  11.441  0.0329  0.1085 -0.0558
 8703TIP3    H147524   3.774   4.091  11.464 -1.3514  0.1671 -0.5031
 8703TIP3    H247525   3.760   4.188  11.349  2.3972  0.4992 -0.7462
 8704TIP3   OH247526   1.668   1.516   5.967 -0.4865  0.0333 -0.3629
 8704TIP3    H147527   1.636   1.602   5.995 -0.4828 -0.4209  1.0722
 8704TIP3    H247528   1.609   1.453   6.009 -1.8818 -0.6445 -3.2065
 8705TIP3   OH247529   5.313   1.292  15.366  0.1478  0.4934 -0.2221
 8705TIP3    H147530   5.380   1.337  15.315  1.8385 -1.6717 -0.0107
 8705TIP3    H247531   5.323   1.326  15.455 -0.3736  1.6267 -0.5918
 8706TIP3   OH247532   6.172   4.130   2.673 -0.0754  0.6405  0.0338
 8706TIP3    H147533   6.079   4.152   2.667  0.2283  2.0481  0.3960
 8706TIP3    H247534   6.211   4.202   2.723  1.0827 -0.3049  0.5187
 8707TIP3   OH247535   3.363   3.411   1.256  0.0221  0.0867 -0.3760
 8707TIP3    H147536   3.287   3.460   1.287 -0.2555 -0.4254 -0.2400
 8707TIP3    H247537   3.378   3.443   1.167 -0.0397  0.5569 -0.2165
 8708TIP3   OH247538   3.678   2.951  14.254 -0.4970  0.0340 -0.5896
 8708TIP3    H147539   3.620   2.968  14.179 -2.1248 -2.1010  0.1426
 8708TIP3    H247540   3.655   3.020  14.317 -2.1689 -0.6931 -0.3692
 8709TIP3   OH247541   3.387   3.486   2.055 -0.1384  0.1218  0.1468
 8709TIP3    H147542   3.301   3.462   2.088  0.7534 -2.3550  0.7786
 8709TIP3    H247543   3.445   3.480   2.131  0.8298  0.4952 -0.5382
 8710TIP3   OH247544   2.807   5.490   5.182 -0.0128 -0.0105  0.1512
 8710TIP3    H147545   2.719   5.453   5.172  0.9670 -2.8248  1.3824
 8710TIP3    H247546   2.857   5.455   5.109  0.5266  0.1819  0.4226
 8711TIP3   OH247547   3.395   2.956   4.720  0.1492  0.2535 -0.0549
 8711TIP3    H147548   3.367   2.869   4.691  1.1904  0.0444 -0.4482
 8711TIP3    H247549   3.362   3.015   4.652 -4.1154  0.6929  2.2264
 8712TIP3   OH247550   2.481   6.582   1.169  0.2591  0.5917  0.0270
 8712TIP3    H147551   2.540   6.643   1.214  0.6955  0.5092 -0.4183
 8712TIP3    H247552   2.540   6.524   1.120 -0.1529 -0.2784  0.5609
 8713TIP3   OH247553   6.032   3.720  16.656 -0.2564 -0.0629 -0.0119
 8713TIP3    H147554   6.007   3.746  16.744  0.5559  1.1444 -0.1203
 8713TIP3    H247555   6.078   3.637  16.667  2.3804  1.4992  1.0359
 8714TIP3   OH247556   3.167   5.515   2.561 -0.2783  0.5447  0.3374
 8714TIP3    H147557   3.159   5.578   2.489 -0.2133 -0.7663 -0.8478
 8714TIP3    H247558   3.254   5.531   2.597  1.8384 -2.1453 -3.1942
 8715TIP3   OH247559   2.249   2.734  15.388  0.1656 -0.3705  0.2645
 8715TIP3    H147560   2.256   2.733  15.484  0.9156 -1.6021  0.2080
 8715TIP3    H247561   2.280   2.821  15.363  1.1818 -0.4915  1.0601
 8716TIP3   OH247562   0.129   5.023  14.514  0.3164 -0.2156 -0.4192
 8716TIP3    H147563   0.149   4.931  14.532 -0.9784 -0.1809  1.3519
 8716TIP3    H247564   0.210   5.069  14.534  0.8163 -0.9034 -0.8174
 8717TIP3   OH247565   0.482   0.775   5.984 -0.1394  0.4124  0.0259
 8717TIP3    H147566   0.413   0.709   5.988 -0.6952  0.9868  0.1124
 8717TIP3    H247567   0.546   0.740   5.922 -0.8812  0.2146 -0.6421
 8718TIP3   OH247568   0.352   1.288   3.219  0.8414 -0.0532 -0.2531
 8718TIP3    H147569   0.283   1.232   3.255  0.5482 -0.6045 -1.6184
 8718TIP3    H247570   0.322   1.377   3.238  0.4298 -0.3230  0.3774
 8719TIP3   OH247571   6.539   2.871  15.971  0.5935  0.4129 -0.2657
 8719TIP3    H147572   6.607   2.918  15.922  1.1017 -1.4948 -1.4458
 8719TIP3    H247573   6.514   2.799  15.913 -1.4190  0.2506  0.7713
 8720TIP3   OH247574   3.401   6.328  11.547 -0.1478 -0.0643  0.2789
 8720TIP3    H147575   3.472   6.369  11.597  0.1006 -0.7013  0.4594
 8720TIP3    H247576   3.334   6.396  11.539  0.5681  0.6088 -0.0665
 8721TIP3   OH247577   3.386   0.641  15.751 -0.8072  0.1744  0.1068
 8721TIP3    H147578   3.458   0.666  15.693 -2.0065  2.8938 -0.3097
 8721TIP3    H247579   3.334   0.578  15.701  0.4328 -0.6379 -0.1621
 8722TIP3   OH247580   1.544   3.945  16.248 -0.6177 -0.8857 -0.4653
 8722TIP3    H147581   1.571   3.938  16.340 -1.6904 -1.3589 -0.1842
 8722TIP3    H247582   1.598   3.881  16.202 -1.7022 -2.2719  0.1896
 8723TIP3   OH247583   5.532   6.668  14.141  0.0746  0.7852  0.2126
 8723TIP3    H147584   5.445   6.701  14.119 -0.3858 -0.7833 -0.3955
 8723TIP3    H247585   5.520   6.621  14.224 -0.3263 -2.0263 -1.3781
 8724TIP3   OH247586   4.841   1.561   0.931  0.4243  0.1030 -0.4327
 8724TIP3    H147587   4.875   1.522   1.012  0.2463  0.7000 -0.0659
 8724TIP3    H247588   4.752   1.588   0.953  0.7189  1.1812 -0.5288
 8725TIP3   OH247589   3.558   0.456  12.574 -0.1247 -0.1529 -0.1245
 8725TIP3    H147590   3.529   0.490  12.489 -1.8783 -1.6982 -0.1778
 8725TIP3    H247591   3.619   0.385  12.552 -0.2335 -0.2612 -0.0751
 8726TIP3   OH247592   4.600   0.829   2.014 -0.2699 -0.2973 -0.2228
 8726TIP3    H147593   4.523   0.879   1.989  1.0336  0.3747 -3.0466
 8726TIP3    H247594   4.669   0.894   2.027 -0.1947 -0.8653  2.5621
 8727TIP3   OH247595   3.973   0.400   0.999 -0.0872 -0.4446 -0.0742
 8727TIP3    H147596   4.056   0.420   0.954 -0.1911  0.4031  0.0957
 8727TIP3    H247597   3.964   0.470   1.064  0.1514 -1.7493  1.3957
 8728TIP3   OH247598   1.529   2.250  13.967 -0.5012  0.0288 -0.0812
 8728TIP3    H147599   1.493   2.329  13.926 -0.4836  0.1984  0.2334
 8728TIP3    H247600   1.475   2.237  14.045 -1.2137 -0.8896 -0.7208
 8729TIP3   OH247601   2.445   5.970  13.439 -0.2948 -0.2620  0.0342
 8729TIP3    H147602   2.495   5.915  13.499 -0.7574 -0.1517  0.5200
 8729TIP3    H247603   2.370   6.000  13.490  0.2593  1.3051 -0.0250
 8730TIP3   OH247604   2.796   5.787   2.542  0.1432  0.2888  1.0737
 8730TIP3    H147605   2.799   5.830   2.627  0.8435 -0.5077  1.4503
 8730TIP3    H247606   2.740   5.710   2.556 -2.1748  1.7239  0.0953
 8731TIP3   OH247607   6.709   0.449  12.596 -0.1125 -0.6890 -0.3113
 8731TIP3    H147608   6.766   0.405  12.659  0.1108 -0.4330 -0.3294
 8731TIP3    H247609   6.768   0.476  12.525  0.0903  1.2782  0.5640
 8732TIP3   OH247610   2.701   5.998   4.727  0.5310 -0.3694 -0.7393
 8732TIP3    H147611   2.742   5.921   4.765 -0.5301 -1.3392 -1.5237
 8732TIP3    H247612   2.761   6.025   4.657  1.4443  0.1767  0.2554
 8733TIP3   OH247613   5.475   1.337   5.698 -0.1387 -0.0902 -0.0984
 8733TIP3    H147614   5.457   1.335   5.792 -0.4093 -0.0248 -0.1492
 8733TIP3    H247615   5.568   1.317   5.691 -0.9576 -4.1448 -0.1012
 8734TIP3   OH247616   5.999   1.399  11.646  0.0552  0.0239  0.0839
 8734TIP3    H147617   5.993   1.309  11.678  0.8029 -0.1858 -0.3521
 8734TIP3    H247618   6.086   1.429  11.672  0.5212 -0.0141 -1.3580
 8735TIP3   OH247619   2.811   5.768   3.852 -0.0532  0.0383 -0.1645
 8735TIP3    H147620   2.746   5.729   3.793  0.6472 -1.8173  0.2728
 8735TIP3    H247621   2.775   5.757   3.940 -0.5662  1.8013 -0.1167
 8736TIP3   OH247622   3.298   3.190  11.561 -0.5393  0.1990  0.6533
 8736TIP3    H147623   3.308   3.096  11.577  0.3155 -0.1148 -1.5805
 8736TIP3    H247624   3.228   3.196  11.496  1.0181  0.9295 -0.9892
 8737TIP3   OH247625   3.022   6.709  16.150 -0.1484  0.0033 -0.3817
 8737TIP3    H147626   2.982   6.642  16.094  2.0020 -1.4043 -0.2872
 8737TIP3    H247627   3.062   6.659  16.221  0.4225  1.5062  0.3589
 8738TIP3   OH247628   6.293   5.001   5.995  0.1425  0.2092 -0.0481
 8738TIP3    H147629   6.212   4.954   6.012  0.6725 -0.7162 -0.0601
 8738TIP3    H247630   6.350   4.937   5.952  0.4807  1.1801 -1.0491
 8739TIP3   OH247631   0.816   1.204   0.394  0.0780  0.4777  0.9825
 8739TIP3    H147632   0.757   1.194   0.319  1.3377 -3.9157  0.4277
 8739TIP3    H247633   0.760   1.191   0.471 -0.3664  0.0801  0.5989
 8740TIP3   OH247634   0.905   5.431  13.945  0.2305 -0.2786 -0.0538
 8740TIP3    H147635   0.822   5.471  13.922  0.0905 -0.3812  0.2630
 8740TIP3    H247636   0.882   5.360  14.005  0.2581 -2.5482 -2.6642
 8741TIP3   OH247637   0.084   2.165   3.856 -0.3441  0.3688  0.6378
 8741TIP3    H147638   0.073   2.174   3.761 -2.7242 -2.6722  0.5494
 8741TIP3    H247639   0.178   2.152   3.869 -0.1361 -0.2349 -1.3956
 8742TIP3   OH247640   2.115   5.787   3.188  0.0685 -0.4296  0.1087
 8742TIP3    H147641   2.170   5.851   3.231 -0.4731 -0.3556  0.6914
 8742TIP3    H247642   2.167   5.758   3.112 -0.0689  1.3660 -0.6968
 8743TIP3   OH247643   6.698   3.704  12.708  0.3601  0.1514 -0.4293
 8743TIP3    H147644   6.630   3.771  12.698  1.3207  1.0053 -1.3700
 8743TIP3    H247645   6.668   3.632  12.653  0.1122  0.4534 -0.6961
 8744TIP3   OH247646   0.390   4.155   2.238 -0.3448 -0.5564  0.2958
 8744TIP3    H147647   0.356   4.085   2.182  0.5937 -1.2982  0.6557
 8744TIP3    H247648   0.356   4.136   2.325 -0.8948 -0.0097  0.2086
 8745TIP3   OH247649   0.131   5.787   5.394  0.1838  0.7351 -0.3781
 8745TIP3    H147650   0.132   5.881   5.410  0.1695  0.9633 -1.6636
 8745TIP3    H247651   0.095   5.778   5.306 -0.7048 -0.5377  0.1002
 8746TIP3   OH247652   4.298   2.232  12.162  0.1764  0.7231 -0.6643
 8746TIP3    H147653   4.283   2.292  12.089  1.6874  0.6192 -1.0830
 8746TIP3    H247654   4.363   2.277  12.217  0.4711 -0.0264 -0.3905
 8747TIP3   OH247655   3.909   6.335  13.733  0.0204  0.3377  0.9163
 8747TIP3    H147656   3.859   6.405  13.692  0.7143 -1.3178 -2.9500
 8747TIP3    H247657   3.866   6.254  13.705  2.2760 -0.9742  1.0717
 8748TIP3   OH247658   4.855   4.793  12.563 -0.2117 -0.2432 -0.2220
 8748TIP3    H147659   4.829   4.834  12.645 -0.7780  0.4387 -0.7324
 8748TIP3    H247660   4.788   4.727  12.545 -0.0145 -0.4860 -0.0654
 8749TIP3   OH247661   0.993   3.173   2.464  0.5068  0.3880  0.0599
 8749TIP3    H147662   1.022   3.232   2.534 -0.4278 -0.6759  1.3523
 8749TIP3    H247663   1.037   3.090   2.483  0.1013  0.0386 -0.5125
 8750TIP3   OH247664   2.912   6.594  16.480  0.2256  0.1084 -0.5172
 8750TIP3    H147665   2.852   6.656  16.522 -0.4925  1.1134 -2.9674
 8750TIP3    H247666   2.998   6.618  16.515 -0.4125  0.6036  0.7492
 8751TIP3   OH247667   3.302   0.039   3.074  0.0729 -0.3308 -0.2878
 8751TIP3    H147668   3.237   0.099   3.037  0.4027  1.5525  2.0532
 8751TIP3    H247669   3.250  -0.033   3.109 -0.5496 -0.0335 -0.5823
 8752TIP3   OH247670   4.326   1.820   1.999  0.1032  0.1644  0.2935
 8752TIP3    H147671   4.317   1.903   2.046 -0.2338  0.2722  0.0401
 8752TIP3    H247672   4.244   1.774   2.014 -0.6228  0.8602 -1.4636
 8753TIP3   OH247673   3.786   4.432   0.901 -0.2865 -0.0210 -0.2423
 8753TIP3    H147674   3.876   4.443   0.930 -0.6388  1.5894  0.2842
 8753TIP3    H247675   3.736   4.420   0.982 -0.4314 -1.8913 -0.5834
 8754TIP3   OH247676   6.553   4.145  16.806  0.0659  0.3502 -0.0824
 8754TIP3    H147677   6.490   4.217  16.813 -1.9274 -1.1068 -2.5400
 8754TIP3    H247678   6.634   4.187  16.778 -0.2563  1.9907  1.3009
 8755TIP3   OH247679   4.779   0.112  15.963  0.5483 -0.2483 -0.0275
 8755TIP3    H147680   4.717   0.110  15.890  1.4330  1.1907 -0.8312
 8755TIP3    H247681   4.762   0.031  16.011 -2.1510  0.2478 -0.0742
 8756TIP3   OH247682   2.888   5.825  12.248  0.5339 -0.0195  0.2022
 8756TIP3    H147683   2.845   5.758  12.301 -2.6583  1.0603 -0.9177
 8756TIP3    H247684   2.829   5.900  12.252  2.0990  1.3670 -1.8146
 8757TIP3   OH247685   1.809   0.973  16.508 -0.1200  0.0488  0.2614
 8757TIP3    H147686   1.847   0.946  16.592 -2.0379  0.4293  1.2915
 8757TIP3    H247687   1.879   1.020  16.464  1.8374 -2.5592  0.4191
 8758TIP3   OH247688   5.577   0.507   0.626  0.3636 -0.0588 -0.0518
 8758TIP3    H147689   5.509   0.441   0.612  1.1471 -0.7771 -0.5287
 8758TIP3    H247690   5.618   0.518   0.540 -0.9713  2.4307 -0.4207
 8759TIP3   OH247691   6.219   5.941  15.584  0.3188  0.1040 -0.1589
 8759TIP3    H147692   6.220   5.876  15.655  2.8828  1.1300  0.8178
 8759TIP3    H247693   6.266   5.899  15.512 -1.7784 -0.7125 -1.1077
 8760TIP3   OH247694   5.295   5.762   1.009  0.1344 -0.2280 -0.8115
 8760TIP3    H147695   5.274   5.847   0.969  1.3090  0.8972  0.9104
 8760TIP3    H247696   5.387   5.769   1.034 -0.3761 -1.1260  1.4690
 8761TIP3   OH247697   3.554   5.790   0.949 -0.3170 -0.1167  0.3159
 8761TIP3    H147698   3.577   5.698   0.941  0.3744 -0.0481  1.4429
 8761TIP3    H247699   3.537   5.818   0.859  1.2851 -0.8827 -0.2481
 8762TIP3   OH247700   1.154   2.862   5.960  0.2389 -0.4980  0.0737
 8762TIP3    H147701   1.168   2.913   6.039 -0.2161 -1.3896  0.7374
 8762TIP3    H247702   1.061   2.874   5.939  0.6354  0.7407 -1.0395
 8763TIP3   OH247703   3.995   5.070  15.841 -0.6347  0.1215 -0.0924
 8763TIP3    H147704   4.024   5.089  15.931  1.0918  0.4981 -0.7005
 8763TIP3    H247705   3.972   5.156  15.805 -0.6039  0.0644 -0.2458
 8764TIP3   OH247706   1.636   1.167   6.323  0.4719  0.1980  0.2814
 8764TIP3    H147707   1.605   1.095   6.268  0.1340  0.9608 -0.5443
 8764TIP3    H247708   1.711   1.132   6.370  0.7499 -0.4706 -0.6588
 8765TIP3   OH247709   3.254   1.999   5.243  0.4265 -0.8823  0.1775
 8765TIP3    H147710   3.172   2.030   5.205 -0.0584 -0.3349  1.6426
 8765TIP3    H247711   3.285   1.932   5.183 -0.3437 -0.0584 -1.1570
 8766TIP3   OH247712   6.403   6.643   5.346 -0.5911  0.4104  0.1985
 8766TIP3    H147713   6.325   6.658   5.399 -0.1990  0.1850  0.8424
 8766TIP3    H247714   6.375   6.577   5.282 -0.6431 -0.4406  1.0824
 8767TIP3   OH247715   1.028   3.334   2.225  0.2547 -0.1567  0.6855
 8767TIP3    H147716   1.067   3.247   2.232  3.3851  0.8248 -2.8078
 8767TIP3    H247717   0.983   3.333   2.140 -1.7735  0.8944  1.7112
 8768TIP3   OH247718   6.290   6.289  16.283  0.0244 -0.0557  0.2561
 8768TIP3    H147719   6.232   6.363  16.301 -0.0840 -0.0024 -0.2956
 8768TIP3    H247720   6.366   6.304  16.340  1.3232  2.0577 -1.9217
 8769TIP3   OH247721   4.277   0.315  14.424 -0.6485 -0.6452  0.0010
 8769TIP3    H147722   4.273   0.398  14.471  0.1422  0.0717 -1.1668
 8769TIP3    H247723   4.264   0.338  14.332 -1.0007 -1.8859 -0.2740
 8770TIP3   OH247724   5.220   3.944  16.281  0.2441  0.3945 -0.3780
 8770TIP3    H147725   5.269   3.993  16.346 -0.2581  1.0257 -0.4767
 8770TIP3    H247726   5.210   4.004  16.207 -0.3043  0.1226 -0.5292
 8771TIP3   OH247727   6.447   6.147   0.160 -0.2832 -0.4161  0.0393
 8771TIP3    H147728   6.352   6.148   0.175 -0.1410  0.0464  0.9559
 8771TIP3    H247729   6.456   6.132   0.066 -1.2871  0.4969 -0.2207
 8772TIP3   OH247730   2.305   0.400  15.323  0.6488 -0.4077 -0.2293
 8772TIP3    H147731   2.220   0.416  15.364  0.8167  0.1679 -0.1074
 8772TIP3    H247732   2.363   0.378  15.395  0.4260 -1.5507 -0.3900
 8773TIP3   OH247733   3.896   2.540  10.580 -0.3635 -1.0927  0.2003
 8773TIP3    H147734   3.980   2.538  10.534 -0.6139 -0.5957 -0.2847
 8773TIP3    H247735   3.831   2.547  10.510 -0.7234  0.1457  0.6601
 8774TIP3   OH247736   3.388   0.153  11.350  0.4432  0.0001  0.0017
 8774TIP3    H147737   3.325   0.211  11.393 -1.7208 -1.8054 -0.6286
 8774TIP3    H247738   3.387   0.179  11.258 -0.1733 -0.6847 -0.1938
 8775TIP3   OH247739   2.390   5.188   5.972 -0.2058  0.1754  0.4392
 8775TIP3    H147740   2.389   5.152   6.060  0.2122  1.3263  0.9215
 8775TIP3    H247741   2.446   5.265   5.978  0.0112  0.1344 -0.8829
 8776TIP3   OH247742   0.219   3.205   3.780 -0.5077  0.3371 -0.0765
 8776TIP3    H147743   0.193   3.296   3.793 -1.2920  0.0280  0.4909
 8776TIP3    H247744   0.275   3.185   3.855  0.9353  0.8240 -0.9990
 8777TIP3   OH247745   5.929   6.016   2.204  0.0515 -0.2438 -0.0216
 8777TIP3    H147746   6.001   5.959   2.232 -1.1843 -0.9047  1.9017
 8777TIP3    H247747   5.973   6.095   2.173  1.5991 -0.4532  1.5349
 8778TIP3   OH247748   6.276   0.141   0.563  0.0184  0.0113 -0.4226
 8778TIP3    H147749   6.271   0.095   0.479 -0.1837 -0.0332 -0.3853
 8778TIP3    H247750   6.222   0.219   0.551 -0.4639 -0.2799 -0.1464
 8779TIP3   OH247751   1.959   2.257   2.203 -0.4925  0.2301  0.3846
 8779TIP3    H147752   1.976   2.234   2.112  1.3299  1.0647  0.4954
 8779TIP3    H247753   1.863   2.266   2.208 -0.4891  2.0394 -1.9223
 8780TIP3   OH247754   0.645   6.623  15.479 -0.0096  0.1316 -0.7143
 8780TIP3    H147755   0.683   6.596  15.562  0.1535  3.0845  0.2248
 8780TIP3    H247756   0.714   6.672  15.435 -1.1441  1.4144 -1.1108
 8781TIP3   OH247757   0.091   6.254   1.505 -0.5890 -0.2345 -0.2354
 8781TIP3    H147758   0.022   6.193   1.477  0.4153 -1.2518 -0.5359
 8781TIP3    H247759   0.076   6.266   1.599 -1.1248 -0.5213 -0.2808
 8782TIP3   OH247760   3.814   4.545  16.227  0.1790 -0.6930  0.4159
 8782TIP3    H147761   3.813   4.466  16.282 -3.6679 -1.2137 -0.2162
 8782TIP3    H247762   3.794   4.616  16.288  2.5659 -0.3359  0.7987
 8783TIP3   OH247763   0.451   5.450  15.019 -0.0558 -0.0324  0.3283
 8783TIP3    H147764   0.485   5.525  15.068 -2.4406  0.7817  0.8165
 8783TIP3    H247765   0.465   5.376  15.078  3.2310 -0.1970 -0.5599
 8784TIP3   OH247766   4.301   5.091   6.066  0.0087 -0.2865  0.3107
 8784TIP3    H147767   4.261   5.109   5.981 -0.6981 -0.9014  0.5118
 8784TIP3    H247768   4.314   4.996   6.067 -0.4935 -0.3494  1.1171
 8785TIP3   OH247769   4.801   6.482   2.512 -0.3730  0.0980  0.0653
 8785TIP3    H147770   4.868   6.427   2.470 -0.4451 -0.5258  0.7712
 8785TIP3    H247771   4.851   6.551   2.555 -0.2181 -0.0702  0.1555
 8786TIP3   OH247772   6.161   5.539   5.508  0.4655  0.2240  0.6332
 8786TIP3    H147773   6.101   5.593   5.457 -0.3208 -0.2862  1.0047
 8786TIP3    H247774   6.237   5.527   5.452 -0.9373 -1.4432 -0.9710
 8787TIP3   OH247775   6.686   3.733  14.575  0.1937 -0.0075 -0.2882
 8787TIP3    H147776   6.612   3.686  14.612 -0.7328  1.6384 -0.0250
 8787TIP3    H247777   6.737   3.666  14.529 -1.3494 -1.1743 -0.3086
 8788TIP3   OH247778   6.366   4.813  13.362 -0.6062  0.6296  1.0631
 8788TIP3    H147779   6.399   4.903  13.367 -1.9169  1.1295  0.8053
 8788TIP3    H247780   6.273   4.822  13.340 -0.5003 -0.8187 -0.0517
 8789TIP3   OH247781   0.099   4.089  12.066 -0.2223 -0.2945 -0.5697
 8789TIP3    H147782   0.156   4.065  11.993  0.1492 -0.9995 -0.0559
 8789TIP3    H247783   0.137   4.169  12.102  2.3571 -2.4431  1.7697
 8790TIP3   OH247784   1.747   4.548  17.175 -0.2226 -0.4945 -0.1268
 8790TIP3    H147785   1.664   4.541  17.222 -1.1208  0.5470 -1.5470
 8790TIP3    H247786   1.746   4.636  17.136  1.6939 -0.3312  0.1243
 8791TIP3   OH247787   0.099   2.947   3.393 -0.7074 -0.1638  0.3217
 8791TIP3    H147788   0.035   3.007   3.429 -1.2195  0.2449 -1.2246
 8791TIP3    H247789   0.048   2.887   3.338  0.0534 -0.6769  0.1619
 8792TIP3   OH247790   5.345   0.359  11.007  0.4058 -0.8771  0.1261
 8792TIP3    H147791   5.348   0.453  11.028  0.0285 -0.8971  0.2767
 8792TIP3    H247792   5.388   0.317  11.082  1.4607 -0.7578 -0.3978
 8793TIP3   OH247793   0.415   2.676  12.345  0.3323  0.4723  0.5409
 8793TIP3    H147794   0.417   2.628  12.428 -0.1067  1.5940  1.2044
 8793TIP3    H247795   0.386   2.611  12.281 -1.2372  0.1092  1.6034
 8794TIP3   OH247796   6.370   5.544  13.947 -0.0589 -0.2311  0.0825
 8794TIP3    H147797   6.402   5.616  13.892  0.2228 -0.7685 -0.4554
 8794TIP3    H247798   6.405   5.564  14.034 -0.4703  0.5961  0.0643
 8795TIP3   OH247799   4.553   6.457   6.604  0.2810  0.7587  0.0074
 8795TIP3    H147800   4.622   6.443   6.669  1.2258 -0.3914 -1.2206
 8795TIP3    H247801   4.500   6.377   6.608  1.2339  0.0204 -1.6874
 8796TIP3   OH247802   4.921   3.196   5.310 -0.7337 -1.0234  0.1283
 8796TIP3    H147803   4.867   3.134   5.260 -1.3042 -1.4112  1.2230
 8796TIP3    H247804   4.873   3.279   5.305 -0.9786 -1.1521  0.3455
 8797TIP3   OH247805   1.858   0.386  15.095  0.2562  0.4786 -0.0657
 8797TIP3    H147806   1.770   0.375  15.129  0.9554  1.3704  2.0855
 8797TIP3    H247807   1.880   0.478  15.113  1.4286  0.4105 -1.0464
 8798TIP3   OH247808   0.610   2.507  15.397 -0.5810  0.0441  0.2254
 8798TIP3    H147809   0.704   2.490  15.388 -0.4665  0.2403  1.0006
 8798TIP3    H247810   0.606   2.590  15.445 -1.1450  0.5269 -0.6333
 8799TIP3   OH247811   1.791   5.109  11.509 -0.6323  0.4126 -0.0763
 8799TIP3    H147812   1.840   5.163  11.571  0.4995  1.3289 -1.7040
 8799TIP3    H247813   1.774   5.027  11.555  2.8946 -0.1311  0.4212
 8800TIP3   OH247814   4.411   0.911  14.401  0.0176  0.2983  0.2098
 8800TIP3    H147815   4.391   0.836  14.458 -0.6622  0.8726  0.7324
 8800TIP3    H247816   4.447   0.871  14.321 -1.3030 -0.6513  0.0676
 8801TIP3   OH247817   3.099   0.150   4.466  0.1394 -0.3363  0.0710
 8801TIP3    H147818   3.190   0.178   4.481  0.7162 -1.1210 -1.8059
 8801TIP3    H247819   3.049   0.232   4.463  0.6072  0.0559  2.0729
 8802TIP3   OH247820   2.481   3.391  13.492 -0.6494  0.4373 -0.2299
 8802TIP3    H147821   2.401   3.358  13.451 -0.1353 -0.4559 -0.5343
 8802TIP3    H247822   2.545   3.322  13.478 -0.0931  0.7137  0.8919
 8803TIP3   OH247823   4.065   5.469   1.690 -0.1673  0.6467  0.3758
 8803TIP3    H147824   3.984   5.508   1.720 -0.5385 -0.5585  0.9769
 8803TIP3    H247825   4.125   5.476   1.764 -0.1814  0.2492  0.4280
 8804TIP3   OH247826   4.762   1.947  14.134 -0.5193 -0.6022 -0.1402
 8804TIP3    H147827   4.820   2.011  14.175 -1.4375  0.1817 -0.0669
 8804TIP3    H247828   4.808   1.920  14.055 -0.5043  0.7391 -0.5887
 8805TIP3   OH247829   1.971   1.076   5.661  0.1330  0.3721 -0.0124
 8805TIP3    H147830   2.048   1.058   5.715  0.6543 -1.0423 -1.1839
 8805TIP3    H247831   1.995   1.154   5.611 -0.4376  1.8101  1.9284
 8806TIP3   OH247832   3.642   0.997   3.131 -0.2389  0.2820  0.0405
 8806TIP3    H147833   3.627   0.904   3.148 -0.2985  0.3831  0.5657
 8806TIP3    H247834   3.730   1.014   3.165 -0.8461  0.7659  1.4461
 8807TIP3   OH247835   2.852   3.708   5.062  0.2754  0.0562  0.2168
 8807TIP3    H147836   2.847   3.613   5.052  1.2003  0.1276 -0.9352
 8807TIP3    H247837   2.773   3.740   5.019  0.7568 -0.0959 -0.7977
 8808TIP3   OH247838   3.736   4.066   5.402  0.0597 -0.0752  0.0848
 8808TIP3    H147839   3.654   4.113   5.417 -1.3071 -2.3075 -0.1976
 8808TIP3    H247840   3.761   4.034   5.489  1.1467  1.3904  0.3265
 8809TIP3   OH247841   3.242   1.247   3.499  0.1878 -0.0450 -0.3636
 8809TIP3    H147842   3.188   1.325   3.510  1.5555  0.7328  0.9688
 8809TIP3    H247843   3.267   1.221   3.587  1.1324 -1.0046 -0.8885
 8810TIP3   OH247844   1.910   1.523   1.575  0.0849 -0.5818  0.1614
 8810TIP3    H147845   1.938   1.605   1.614 -1.9326  0.2597 -0.1200
 8810TIP3    H247846   1.978   1.460   1.601 -0.0244  0.4291  3.0947
 8811TIP3   OH247847   4.649   3.895   2.710 -0.0401 -0.1493 -0.2884
 8811TIP3    H147848   4.613   3.857   2.790 -0.1550  1.3853  0.3944
 8811TIP3    H247849   4.581   3.955   2.679  1.1646  1.3955  0.0112
 8812TIP3   OH247850   3.043   3.038   2.086  0.3894  0.0494 -0.2436
 8812TIP3    H147851   2.969   3.053   2.027  0.3809  0.0147 -0.2415
 8812TIP3    H247852   3.082   3.125   2.099 -0.3432  0.2478  0.6704
 8813TIP3   OH247853   6.619   1.340  13.047 -0.4299 -0.1974 -0.0118
 8813TIP3    H147854   6.601   1.414  12.989 -1.9211 -1.2134 -0.8792
 8813TIP3    H247855   6.548   1.343  13.112  0.6691  0.3394  1.1836
 8814TIP3   OH247856   3.669   0.130  10.983  0.1703  0.4619  0.3211
 8814TIP3    H147857   3.678   0.198  10.917 -0.3691 -0.4138 -0.6743
 8814TIP3    H247858   3.599   0.162  11.041 -1.5849 -0.2033 -1.3786
 8815TIP3   OH247859   1.531   4.626  15.428 -0.0993 -0.8756 -0.0849
 8815TIP3    H147860   1.441   4.625  15.458 -0.3330  0.0630 -0.7274
 8815TIP3    H247861   1.533   4.562  15.356  0.5360 -3.3616  2.0473
 8816TIP3   OH247862   4.945   5.423   1.637 -0.5832  0.5170 -0.2759
 8816TIP3    H147863   4.867   5.457   1.593 -0.5286 -1.4630 -2.0030
 8816TIP3    H247864   4.996   5.381   1.568  0.7145 -0.5778  1.2807
 8817TIP3   OH247865   6.135   2.233  15.392 -0.0672  0.1006 -0.1482
 8817TIP3    H147866   6.212   2.289  15.405  0.0840 -0.1126 -0.1208
 8817TIP3    H247867   6.171   2.146  15.376 -0.2960  0.0732 -0.5167
 8818TIP3   OH247868   1.484   5.360  13.387  0.0351  0.1639  0.2543
 8818TIP3    H147869   1.508   5.271  13.361  2.1067  0.7721  0.0013
 8818TIP3    H247870   1.565   5.410  13.378 -0.5315  1.5816  2.6191
 8819TIP3   OH247871   5.450   2.524   3.597 -0.9495 -0.0879  0.0712
 8819TIP3    H147872   5.527   2.499   3.648 -0.2406  1.6147 -0.1345
 8819TIP3    H247873   5.434   2.448   3.540  1.2057 -0.0646 -0.6053
 8820TIP3   OH247874   0.433   2.753  15.275 -0.4760  0.1747  0.3619
 8820TIP3    H147875   0.388   2.685  15.225 -3.5129  1.5063  1.1762
 8820TIP3    H247876   0.442   2.716  15.363  0.4983 -0.2870  0.0722
 8821TIP3   OH247877   6.656   3.859   2.446 -0.0790 -0.0403  0.1338
 8821TIP3    H147878   6.675   3.825   2.533  0.3327 -1.2814 -0.4330
 8821TIP3    H247879   6.647   3.953   2.459 -1.2277 -0.3475  1.7240
 8822TIP3   OH247880   5.098   2.815  13.510 -0.3016  0.4998 -0.9793
 8822TIP3    H147881   5.188   2.831  13.483 -0.3356  2.1642 -0.1621
 8822TIP3    H247882   5.066   2.750  13.448  1.1055  0.7308 -1.9795
 8823TIP3   OH247883   4.988   4.694   2.865  0.4567 -0.3034  0.5378
 8823TIP3    H147884   5.038   4.616   2.890  0.0446 -0.7797 -0.1064
 8823TIP3    H247885   4.993   4.696   2.769 -0.8250 -0.4092  0.4539
 8824TIP3   OH247886   3.486   6.170  16.364  0.0587 -0.1574 -0.3195
 8824TIP3    H147887   3.471   6.252  16.411  1.4781  1.3437 -2.3743
 8824TIP3    H247888   3.438   6.104  16.414 -0.5771  1.8097  1.7420
 8825TIP3   OH247889   4.348   4.514  11.477  0.5125  0.2226  0.3831
 8825TIP3    H147890   4.387   4.435  11.515  0.3899 -0.0168  0.0177
 8825TIP3    H247891   4.340   4.574  11.550 -1.1650 -0.7820  1.0490
 8826TIP3   OH247892   6.712   2.127   1.568 -0.5347  0.1995 -0.2277
 8826TIP3    H147893   6.769   2.202   1.553 -0.1276 -0.2582 -0.9870
 8826TIP3    H247894   6.624   2.165   1.576 -0.1493  0.8925  0.8396
 8827TIP3   OH247895   5.627   1.021  11.944 -0.1842 -0.1402 -0.3688
 8827TIP3    H147896   5.626   0.993  12.036  1.1729 -1.7240 -0.8169
 8827TIP3    H247897   5.569   1.097  11.942 -1.0540 -0.7130  1.6013
 8828TIP3   OH247898   2.478   3.198  15.790 -0.6117 -0.0133  0.0898
 8828TIP3    H147899   2.426   3.261  15.840  0.8380  0.0683  1.5345
 8828TIP3    H247900   2.448   3.112  15.819 -1.3386  0.0162 -0.5642
 8829TIP3   OH247901   5.621   0.449   0.086  0.6104 -0.8336 -0.0878
 8829TIP3    H147902   5.655   0.530   0.125 -0.0742 -1.0248  0.9106
 8829TIP3    H247903   5.621   0.466  -0.008 -0.8105  0.8194  0.2010
 8830TIP3   OH247904   5.145   1.131  17.034 -0.0900  0.7287  0.7304
 8830TIP3    H147905   5.055   1.160  17.024 -0.4133 -0.8174 -1.0663
 8830TIP3    H247906   5.147   1.045  16.994  1.9685  0.3244  1.6408
 8831TIP3   OH247907   6.578   3.218  12.445 -0.5005  0.2162  0.2769
 8831TIP3    H147908   6.561   3.124  12.431  2.2408 -1.0100  4.3723
 8831TIP3    H247909   6.656   3.235  12.392 -0.2826 -0.1045  0.4924
 8832TIP3   OH247910   1.657   6.629   5.592 -0.0551 -0.3155  0.2821
 8832TIP3    H147911   1.662   6.561   5.659  1.2684 -2.5021 -1.9256
 8832TIP3    H247912   1.738   6.679   5.602 -0.7925  0.6160  1.5902
 8833TIP3   OH247913   1.986   1.603   4.461  0.4240 -0.1360  0.1154
 8833TIP3    H147914   1.918   1.632   4.400  1.9426 -0.0638 -1.5898
 8833TIP3    H247915   2.003   1.679   4.516  0.3095  0.3762 -0.5441
 8834TIP3   OH247916   4.485   3.226  13.415 -0.0301  0.1405 -0.0689
 8834TIP3    H147917   4.424   3.246  13.485 -1.1775  0.1807 -1.0653
 8834TIP3    H247918   4.440   3.160  13.362  2.0668 -2.1831  0.9492
 8835TIP3   OH247919   4.791   6.787   4.046  0.5174  0.4010  0.1633
 8835TIP3    H147920   4.741   6.805   4.126 -1.7030 -3.8926 -0.0954
 8835TIP3    H247921   4.727   6.797   3.975  1.0715 -1.0600 -0.5651
 8836TIP3   OH247922   3.147   3.651  15.050  0.3760 -0.6599  0.5177
 8836TIP3    H147923   3.127   3.561  15.022  1.4175 -1.1308  1.2375
 8836TIP3    H247924   3.129   3.704  14.972 -0.2510 -1.4915  0.0797
 8837TIP3   OH247925   5.944   5.387  14.640  0.1091  0.4540  0.5572
 8837TIP3    H147926   6.015   5.430  14.592 -1.0882 -0.0086 -1.6738
 8837TIP3    H247927   5.872   5.449  14.636 -1.2339 -1.1982 -1.6058
 8838TIP3   OH247928   4.941   4.388  11.312  0.7250 -0.5820  0.0931
 8838TIP3    H147929   4.984   4.322  11.258  1.6616  0.2726 -0.2304
 8838TIP3    H247930   4.979   4.471  11.282 -1.3047  0.2124 -0.3491
 8839TIP3   OH247931   1.676   3.156  11.376  0.2421 -0.3440 -0.4692
 8839TIP3    H147932   1.595   3.179  11.421 -0.0365 -1.1476 -0.5376
 8839TIP3    H247933   1.720   3.096  11.436 -0.7810 -2.5249 -1.8014
 8840TIP3   OH247934   3.663   2.631  15.761  0.4094 -0.4668  0.4134
 8840TIP3    H147935   3.626   2.543  15.770  2.5735 -1.4472  0.0008
 8840TIP3    H247936   3.683   2.639  15.668 -0.9915  1.0027  0.2092
 8841TIP3   OH247937   4.456   0.023   2.303 -0.3358 -0.5851  0.7072
 8841TIP3    H147938   4.435   0.032   2.210  3.1786  1.9057  0.0293
 8841TIP3    H247939   4.500  -0.061   2.310 -0.3670 -0.6569  0.0566
 8842TIP3   OH247940   0.216   0.144   5.472  0.0546 -0.3197 -0.3199
 8842TIP3    H147941   0.284   0.211   5.463 -0.1939 -0.0946 -0.5490
 8842TIP3    H247942   0.259   0.072   5.518  0.5641 -0.3419 -0.8247
 8843TIP3   OH247943   0.399   2.450   6.871  0.1322  0.1044 -0.4274
 8843TIP3    H147944   0.368   2.386   6.807  0.8763  1.5118 -2.2607
 8843TIP3    H247945   0.458   2.401   6.928 -0.3099 -1.1089 -1.0010
 8844TIP3   OH247946   1.694   1.538  15.580 -0.4872 -0.1132  0.2427
 8844TIP3    H147947   1.786   1.528  15.556 -0.2618 -0.9065  1.4008
 8844TIP3    H247948   1.654   1.579  15.504  0.6708 -0.4741 -0.5770
 8845TIP3   OH247949   0.416   3.803  14.355  0.0064 -0.3709  0.3476
 8845TIP3    H147950   0.474   3.859  14.407 -0.3027 -0.5866  0.9249
 8845TIP3    H247951   0.399   3.853  14.275 -0.2478  0.3426  0.8480
 8846TIP3   OH247952   4.071   3.870  15.844  0.0819  0.9071 -0.3730
 8846TIP3    H147953   4.032   3.804  15.901  0.0339  0.9114 -0.4015
 8846TIP3    H247954   4.127   3.821  15.784 -0.2890  0.8511 -0.6722
 8847TIP3   OH247955   2.565   3.802   3.115  0.5042  0.0387 -1.0191
 8847TIP3    H147956   2.540   3.856   3.190 -1.1940  0.5784 -1.9401
 8847TIP3    H247957   2.627   3.857   3.066 -1.4101  1.3364 -2.0927
 8848TIP3   OH247958   0.966   6.351  13.515 -0.6053 -0.5107 -0.7576
 8848TIP3    H147959   1.017   6.271  13.502 -1.4344 -1.5196  1.8509
 8848TIP3    H247960   0.906   6.353  13.441  2.3143  0.0697 -3.2412
 8849TIP3   OH247961   6.112   1.583  16.790 -0.1374  0.0958  0.0505
 8849TIP3    H147962   6.072   1.542  16.714  0.3719 -0.7058  0.2064
 8849TIP3    H247963   6.066   1.545  16.865  0.0804  0.0913  0.1825
 8850TIP3   OH247964   2.228   3.885  15.108 -0.0163 -0.2770  0.0617
 8850TIP3    H147965   2.304   3.942  15.099 -0.5473  0.3795 -0.3104
 8850TIP3    H247966   2.222   3.838  15.025  1.2535 -1.9294  0.8837
 8851TIP3   OH247967   1.183   0.684  11.947  0.0900  0.0100 -0.3610
 8851TIP3    H147968   1.170   0.687  11.852 -3.5176  0.2534  0.0742
 8851TIP3    H247969   1.201   0.775  11.972  0.3656  0.0511 -0.7082
 8852TIP3   OH247970   2.199   3.379   3.481  0.2497 -0.6557 -0.2972
 8852TIP3    H147971   2.251   3.336   3.413 -0.5801 -1.5238 -0.3769
 8852TIP3    H247972   2.195   3.471   3.452  0.6223 -0.8451 -0.9686
 8853TIP3   OH247973   4.343   2.954  11.592  0.7316 -0.1516  0.3926
 8853TIP3    H147974   4.352   2.949  11.687  0.6768  0.3887  0.4298
 8853TIP3    H247975   4.429   2.981  11.561  0.5280  0.4848  0.3625
 8854TIP3   OH247976   3.469   1.331   2.731  0.3421 -0.0168 -0.4877
 8854TIP3    H147977   3.474   1.316   2.826 -1.7052 -0.2225 -0.3828
 8854TIP3    H247978   3.416   1.258   2.698 -1.1129  1.4156 -1.4038
 8855TIP3   OH247979   6.384   3.048  14.870  0.2651  0.1060 -0.4068
 8855TIP3    H147980   6.318   3.094  14.921 -0.2140 -1.2746  0.2454
 8855TIP3    H247981   6.375   3.081  14.781 -0.4568  0.8335 -0.0589
 8856TIP3   OH247982   2.049   5.912  14.662  0.5803 -0.6874  0.1857
 8856TIP3    H147983   2.110   5.892  14.591  2.2298  1.0902  1.0725
 8856TIP3    H247984   1.996   5.984  14.629  0.6580 -0.5463  0.3681
 8857TIP3   OH247985   6.734   3.946  13.775  0.6745 -0.5041  0.2044
 8857TIP3    H147986   6.680   3.869  13.794  0.9021 -0.8921 -0.6724
 8857TIP3    H247987   6.710   4.009  13.842 -1.4917 -0.3755 -0.6408
 8858TIP3   OH247988   2.257   5.509  11.077  0.1437 -0.6865  0.4349
 8858TIP3    H147989   2.204   5.479  11.003 -0.5731  0.0637  0.6352
 8858TIP3    H247990   2.343   5.469  11.063  0.3082  0.2541 -1.3453
 8859TIP3   OH247991   3.304   1.159   4.954 -0.0646  0.9521  0.1143
 8859TIP3    H147992   3.242   1.211   4.903  0.1826 -0.0395 -1.2371
 8859TIP3    H247993   3.252   1.124   5.027 -0.4861  2.1690  0.4029
 8860TIP3   OH247994   4.019   4.416  13.148  0.3020 -0.4092  0.2156
 8860TIP3    H147995   3.982   4.505  13.146 -0.7374 -0.8613 -0.9592
 8860TIP3    H247996   4.114   4.430  13.151  0.1024  0.7613  2.7314
 8861TIP3   OH247997   0.021   3.946  16.457 -0.3393  0.2234 -0.3380
 8861TIP3    H147998  -0.059   3.901  16.432 -1.1539  0.7182  1.3195
 8861TIP3    H247999   0.005   4.038  16.434 -1.7544  0.9794  3.4240
 8862TIP3   OH248000   3.349   0.055  12.976 -0.4151  0.5175  0.1071
 8862TIP3    H148001   3.365  -0.027  13.023 -1.8295  0.2444  0.1231
 8862TIP3    H248002   3.259   0.077  12.997 -1.2093  0.1767 -2.7975
 8863TIP3   OH248003   1.342   1.105   1.967 -0.4410  0.3677  0.2635
 8863TIP3    H148004   1.400   1.046   1.920 -0.4327  0.5172  0.0831
 8863TIP3    H248005   1.287   1.048   2.021 -0.2286  0.2183  0.3189
 8864TIP3   OH248006   3.766   2.742  12.666  0.1017  0.5502  0.7127
 8864TIP3    H148007   3.671   2.752  12.653  0.3163  1.4321 -0.2575
 8864TIP3    H248008   3.777   2.651  12.694 -0.7105 -0.5400 -2.3570
 8865TIP3   OH248009   0.133   6.679  12.801 -0.5878  0.6295 -0.0088
 8865TIP3    H148010   0.055   6.723  12.835 -2.5539 -1.6125 -1.4893
 8865TIP3    H248011   0.121   6.680  12.706  0.5674 -0.8506 -0.1784
 8866TIP3   OH248012   4.623   5.778  14.830 -0.2788  0.5036  0.0381
 8866TIP3    H148013   4.658   5.689  14.835  1.0719  1.0847  1.3887
 8866TIP3    H248014   4.554   5.780  14.897 -0.0310  0.5845  0.2937
 8867TIP3   OH248015   4.973   1.930  16.628 -0.3357  0.5457 -0.2112
 8867TIP3    H148016   5.000   1.839  16.640 -1.7842  0.2043  0.6427
 8867TIP3    H248017   4.999   1.952  16.539  0.0522 -0.6899 -0.4126
 8868TIP3   OH248018   1.414   6.364  14.026 -0.0031  0.0604 -0.0367
 8868TIP3    H148019   1.387   6.307  14.099 -2.2091  0.7335 -0.2765
 8868TIP3    H248020   1.354   6.342  13.955  0.8689  0.7982 -1.0198
 8869TIP3   OH248021   1.475   4.404   3.467 -0.2710 -0.0953 -0.0865
 8869TIP3    H148022   1.402   4.457   3.435 -0.5189 -0.1372  0.3931
 8869TIP3    H248023   1.501   4.447   3.549  1.2932  0.8579 -1.0688
 8870TIP3   OH248024   5.970   2.857  13.837 -0.2545 -0.5202  0.3382
 8870TIP3    H148025   5.908   2.784  13.828 -2.6955  1.7098 -1.8448
 8870TIP3    H248026   6.029   2.846  13.762 -1.0776  0.1037 -0.4234
 8871TIP3   OH248027   0.753   0.033  13.743 -0.6217 -0.1226  0.3338
 8871TIP3    H148028   0.830   0.011  13.689  1.7786  1.2209  3.0654
 8871TIP3    H248029   0.678   0.013  13.687  1.6951 -1.9436 -2.2613
 8872TIP3   OH248030   5.553   2.003  16.172 -0.5578 -0.1766 -0.0697
 8872TIP3    H148031   5.498   1.962  16.105  0.6167 -0.9684 -0.5739
 8872TIP3    H248032   5.591   1.929  16.220  0.1615  0.3565  0.1943
 8873TIP3   OH248033   1.222   0.634   0.523 -0.0824  0.3122 -0.1524
 8873TIP3    H148034   1.205   0.719   0.564 -0.1238  0.5152 -0.5877
 8873TIP3    H248035   1.315   0.638   0.498  0.0123  0.0851  0.1667
 8874TIP3   OH248036   1.209   1.480  16.591 -0.0984 -0.0597 -0.4114
 8874TIP3    H148037   1.164   1.552  16.635  1.7365 -0.0668  1.5470
 8874TIP3    H248038   1.198   1.498  16.498 -2.6823  0.8249  0.0306
 8875TIP3   OH248039   6.514   0.643  11.290  0.3122  0.5199 -0.2368
 8875TIP3    H148040   6.422   0.658  11.312  0.5511  0.3504  0.9420
 8875TIP3    H248041   6.515   0.637  11.195 -0.9423  0.2390 -0.2511
 8876TIP3   OH248042   0.305   0.936  11.631  0.2783  0.0340 -0.1290
 8876TIP3    H148043   0.369   0.868  11.652 -0.6626 -1.0489 -0.7300
 8876TIP3    H248044   0.336   1.013  11.679  1.5988 -0.6861  0.2066
 8877TIP3   OH248045   0.910   6.548  17.190  0.4806 -0.3084  1.1471
 8877TIP3    H148046   0.980   6.482  17.193  2.2000  1.4288 -0.2440
 8877TIP3    H248047   0.955   6.631  17.180 -1.7939  0.8786  0.4135
 8878TIP3   OH248048   5.641   2.584   5.664  0.4268 -0.0951  0.0213
 8878TIP3    H148049   5.610   2.558   5.577  0.8361  0.0893 -0.1804
 8878TIP3    H248050   5.720   2.532   5.678  0.9187  0.6212 -0.1363
 8879TIP3   OH248051   1.118   6.105   0.437  0.6318  0.5323 -0.3564
 8879TIP3    H148052   1.098   6.162   0.511  0.7839  0.7756 -0.5043
 8879TIP3    H248053   1.098   6.017   0.469  1.8615  0.5094  0.3949
 8880TIP3   OH248054   0.244   4.143   0.541 -0.0017  0.3991 -0.1971
 8880TIP3    H148055   0.282   4.212   0.487 -1.1423  1.2515  0.0728
 8880TIP3    H248056   0.312   4.076   0.547  1.1007  1.4935 -0.4800
 8881TIP3   OH248057   0.405   2.711  11.455 -0.1871 -0.6359  0.2843
 8881TIP3    H148058   0.477   2.662  11.496  0.3853  1.1962  1.5093
 8881TIP3    H248059   0.397   2.790  11.508 -0.9599  0.7064 -1.8050
 8882TIP3   OH248060   3.513   6.700   5.242 -0.2627  0.3031  0.6600
 8882TIP3    H148061   3.540   6.649   5.318 -2.1958  0.2134  1.3059
 8882TIP3    H248062   3.543   6.789   5.260  0.7389 -0.0562  0.7679
 8883TIP3   OH248063   2.792   4.130   1.257  0.5113 -0.1699  0.3574
 8883TIP3    H148064   2.866   4.073   1.234  0.7560 -0.4959  1.8470
 8883TIP3    H248065   2.740   4.077   1.318 -0.3374  0.4722  0.1852
 8884TIP3   OH248066   5.837   4.181   0.065 -0.0605  0.1624  0.0127
 8884TIP3    H148067   5.819   4.107   0.006 -0.5489 -0.5930  1.0960
 8884TIP3    H248068   5.890   4.143   0.135 -0.9066  0.6797  0.9452
 8885TIP3   OH248069   0.275   2.341   4.864 -0.4158  0.3047  0.4221
 8885TIP3    H148070   0.183   2.316   4.872 -0.1763 -1.2702 -1.4871
 8885TIP3    H248071   0.274   2.424   4.816 -0.6989 -1.6245 -3.0506
 8886TIP3   OH248072   0.894   2.024  13.165 -0.7476 -0.2126  0.0615
 8886TIP3    H148073   0.825   2.028  13.232 -1.3992 -0.6942 -0.5799
 8886TIP3    H248074   0.863   1.960  13.101  0.9138 -1.4597  0.4545
 8887TIP3   OH248075   0.214   2.313  11.546  0.0573  0.1175  0.6925
 8887TIP3    H148076   0.214   2.322  11.451 -1.7673 -0.1726  0.6445
 8887TIP3    H248077   0.306   2.316  11.570  0.5452  0.1789 -1.0846
 8888TIP3   OH248078   1.277   4.352   2.141 -0.2143  0.3281  0.2249
 8888TIP3    H148079   1.190   4.314   2.151 -0.3750  0.4534 -0.6652
 8888TIP3    H248080   1.275   4.394   2.055  0.1634  1.8204  0.9263
 8889TIP3   OH248081   0.446   6.171  13.875 -0.8496 -0.0166  0.2218
 8889TIP3    H148082   0.424   6.172  13.969  0.9279  0.2481  0.6613
 8889TIP3    H248083   0.448   6.078  13.852  0.9549 -0.1974  1.0240
 8890TIP3   OH248084   5.235   4.697  12.093 -0.0186 -1.1257 -0.1305
 8890TIP3    H148085   5.188   4.746  12.161  1.5776  0.9474 -0.4688
 8890TIP3    H248086   5.184   4.713  12.014 -0.5500 -1.5865  0.1116
 8891TIP3   OH248087   0.550   2.134  15.996 -0.1989 -0.3816 -0.1249
 8891TIP3    H148088   0.493   2.115  16.070 -0.4678  1.7734  0.2688
 8891TIP3    H248089   0.629   2.081  16.011 -1.0038 -1.3545  0.7145
 8892TIP3   OH248090   1.262   1.975  14.998 -0.2250  0.3395 -0.5232
 8892TIP3    H148091   1.283   1.904  15.059 -0.0937  0.5663 -0.3018
 8892TIP3    H248092   1.178   2.009  15.030  0.4298  1.2546  0.2732
 8893TIP3   OH248093   0.766   3.160   4.053  0.6753  0.1284 -0.1903
 8893TIP3    H148094   0.700   3.170   3.984  1.0366 -0.2188 -0.5866
 8893TIP3    H248095   0.843   3.207   4.020  1.6476 -2.0277 -1.0813
 8894TIP3   OH248096   1.978   0.962   4.152 -0.1536  0.4211  0.0357
 8894TIP3    H148097   2.024   0.988   4.072  1.2476 -0.6778  0.4708
 8894TIP3    H248098   2.047   0.931   4.211 -1.5538 -2.5671  0.1929
 8895TIP3   OH248099   1.334   3.068   2.799 -0.1739  0.0607 -0.5020
 8895TIP3    H148100   1.303   3.045   2.711 -0.1545 -1.3082 -0.1620
 8895TIP3    H248101   1.321   3.163   2.805 -0.6107  0.0945 -1.8084
 8896TIP3   OH248102   1.528   2.279  14.921 -0.0092 -0.7036 -0.5340
 8896TIP3    H148103   1.535   2.341  14.848 -3.3098 -0.9531 -1.1330
 8896TIP3    H248104   1.536   2.193  14.879 -1.8775 -0.8469 -0.6181
 8897TIP3   OH248105   2.810   2.446   4.759  0.2115 -1.1369  0.1375
 8897TIP3    H148106   2.756   2.436   4.680 -1.1596  0.1184  0.8860
 8897TIP3    H248107   2.900   2.433   4.728 -0.2020  0.4506 -1.8642
 8898TIP3   OH248108   4.805   3.577  14.516 -0.0417 -0.3344 -0.4730
 8898TIP3    H148109   4.780   3.639  14.584 -0.6100 -1.0404 -0.0224
 8898TIP3    H248110   4.857   3.511  14.562  1.1562  0.1739 -1.0792
 8899TIP3   OH248111   4.639   0.330   0.164 -0.1900  0.7939  0.4075
 8899TIP3    H148112   4.568   0.395   0.170 -1.8768 -0.8720 -0.7060
 8899TIP3    H248113   4.598   0.255   0.120  2.3516 -0.1226 -0.4518
 8900TIP3   OH248114   0.943   1.975   2.245 -0.7631  0.0833  0.1050
 8900TIP3    H148115   0.953   1.906   2.310  0.3162  0.7218  0.6424
 8900TIP3    H248116   0.877   1.942   2.185 -0.3405 -1.3712  0.4077
 8901TIP3   OH248117   3.466   6.413   4.257  0.5642 -0.4454 -0.2094
 8901TIP3    H148118   3.395   6.425   4.194 -1.1024 -1.1478  1.4931
 8901TIP3    H248119   3.515   6.495   4.252 -0.0230 -0.1662 -1.8124
 8902TIP3   OH248120   6.220   4.481   2.542 -0.5007  0.2550 -0.5604
 8902TIP3    H148121   6.146   4.532   2.575 -0.0544 -0.0788  0.9984
 8902TIP3    H248122   6.180   4.404   2.503 -0.9530 -0.2270  0.8379
 8903TIP3   OH248123   0.101   0.788   2.034  0.2871  0.0540 -0.7490
 8903TIP3    H148124   0.069   0.715   2.086 -1.4216  1.2242 -0.0906
 8903TIP3    H248125   0.188   0.807   2.070 -0.7973  0.7565  1.6305
 8904TIP3   OH248126   1.214   0.063   5.476  0.2002  0.0646  0.0352
 8904TIP3    H148127   1.265   0.056   5.557  1.5008 -0.6389 -0.8369
 8904TIP3    H248128   1.144  -0.001   5.486  0.2893  0.0638  0.6558
 8905TIP3   OH248129   1.960   3.592  14.544  0.2480  0.0295 -0.5969
 8905TIP3    H148130   1.976   3.498  14.557 -1.1877 -0.1388  0.0555
 8905TIP3    H248131   1.869   3.596  14.514  0.2179  1.2384 -0.3464
 8906TIP3   OH248132   0.908   4.878  11.160 -0.2518 -0.0977 -0.2601
 8906TIP3    H148133   0.938   4.841  11.243 -1.5642 -0.7623 -0.0602
 8906TIP3    H248134   0.847   4.947  11.185  0.5137  0.7362 -0.6648
 8907TIP3   OH248135   6.098   3.837  12.293 -0.0472 -0.3558  0.3374
 8907TIP3    H148136   6.046   3.859  12.216  2.7827  1.4714 -1.1112
 8907TIP3    H248137   6.048   3.875  12.366 -1.4177  0.1869 -0.8558
 8908TIP3   OH248138   3.809   2.763   3.798  0.1744 -0.1193  0.1459
 8908TIP3    H148139   3.870   2.837   3.791  0.1387 -0.0744  0.3315
 8908TIP3    H248140   3.740   2.783   3.734  0.6140 -0.4149 -0.4298
 8909TIP3   OH248141   2.211   4.235  15.665  0.2374 -0.8279  0.2934
 8909TIP3    H148142   2.274   4.212  15.734 -0.8530 -1.5054  1.0823
 8909TIP3    H248143   2.128   4.198  15.695 -0.8002  1.0559 -0.1808
 8910TIP3   OH248144   6.315   2.146   2.271 -0.1293  0.5450 -0.1993
 8910TIP3    H148145   6.316   2.163   2.177  0.3420  0.2574 -0.2482
 8910TIP3    H248146   6.405   2.164   2.300 -0.1814  0.2912  0.1316
 8911TIP3   OH248147   3.268   2.156   4.405 -0.2631 -0.3020  0.0510
 8911TIP3    H148148   3.314   2.155   4.489 -1.7364 -0.4185  0.8843
 8911TIP3    H248149   3.331   2.192   4.343  2.2187 -3.8065  0.3878
 8912TIP3   OH248150   2.587   2.476   0.940  0.3127 -0.4820  0.2210
 8912TIP3    H148151   2.560   2.395   0.896 -2.1546  0.5563 -0.2411
 8912TIP3    H248152   2.610   2.536   0.869 -0.2449  0.0227  0.4606
 8913TIP3   OH248153   2.212   3.136  14.859  0.2531  0.1261 -0.2819
 8913TIP3    H148154   2.291   3.191  14.861 -0.1550  0.7016 -0.1261
 8913TIP3    H248155   2.141   3.196  14.836 -0.5948  0.1394  2.2238
 8914TIP3   OH248156   5.641   1.524   4.603  0.1086  0.5924  0.0574
 8914TIP3    H148157   5.692   1.547   4.681  1.6472 -0.0463 -0.7340
 8914TIP3    H248158   5.642   1.428   4.601  0.5954  0.6075 -1.0464
 8915TIP3   OH248159   4.589   2.359  15.710 -0.0167 -0.2832  0.1823
 8915TIP3    H148160   4.605   2.421  15.639 -1.0612  0.7547  0.8479
 8915TIP3    H248161   4.546   2.285  15.668  0.7150 -0.3218 -0.5150
 8916TIP3   OH248162   2.044   0.834  14.023 -0.1340  0.0595 -0.0768
 8916TIP3    H148163   1.977   0.899  14.003 -0.4361 -0.4649 -0.7700
 8916TIP3    H248164   2.126   0.877  14.000 -0.0656  1.3667  2.4259
 8917TIP3   OH248165   4.774   3.001   4.592 -0.0390  0.4393  0.1362
 8917TIP3    H148166   4.691   2.989   4.637  0.6256 -1.5961  0.9052
 8917TIP3    H248167   4.762   3.079   4.538 -2.2755  0.4239  0.5751
 8918TIP3   OH248168   0.505   2.564  13.176  0.1583 -0.0515 -0.4958
 8918TIP3    H148169   0.523   2.475  13.147  1.4314  0.6260 -1.8449
 8918TIP3    H248170   0.558   2.619  13.118 -1.9839  1.6922 -0.8554
 8919TIP3   OH248171   5.777   1.339   1.924  0.1497  0.8137 -0.0870
 8919TIP3    H148172   5.824   1.301   1.850  0.9164  1.9813 -0.2169
 8919TIP3    H248173   5.828   1.312   2.001 -1.1453 -1.1484  0.1128
 8920TIP3   OH248174   4.884   5.099   2.364  0.6346  0.4702  0.3605
 8920TIP3    H148175   4.883   5.191   2.340 -2.0138  0.7401  1.3330
 8920TIP3    H248176   4.832   5.056   2.296  0.6656 -0.0876  0.6828
 8921TIP3   OH248177   3.464   5.964  12.657 -0.5154 -0.1792 -0.5733
 8921TIP3    H148178   3.372   5.986  12.647 -0.5809  0.0337  0.4370
 8921TIP3    H248179   3.505   6.045  12.688 -0.7742 -1.4437  3.2263
 8922TIP3   OH248180   1.131   3.213   2.993 -0.2693 -0.3219  0.0536
 8922TIP3    H148181   1.043   3.191   2.964 -0.4455 -0.3063  0.5597
 8922TIP3    H248182   1.118   3.261   3.075  0.2249 -0.6340  0.3194
 8923TIP3   OH248183   3.633   5.421  13.123 -0.5974 -0.0558  0.3907
 8923TIP3    H148184   3.540   5.399  13.119 -0.5135 -0.5404  1.0231
 8923TIP3    H248185   3.658   5.403  13.214  0.0133  0.4750  0.3293
 8924TIP3   OH248186   4.252   1.277  13.930  0.5077  0.3166 -0.1150
 8924TIP3    H148187   4.164   1.315  13.936  1.0791  1.6516 -0.0875
 8924TIP3    H248188   4.260   1.249  13.839  0.4615  1.1755 -0.3826
 8925TIP3   OH248189   4.959   1.796   0.530  0.5213  0.1775  0.0641
 8925TIP3    H148190   4.929   1.822   0.617  0.4379  2.1244 -0.5366
 8925TIP3    H248191   4.889   1.740   0.496  0.8649 -1.1665  1.4999
 8926TIP3   OH248192   0.198   5.452  16.098  0.4977 -0.3552 -0.0187
 8926TIP3    H148193   0.141   5.382  16.130 -0.1282 -0.1920 -0.7669
 8926TIP3    H248194   0.204   5.436  16.004  0.9409  0.1759 -0.0818
 8927TIP3   OH248195   1.508   2.335  13.446  0.5101  0.5274 -0.6405
 8927TIP3    H148196   1.471   2.419  13.474 -0.4720  0.0558 -0.4984
 8927TIP3    H248197   1.467   2.318  13.361 -0.2906 -0.4361 -0.0654
 8928TIP3   OH248198   0.341   6.620   3.939 -0.1407 -0.9158 -0.0501
 8928TIP3    H148199   0.327   6.695   3.881 -0.4243 -0.1387  1.0039
 8928TIP3    H248200   0.253   6.593   3.964  0.0471  0.5816  2.3119
 8929TIP3   OH248201   4.370   5.806  16.759 -0.8444  0.1793 -0.5003
 8929TIP3    H148202   4.340   5.718  16.737  2.2886 -0.9984 -0.3744
 8929TIP3    H248203   4.366   5.810  16.854  0.4681 -0.4214 -0.4061
 8930TIP3   OH248204   3.589   4.870   4.489 -0.8190 -0.7342  0.2518
 8930TIP3    H148205   3.612   4.885   4.398 -2.4648  1.3932  0.1503
 8930TIP3    H248206   3.575   4.957   4.526 -1.0743 -1.5978  2.3093
 8931TIP3   OH248207   0.916   6.709   6.082 -0.2568  0.3064 -0.3990
 8931TIP3    H148208   0.940   6.766   6.156 -1.4024 -2.7442  2.4874
 8931TIP3    H248209   0.821   6.714   6.078 -0.2121  0.3114 -1.5740
 8932TIP3   OH248210   6.113   3.209  14.922 -0.1708 -0.0261 -0.2669
 8932TIP3    H148211   6.019   3.225  14.934 -0.1505 -0.3922  0.4100
 8932TIP3    H248212   6.134   3.251  14.839 -0.9849 -0.1498 -0.5392
 8933TIP3   OH248213   4.513   4.449   3.300 -0.3435 -0.1686 -0.1386
 8933TIP3    H148214   4.513   4.409   3.213  0.2173  0.7051 -0.5491
 8933TIP3    H248215   4.525   4.543   3.283 -2.2966  0.2656  0.7648
 8934TIP3   OH248216   6.107   1.711  12.243 -0.5143  0.3711  0.1954
 8934TIP3    H148217   6.162   1.700  12.166 -0.4605 -0.6237  0.3674
 8934TIP3    H248218   6.033   1.652  12.228 -1.1617  1.1586  0.2976
 8935TIP3   OH248219   5.005   3.027   5.820  0.3480 -0.3492 -0.1112
 8935TIP3    H148220   5.046   3.060   5.740  1.7620 -0.3120  0.6105
 8935TIP3    H248221   5.028   3.091   5.887 -1.1794 -0.1624  0.2529
 8936TIP3   OH248222   6.272   4.736   4.179  0.5439 -0.7276 -0.2846
 8936TIP3    H148223   6.246   4.648   4.208  2.1337 -0.9625  0.5383
 8936TIP3    H248224   6.212   4.795   4.224  0.5219 -1.3178  0.4800
 8937TIP3   OH248225   5.348   2.878  13.085  0.4320  0.0652  0.1053
 8937TIP3    H148226   5.310   2.965  13.099 -1.6392 -0.7570 -0.2402
 8937TIP3    H248227   5.310   2.849  13.002  1.3669 -1.0460  0.0539
 8938TIP3   OH248228   2.973   0.657   4.356  0.2520  0.0643 -0.4536
 8938TIP3    H148229   2.910   0.701   4.299  0.7113  0.6289 -0.5337
 8938TIP3    H248230   3.041   0.626   4.296  0.4779  0.2087 -0.2737
 8939TIP3   OH248231   5.863   2.635   1.414  0.3622  1.0340 -0.0182
 8939TIP3    H148232   5.874   2.594   1.500 -0.7992  1.1711  0.2030
 8939TIP3    H248233   5.951   2.667   1.392  1.4167 -1.9441 -0.3949
 8940TIP3   OH248234   5.990   1.987   5.343  0.0469 -0.6197 -0.3153
 8940TIP3    H148235   6.036   1.927   5.402 -0.7798 -0.2165  0.7751
 8940TIP3    H248236   6.013   2.075   5.375 -1.3686 -0.4105  0.2006
 8941TIP3   OH248237   2.342   4.238   4.164  0.4692 -0.0327  0.0464
 8941TIP3    H148238   2.362   4.316   4.114  0.5324  0.1939  0.4278
 8941TIP3    H248239   2.257   4.209   4.130 -0.2200  0.9887  0.8702
 8942TIP3   OH248240   3.230   1.739   3.455 -0.2227 -0.3799  0.3364
 8942TIP3    H148241   3.251   1.734   3.548 -1.4262 -0.9976  0.5828
 8942TIP3    H248242   3.147   1.693   3.447 -0.3622  0.0875 -0.9704
 8943TIP3   OH248243   1.846   3.204  17.013  0.0059 -0.2726  0.6608
 8943TIP3    H148244   1.837   3.139  17.082 -0.6666  0.3618  1.1783
 8943TIP3    H248245   1.764   3.201  16.964  0.9774 -1.6439 -0.9534
 8944TIP3   OH248246   2.975   5.908   0.693 -0.0183 -0.2821  0.5913
 8944TIP3    H148247   2.995   5.948   0.608  1.1233  1.7529  1.7677
 8944TIP3    H248248   2.976   5.982   0.754  2.5794 -2.1619  2.9353
 8945TIP3   OH248249   5.046   3.092  13.591  0.1135  0.0429  0.0626
 8945TIP3    H148250   5.027   3.065  13.681 -1.8460 -1.5505 -0.7887
 8945TIP3    H248251   5.049   3.010  13.542 -0.6251  1.0195 -1.6489
 8946TIP3   OH248252   6.684   1.285   2.928  0.1312  0.1603 -0.1716
 8946TIP3    H148253   6.636   1.314   2.851 -1.2366  1.5188  1.1621
 8946TIP3    H248254   6.748   1.221   2.894 -1.0275  0.0790 -2.2761
 8947TIP3   OH248255   2.551   5.146   5.455  1.0010 -0.0881 -0.5161
 8947TIP3    H148256   2.481   5.169   5.395  1.0685 -0.2632 -0.6633
 8947TIP3    H248257   2.514   5.160   5.542  0.8442 -0.0059 -0.5965
 8948TIP3   OH248258   6.073   5.219   4.166  0.1314  0.4062  0.3455
 8948TIP3    H148259   6.069   5.256   4.254 -1.8400 -2.7844  1.6905
 8948TIP3    H248260   6.014   5.274   4.114 -3.9271 -1.5171  2.6503
 8949TIP3   OH248261   6.595   3.626   4.031  0.6189 -0.2097  0.9121
 8949TIP3    H148262   6.583   3.532   4.036 -2.0183  0.0459  0.2810
 8949TIP3    H248263   6.546   3.661   4.105 -1.5956  0.8387 -0.9736
 8950TIP3   OH248264   0.502   2.694   4.509 -0.3947  0.1816  0.3139
 8950TIP3    H148265   0.528   2.728   4.595  0.1698  1.7458 -0.4516
 8950TIP3    H248266   0.450   2.616   4.529  0.9973 -0.3488  2.0276
 8951TIP3   OH248267   0.708   6.461   0.133 -0.0395 -0.1892  0.2752
 8951TIP3    H148268   0.696   6.471   0.038 -1.6884  0.9775  0.5689
 8951TIP3    H248269   0.723   6.368   0.146 -1.1631 -0.5705 -1.0159
 8952TIP3   OH248270   0.886   2.026  13.699  0.2668  0.1906  0.1858
 8952TIP3    H148271   0.905   2.093  13.632 -1.0502 -1.5472 -2.0189
 8952TIP3    H248272   0.794   2.041  13.723  0.2484 -0.2102  0.3756
 8953TIP3   OH248273   6.491   5.255   5.340  0.0926  0.0649 -0.0490
 8953TIP3    H148274   6.472   5.349   5.332 -0.8608  0.3333  4.4812
 8953TIP3    H248275   6.405   5.215   5.354  0.9343 -0.9341  2.3756
 8954TIP3   OH248276   6.299   0.021   1.145  0.2654  0.5245 -0.0304
 8954TIP3    H148277   6.359  -0.053   1.153  0.3063  0.6620  1.0467
 8954TIP3    H248278   6.215  -0.018   1.123  0.5477  0.2583 -0.6418
 8955TIP3   OH248279   4.973   6.263   5.312  0.4514 -0.5921  0.5246
 8955TIP3    H148280   4.978   6.355   5.339 -1.7067 -0.1267 -0.5555
 8955TIP3    H248281   5.013   6.261   5.225 -1.8083 -0.1489 -0.5686
 8956TIP3   OH248282   2.125   3.594   6.170 -0.3932 -0.1274  0.4094
 8956TIP3    H148283   2.200   3.640   6.207 -0.6527  0.6304  0.0002
 8956TIP3    H248284   2.068   3.663   6.137  0.9388 -0.8509 -3.5918
 8957TIP3   OH248285   5.890   5.604  11.348 -0.6546  0.7147  0.0267
 8957TIP3    H148286   5.885   5.684  11.296 -1.9282  0.8779  0.3953
 8957TIP3    H248287   5.894   5.634  11.439  1.3666  0.4262  0.0758
 8958TIP3   OH248288   5.726   3.996   3.821 -0.4348 -0.5657  0.7256
 8958TIP3    H148289   5.712   4.059   3.750  1.1107 -0.0121  0.8956
 8958TIP3    H248290   5.645   3.944   3.823 -1.1162  0.4192 -0.4100
 8959TIP3   OH248291   6.635   3.932   5.713  0.1533  0.5939  0.4778
 8959TIP3    H148292   6.565   3.875   5.746 -0.5235  0.7407 -0.6708
 8959TIP3    H248293   6.601   3.964   5.629  1.5853  0.7060 -0.0631
 8960TIP3   OH248294   0.318   6.115   2.326  0.0849 -0.1429 -0.2947
 8960TIP3    H148295   0.390   6.092   2.268 -0.8725 -0.5068 -1.3508
 8960TIP3    H248296   0.240   6.109   2.271 -0.7929 -0.1434  0.9351
 8961TIP3   OH248297   4.893   5.366   5.100  0.4637 -0.0986 -0.1051
 8961TIP3    H148298   4.863   5.289   5.148  1.3404 -0.5179 -0.2208
 8961TIP3    H248299   4.828   5.378   5.031 -1.9822  1.7463  2.3853
 8962TIP3   OH248300   5.762   2.310   4.961 -0.1263  0.4952  0.0871
 8962TIP3    H148301   5.805   2.225   4.970 -1.4633 -0.4936 -2.4879
 8962TIP3    H248302   5.684   2.304   5.016 -0.1877  0.0779 -0.0471
 8963TIP3   OH248303   5.839   2.234   5.250  0.2801  0.1028  0.1526
 8963TIP3    H148304   5.790   2.174   5.306 -1.1984  2.2926  1.3055
 8963TIP3    H248305   5.831   2.198   5.162 -2.3128 -0.3313  0.5235
 8964TIP3   OH248306   0.128   3.021  11.618 -0.0978 -0.5114 -0.0907
 8964TIP3    H148307   0.114   3.098  11.673  1.7135 -0.4181  0.2526
 8964TIP3    H248308   0.059   3.027  11.552 -0.4855  0.9542  0.4182
 8965TIP3   OH248309   1.872   4.604  12.709 -0.2555  0.2723  0.4252
 8965TIP3    H148310   1.848   4.666  12.641  0.4558 -1.6570 -1.6410
 8965TIP3    H248311   1.888   4.522  12.662 -0.8628 -1.3994  3.0395
 8966TIP3   OH248312   4.228   5.794   1.704 -0.1050 -0.2630 -0.0985
 8966TIP3    H148313   4.192   5.832   1.785  1.8509  0.6607  0.3681
 8966TIP3    H248314   4.275   5.866   1.663  3.1382 -1.9519  0.4780
 8967TIP3   OH248315   0.632   6.230  16.567  0.3395 -0.1053 -0.2888
 8967TIP3    H148316   0.669   6.292  16.629 -0.2163 -0.4838  0.4329
 8967TIP3    H248317   0.698   6.222  16.498  0.0970  1.8482 -0.7703
 8968TIP3   OH248318   0.474   2.017   4.512 -0.4661 -0.1550  0.6257
 8968TIP3    H148319   0.399   1.965   4.484 -0.9919 -0.0141  1.7335
 8968TIP3    H248320   0.444   2.062   4.591  0.5009  0.5882  0.5838
 8969TIP3   OH248321   6.415   1.883  14.979 -0.4570 -0.0050  0.1301
 8969TIP3    H148322   6.399   1.827  15.055 -0.9473  0.9441  0.7390
 8969TIP3    H248323   6.449   1.824  14.912 -0.4952 -0.9381  0.9258
 8970TIP3   OH248324   2.462   0.106   2.430  0.1582  0.2368 -0.3253
 8970TIP3    H148325   2.500   0.100   2.342 -1.1561  1.5242 -0.9997
 8970TIP3    H248326   2.505   0.181   2.470  1.4282 -0.9003  0.4913
 8971TIP3   OH248327   4.318   0.380   0.949 -0.0475 -0.3045  0.3699
 8971TIP3    H148328   4.333   0.288   0.970 -0.5305 -0.1045  1.6090
 8971TIP3    H248329   4.294   0.379   0.856 -0.6000 -1.4974  0.5103
 8972TIP3   OH248330   6.252   1.906  16.524  0.0045 -0.4248  0.3379
 8972TIP3    H148331   6.303   1.832  16.491  0.9077 -0.2528  1.3137
 8972TIP3    H248332   6.256   1.971  16.454 -0.5800 -1.1914 -0.4215
 8973TIP3   OH248333   3.375   4.937   5.307 -0.0628  0.0993  0.3830
 8973TIP3    H148334   3.295   4.962   5.261  0.0628  0.3298  0.2897
 8973TIP3    H248335   3.445   4.982   5.260  0.4081 -2.1515 -1.1776
 8974TIP3   OH248336   3.716   2.490   2.333 -0.5917 -0.1227 -0.2138
 8974TIP3    H148337   3.738   2.445   2.415 -1.2880  2.0533  1.2107
 8974TIP3    H248338   3.779   2.562   2.328 -1.1441  0.2945 -1.1175
 8975TIP3   OH248339   6.303   4.015   2.943  0.2946 -0.2668 -0.2504
 8975TIP3    H148340   6.288   3.920   2.940 -0.8012 -0.1487  0.8883
 8975TIP3    H248341   6.254   4.049   2.867  0.2573 -0.5598 -0.3593
 8976TIP3   OH248342   2.529   1.418   0.965 -0.3348 -0.2524  0.0901
 8976TIP3    H148343   2.569   1.337   0.995  0.9177  0.0542 -0.7320
 8976TIP3    H248344   2.553   1.424   0.873  1.3690  2.1270  0.6555
 8977TIP3   OH248345   5.069   0.039  16.761  0.1157 -0.0246 -0.0766
 8977TIP3    H148346   5.111   0.125  16.759  0.5557 -0.2294  0.1322
 8977TIP3    H248347   5.086   0.003  16.674  1.6260 -0.6875  0.4720
 8978TIP3   OH248348   1.505   5.147   0.266  0.9995  0.4838  0.4274
 8978TIP3    H148349   1.544   5.070   0.307 -1.6662 -0.5489  1.1207
 8978TIP3    H248350   1.450   5.185   0.335  1.6519  2.5648 -0.1664
 8979TIP3   OH248351   2.679   2.712   1.749 -0.2975 -0.9411  0.0735
 8979TIP3    H148352   2.732   2.730   1.671  0.4456 -0.8213  0.5941
 8979TIP3    H248353   2.608   2.776   1.745  0.9400  0.5087  0.6008
 8980TIP3   OH248354   4.202   6.194  17.217  0.2620 -0.5931 -0.1145
 8980TIP3    H148355   4.274   6.239  17.171  0.8016 -2.0466 -0.7197
 8980TIP3    H248356   4.193   6.242  17.299  2.1460 -0.5815  0.1101
 8981TIP3   OH248357   0.971   3.212  10.955  0.5612  0.0499 -0.5213
 8981TIP3    H148358   0.942   3.160  11.030  0.1952 -0.1447 -0.7970
 8981TIP3    H248359   0.900   3.205  10.892  0.7555  0.4312 -0.7830
 8982TIP3   OH248360   2.864   3.839  16.370 -0.0230  0.4176 -0.3098
 8982TIP3    H148361   2.883   3.930  16.349 -0.2960  1.0724  2.1372
 8982TIP3    H248362   2.917   3.821  16.448 -1.2823 -0.9787  0.2491
 8983TIP3   OH248363   3.019   2.140  16.646  0.0921 -0.0945 -0.7478
 8983TIP3    H148364   2.970   2.153  16.727  0.0869 -0.8425 -0.6200
 8983TIP3    H248365   2.970   2.188  16.580  0.3667  0.9203 -0.2163
 8984TIP3   OH248366   3.104   1.390   0.947 -0.2849 -0.6505 -0.5485
 8984TIP3    H148367   3.079   1.349   0.864 -1.4210  0.9825 -1.0418
 8984TIP3    H248368   3.152   1.469   0.921 -1.7849  0.5710  0.2974
 8985TIP3   OH248369   1.583   4.376   1.459 -0.0782  0.2456  0.1399
 8985TIP3    H148370   1.574   4.412   1.370 -0.5208 -0.9689 -0.3112
 8985TIP3    H248371   1.499   4.333   1.476 -0.2299  1.0101  1.4009
 8986TIP3   OH248372   3.025   6.675   0.838 -0.0447  0.0670  0.0001
 8986TIP3    H148373   3.019   6.711   0.926 -1.9541  1.5569 -0.7095
 8986TIP3    H248374   2.974   6.594   0.842  3.1461 -2.0063  1.2410
 8987TIP3   OH248375   4.252   0.354   5.325  0.0565  0.1770  0.2890
 8987TIP3    H148376   4.303   0.433   5.307  1.9626 -0.8416  1.0746
 8987TIP3    H248377   4.206   0.374   5.407 -0.9684  1.1769 -0.5240
 8988TIP3   OH248378   0.810   1.517  14.739 -0.2671 -0.2202  0.5752
 8988TIP3    H148379   0.731   1.519  14.793 -0.8882  0.1197 -0.3293
 8988TIP3    H248380   0.799   1.590  14.678  0.2354 -0.8402 -0.2635
 8989TIP3   OH248381   6.274   5.773  13.337 -0.1236  0.2767  0.3482
 8989TIP3    H148382   6.357   5.727  13.323  0.7318  1.4987  1.4042
 8989TIP3    H248383   6.250   5.751  13.427  0.2712  1.8577  0.8442
 8990TIP3   OH248384   3.058   2.126   4.244 -0.3340 -0.4897 -0.0160
 8990TIP3    H148385   3.135   2.156   4.291 -1.3419  1.7981  0.2286
 8990TIP3    H248386   3.092   2.080   4.167  1.2641  1.5334 -0.5431
 8991TIP3   OH248387   6.379   3.716   4.288 -0.2904  0.1972  0.0505
 8991TIP3    H148388   6.324   3.725   4.365 -0.7444  0.4106 -0.2910
 8991TIP3    H248389   6.359   3.629   4.253 -0.5980  0.3714 -0.2123
 8992TIP3   OH248390   6.737   2.294  15.055 -0.3473  0.3931 -0.0163
 8992TIP3    H148391   6.650   2.254  15.060 -0.7553  0.9417 -2.1328
 8992TIP3    H248392   6.750   2.310  14.961  3.4117 -2.6901 -0.1532
 8993TIP3   OH248393   5.409   3.388  13.161  0.0264 -0.3529 -0.8097
 8993TIP3    H148394   5.435   3.439  13.238  1.8470 -3.2919  0.6506
 8993TIP3    H248395   5.475   3.410  13.095 -0.1779  0.4551 -0.7411
 8994TIP3   OH248396   0.784   6.457   4.495 -0.1309 -0.0660 -0.0556
 8994TIP3    H148397   0.820   6.545   4.478 -0.0799 -0.0676  0.0445
 8994TIP3    H248398   0.691   6.472   4.510  0.4114  0.4085  3.2883
 8995TIP3   OH248399   0.457   4.775   0.419  0.1736  0.4232 -0.4334
 8995TIP3    H148400   0.488   4.789   0.330  0.6517  0.7354 -0.2162
 8995TIP3    H248401   0.363   4.793   0.415 -0.0976 -1.0812 -1.2137
 8996TIP3   OH248402   3.373   4.631   1.739  0.0177  0.1652 -0.4021
 8996TIP3    H148403   3.447   4.600   1.791  0.9533 -1.3121 -2.5463
 8996TIP3    H248404   3.296   4.592   1.780  0.8428 -1.8722 -0.7770
 8997TIP3   OH248405   5.089   5.315   0.760 -0.1154  0.1674 -0.0053
 8997TIP3    H148406   5.165   5.294   0.707 -1.3580  2.1321 -2.6716
 8997TIP3    H248407   5.066   5.233   0.804  4.4099 -0.0901  2.1309
 8998TIP3   OH248408   3.951   4.267  12.352  0.5399  0.3725 -0.0672
 8998TIP3    H148409   3.954   4.323  12.274 -0.6101 -2.2940 -2.0825
 8998TIP3    H248410   3.858   4.261  12.373  0.6870 -0.5595  0.3145
 8999TIP3   OH248411   6.615   3.957  14.718  0.4845  0.4189 -0.6125
 8999TIP3    H148412   6.579   4.019  14.654 -1.9807 -1.0649 -0.7260
 8999TIP3    H248413   6.649   3.885  14.665 -1.9104 -0.9907 -0.2737
 9000TIP3   OH248414   2.993   0.178  11.423  0.6358  0.2813  0.2441
 9000TIP3    H148415   2.905   0.161  11.389  0.1461 -0.6977  1.9430
 9000TIP3    H248416   3.043   0.099  11.402  0.4100 -0.2070  1.5424
 9001TIP3   OH248417   5.568   0.226   1.752 -0.2188  0.0962 -0.6239
 9001TIP3    H148418   5.634   0.213   1.820 -1.0069 -2.6476 -0.3281
 9001TIP3    H248419   5.613   0.206   1.670 -0.3444 -0.5398 -0.5380
 9002TIP3   OH248420   0.141   5.817   6.086  1.0229 -0.4288 -0.6272
 9002TIP3    H148421   0.050   5.831   6.112  1.3596  0.6443 -0.0153
 9002TIP3    H248422   0.190   5.822   6.168  1.5612 -1.6876 -0.8607
 9003TIP3   OH248423   2.028   6.673   4.733  0.5192 -0.5716  0.2512
 9003TIP3    H148424   2.055   6.594   4.780 -1.7421 -0.4225  1.8853
 9003TIP3    H248425   2.076   6.744   4.775  2.4637 -1.0291 -1.1376
 9004TIP3   OH248426   2.091   6.145   1.302  0.1559  0.1727  0.7441
 9004TIP3    H148427   2.104   6.187   1.386  1.9613 -1.4419  1.2957
 9004TIP3    H248428   2.029   6.201   1.256 -0.5129  1.2807  2.9797
 9005TIP3   OH248429   2.627   2.924  10.356  0.5748  0.2855 -0.1198
 9005TIP3    H148430   2.540   2.895  10.383  0.3926  1.7258  0.8741
 9005TIP3    H248431   2.667   2.846  10.316 -0.6048 -0.7860  0.7688
 9006TIP3   OH248432   5.898   4.672  12.524 -0.5612  0.0262 -0.1863
 9006TIP3    H148433   5.905   4.765  12.548  2.1870  0.3312 -2.0024
 9006TIP3    H248434   5.853   4.632  12.598  0.7566  2.3152  1.9295
 9007TIP3   OH248435   0.965   5.683  13.443 -0.0226  0.3945 -0.6681
 9007TIP3    H148436   0.933   5.693  13.353  0.9918  1.1638 -0.9485
 9007TIP3    H248437   0.915   5.609  13.477  0.0656 -0.3547 -2.0972
 9008TIP3   OH248438   4.426   5.311  15.137 -0.2862 -0.5269  0.4099
 9008TIP3    H148439   4.370   5.386  15.121  0.5374  0.4271  1.8439
 9008TIP3    H248440   4.513   5.349  15.152  0.6492 -1.9298 -1.2915
 9009TIP3   OH248441   4.425   0.123  13.748 -0.6108 -0.0600  0.0613
 9009TIP3    H148442   4.387   0.210  13.758 -0.3600  0.0921 -0.2842
 9009TIP3    H248443   4.372   0.082  13.679 -1.6560 -0.7158  1.2274
 9010TIP3   OH248444   0.092   6.056   2.680 -0.1065 -0.3536 -0.0625
 9010TIP3    H148445   0.171   6.024   2.636  0.3788  1.6290 -0.6849
 9010TIP3    H248446   0.076   5.992   2.750  1.0274 -1.7319 -1.0237
 9011TIP3   OH248447   6.610   4.132   4.053 -0.4607 -0.6831  0.2911
 9011TIP3    H148448   6.551   4.134   3.978 -1.4020 -2.1847  0.9772
 9011TIP3    H248449   6.660   4.051   4.042  0.4997 -0.1245  0.4626
 9012TIP3   OH248450   4.324   3.880  11.964 -0.3788  0.1680  0.0557
 9012TIP3    H148451   4.267   3.893  12.040  1.1642  2.5206  0.8394
 9012TIP3    H248452   4.369   3.797  11.982  2.8861  2.6045  3.6665
 9013TIP3   OH248453   0.219   0.531   5.623  0.4693  0.0164 -0.6580
 9013TIP3    H148454   0.203   0.484   5.705  1.0188  1.8624  0.5432
 9013TIP3    H248455   0.289   0.483   5.580 -1.7013 -2.6036 -1.4187
 9014TIP3   OH248456   1.237   2.582   0.914  0.2319  0.0601 -0.1546
 9014TIP3    H148457   1.167   2.646   0.898  1.3808  1.6104  0.9495
 9014TIP3    H248458   1.279   2.572   0.828  0.5712  1.4420 -0.1723
 9015TIP3   OH248459   5.031   1.453   5.549 -0.8957 -0.1481 -0.0097
 9015TIP3    H148460   5.102   1.496   5.502 -1.0491  1.5556  1.2659
 9015TIP3    H248461   5.047   1.473   5.641 -2.1992 -0.9946  0.4196
 9016TIP3   OH248462   1.897   1.364   6.778  0.5690 -0.0293 -0.4658
 9016TIP3    H148463   1.976   1.415   6.761  2.0246 -2.0786 -0.1108
 9016TIP3    H248464   1.830   1.429   6.798  2.0915  1.7644 -1.0244
 9017TIP3   OH248465   3.271   6.366   4.458 -0.5552  0.1961 -0.1435
 9017TIP3    H148466   3.257   6.437   4.521 -1.5918 -0.1482  0.0235
 9017TIP3    H248467   3.338   6.400   4.399  1.2313  0.1358  1.7557
 9018TIP3   OH248468   6.663   4.872  12.784  0.1349  0.0296 -0.3504
 9018TIP3    H148469   6.667   4.786  12.827 -3.2773 -0.0462 -0.0102
 9018TIP3    H248470   6.703   4.932  12.846 -0.6098 -0.8084  0.9641
 9019TIP3   OH248471   0.733   3.380   1.243 -0.2073 -0.0441  0.3354
 9019TIP3    H148472   0.714   3.287   1.241  0.1337 -0.1037 -0.1366
 9019TIP3    H248473   0.676   3.415   1.312  1.4230 -0.9858  2.2060
 9020TIP3   OH248474   1.477   0.886   5.351  0.2088  0.7302 -0.7021
 9020TIP3    H148475   1.535   0.846   5.286 -0.6160 -2.0442  0.2009
 9020TIP3    H248476   1.445   0.812   5.403 -1.1706  2.6253  1.2197
 9021TIP3   OH248477   0.819   2.448   0.529  0.3139 -0.3201  0.1273
 9021TIP3    H148478   0.856   2.384   0.590  2.1227  2.4551  2.0446
 9021TIP3    H248479   0.724   2.432   0.532  0.6845 -2.6057  0.8354
 9022TIP3   OH248480   3.260   1.810   5.029 -0.0681 -0.0861 -0.4893
 9022TIP3    H148481   3.192   1.742   5.030 -1.2106  1.0133 -1.1932
 9022TIP3    H248482   3.224   1.879   4.973  1.1532  1.0252  0.0592
 9023TIP3   OH248483   1.645   3.931  15.128 -0.2077 -0.0647 -0.7114
 9023TIP3    H148484   1.624   3.999  15.064  0.8571 -1.1975 -2.3037
 9023TIP3    H248485   1.729   3.959  15.166  0.8426 -1.0496 -2.2312
 9024TIP3   OH248486   0.985   0.257   4.148 -0.6064  0.7639 -0.0764
 9024TIP3    H148487   1.031   0.232   4.067 -0.4394 -0.6670  0.4506
 9024TIP3    H248488   1.054   0.263   4.214 -0.9687  0.1968  0.3536
 9025TIP3   OH248489   6.706   1.671   1.725  0.1063  0.1689 -0.5132
 9025TIP3    H148490   6.786   1.619   1.726  0.3956  0.6048 -0.7450
 9025TIP3    H248491   6.638   1.611   1.755  0.8131  0.2845  1.3686
 9026TIP3   OH248492   1.424   1.885   3.844 -0.3484 -0.2855  0.1082
 9026TIP3    H148493   1.369   1.808   3.849 -1.4263  0.5502  1.5515
 9026TIP3    H248494   1.484   1.877   3.919 -0.0352 -0.0503 -0.1127
 9027TIP3   OH248495   1.333   5.397  12.203  0.2693  0.3671 -0.1775
 9027TIP3    H148496   1.284   5.427  12.280 -0.5032  0.6473 -0.7647
 9027TIP3    H248497   1.279   5.424  12.128  0.7384 -0.3879 -0.8039
 9028TIP3   OH248498   3.643   4.653  12.213  0.1573 -0.2323 -0.6066
 9028TIP3    H148499   3.578   4.719  12.192  0.3692  1.2751  3.1042
 9028TIP3    H248500   3.726   4.692  12.186 -0.1025 -0.6042 -1.9472
 9029TIP3   OH248501   2.061   2.131   0.716  0.1342  0.6037  0.3276
 9029TIP3    H148502   2.147   2.113   0.677 -0.9051  0.6786 -2.0821
 9029TIP3    H248503   2.053   2.226   0.713 -0.4363  0.5392 -0.3890
 9030TIP3   OH248504   5.143   0.262  11.487  0.4829 -0.0498  0.2994
 9030TIP3    H148505   5.172   0.172  11.504  1.6535  0.0410 -1.1915
 9030TIP3    H248506   5.135   0.267  11.392 -0.8965  1.0348  0.4605
 9031TIP3   OH248507   1.905   5.105   4.652 -0.5093  0.1030  0.0727
 9031TIP3    H148508   1.985   5.132   4.607 -0.8239 -1.3825 -1.4186
 9031TIP3    H248509   1.936   5.069   4.736  0.6657 -2.9151 -1.5737
 9032TIP3   OH248510   3.084   5.115  12.910 -0.0584 -0.1329 -0.3474
 9032TIP3    H148511   3.109   5.129  13.002 -0.3215 -1.0933 -0.1220
 9032TIP3    H248512   3.079   5.203  12.873 -0.2244  0.2863  0.6363
 9033TIP3   OH248513   3.099   3.588   5.378 -0.1742 -0.2244 -0.6842
 9033TIP3    H148514   3.085   3.653   5.308 -0.6366  0.4283  0.0064
 9033TIP3    H248515   3.121   3.640   5.455  1.4401 -1.0058 -0.5986
 9034TIP3   OH248516   4.797   4.807   3.673 -0.4311 -0.0850  0.1804
 9034TIP3    H148517   4.892   4.798   3.683 -0.2370  0.1602 -1.3386
 9034TIP3    H248518   4.787   4.882   3.614 -1.5729 -0.1614  0.2761
 9035TIP3   OH248519   3.985   5.913   5.096  0.2279 -0.5982  0.4137
 9035TIP3    H148520   3.950   5.999   5.120 -2.4445 -1.5012 -0.0905
 9035TIP3    H248521   3.973   5.860   5.175  2.1016 -0.4857  0.8083
 9036TIP3   OH248522   3.618   5.527   1.971 -0.0741 -0.4721  0.6092
 9036TIP3    H148523   3.527   5.521   1.942  0.2270  0.9847 -0.6839
 9036TIP3    H248524   3.650   5.437   1.971 -1.2865 -0.9043  0.3484
 9037TIP3   OH248525   0.325   4.378  13.933  0.6451 -0.6103  0.1209
 9037TIP3    H148526   0.405   4.383  13.985 -0.1638 -0.6340  1.4033
 9037TIP3    H248527   0.278   4.303  13.969 -0.9442  0.6989  0.8529
 9038TIP3   OH248528   5.107   1.396   2.717  0.2013 -0.7512 -0.3474
 9038TIP3    H148529   5.195   1.393   2.678  0.8865  2.9704  0.7005
 9038TIP3    H248530   5.103   1.481   2.760 -4.0573 -0.7443 -0.5662
 9039TIP3   OH248531   1.327   0.622   1.394  0.4739  0.6816  0.0433
 9039TIP3    H148532   1.252   0.678   1.374  2.2707  3.0864 -0.2061
 9039TIP3    H248533   1.292   0.557   1.454 -1.3410  3.0752  1.6933
 9040TIP3   OH248534   3.500   4.510  14.458 -0.7286  0.5567  0.3216
 9040TIP3    H148535   3.579   4.555  14.485  1.9711 -3.6151 -0.1706
 9040TIP3    H248536   3.492   4.529  14.365  0.0528  0.5012  0.2404
 9041TIP3   OH248537   3.222   3.253  10.489 -0.3906 -0.3385  0.4346
 9041TIP3    H148538   3.132   3.283  10.505  0.3087  0.5283  2.9191
 9041TIP3    H248539   3.273   3.334  10.479  0.4096 -0.7929  0.7768
 9042TIP3   OH248540   3.371   1.136  14.106  0.8596 -0.2914  0.3648
 9042TIP3    H148541   3.414   1.050  14.100  0.2797 -0.5883  0.4413
 9042TIP3    H248542   3.292   1.120  14.158  0.8545  0.3307  0.5485
 9043TIP3   OH248543   2.603   6.066   0.046 -0.7978 -0.1010  0.1893
 9043TIP3    H148544   2.540   6.022  -0.011  0.2011  0.2629 -1.2297
 9043TIP3    H248545   2.686   6.021   0.029 -0.0632  1.3835 -0.2129
 9044TIP3   OH248546   3.979   6.330   0.613  0.0971  0.2713  0.1664
 9044TIP3    H148547   4.020   6.360   0.695  0.0100 -0.2069  0.3841
 9044TIP3    H248548   3.885   6.342   0.628  0.0897  0.3199  0.0813
 9045TIP3   OH248549   5.400   3.852  15.544  0.0026 -0.1676  0.2271
 9045TIP3    H148550   5.368   3.903  15.470 -0.6632  1.5956  1.6799
 9045TIP3    H248551   5.442   3.916  15.601 -2.5793 -0.8910  3.0639
 9046TIP3   OH248552   2.123   0.434  11.131 -0.1766 -0.0088 -0.4406
 9046TIP3    H148553   2.121   0.401  11.041  0.3157 -0.6521 -0.2185
 9046TIP3    H248554   2.139   0.528  11.121  0.1073 -0.1126 -1.0203
 9047TIP3   OH248555   1.829   1.688   1.333  0.1543 -0.1640 -0.3060
 9047TIP3    H148556   1.846   1.620   1.398  0.0026 -0.4289 -0.5418
 9047TIP3    H248557   1.833   1.642   1.249 -2.6740 -0.4682 -0.3413
 9048TIP3   OH248558   2.792   5.179   6.073  0.2789  0.5220  0.5772
 9048TIP3    H148559   2.866   5.120   6.065 -0.3648  0.0077 -1.9227
 9048TIP3    H248560   2.734   5.137   6.135  1.0535 -0.1553  0.8484
 9049TIP3   OH248561   4.330   1.283   5.094 -0.3603  0.2325  0.0386
 9049TIP3    H148562   4.403   1.235   5.134 -0.8237  1.2322  2.1939
 9049TIP3    H248563   4.372   1.351   5.041  0.2870  0.3667  0.7089
 9050TIP3   OH248564   4.148   5.359  13.108  0.0207  0.3064  0.1272
 9050TIP3    H148565   4.136   5.452  13.127  0.2100 -0.1309  2.4881
 9050TIP3    H248566   4.213   5.357  13.038 -0.3351  1.9626 -0.2685
 9051TIP3   OH248567   6.413   1.069  11.379 -0.3614  0.2252  0.2316
 9051TIP3    H148568   6.460   1.013  11.317  0.9785 -0.4799  1.8623
 9051TIP3    H248569   6.448   1.157  11.365  0.5148 -0.0744  0.5447
 9052TIP3   OH248570   4.018   5.727  16.399  0.0166 -0.0769  0.0763
 9052TIP3    H148571   4.062   5.651  16.438 -2.1459 -0.3604  2.0748
 9052TIP3    H248572   4.063   5.802  16.437 -0.6375 -0.3718  1.4908
 9053TIP3   OH248573   5.112   4.670  15.469 -0.7193  0.0150 -0.7949
 9053TIP3    H148574   5.196   4.715  15.475 -1.1224  1.0235 -2.3981
 9053TIP3    H248575   5.132   4.584  15.434 -0.1422 -0.4689  0.6812
 9054TIP3   OH248576   5.482   3.305   5.322 -0.1767 -0.5840 -0.0934
 9054TIP3    H148577   5.413   3.355   5.279  0.9183  1.5951  0.6380
 9054TIP3    H248578   5.543   3.283   5.251  0.0903  0.3885 -0.1659
 9055TIP3   OH248579   1.158   0.954   3.691  0.3991  0.1201 -0.5150
 9055TIP3    H148580   1.106   0.913   3.622  0.9885 -0.2289 -0.7598
 9055TIP3    H248581   1.151   0.895   3.765  0.6279 -0.0483 -0.6241
 9056TIP3   OH248582   3.118   2.042  11.346  0.5147 -0.2058  0.7011
 9056TIP3    H148583   3.038   2.015  11.301  0.8527 -0.0043 -0.0209
 9056TIP3    H248584   3.166   1.960  11.362  0.4684 -0.2625  0.5501
 9057TIP3   OH248585   2.594   3.814   0.352 -0.3340 -0.2194 -0.1285
 9057TIP3    H148586   2.540   3.773   0.285 -0.5855 -0.1572  0.0380
 9057TIP3    H248587   2.592   3.907   0.330 -2.0906  0.0709  1.1589
 9058TIP3   OH248588   6.526   3.472  15.873  0.1244 -0.3957  0.7375
 9058TIP3    H148589   6.433   3.462  15.852  0.4512  0.8578 -1.4036
 9058TIP3    H248590   6.565   3.389  15.848 -0.4191 -0.9389  1.6737
 9059TIP3   OH248591   3.301   5.103   0.046  0.5080 -0.6046 -0.0936
 9059TIP3    H148592   3.256   5.142   0.121 -0.2883  0.5318 -1.1386
 9059TIP3    H248593   3.232   5.059  -0.004  0.9810 -1.0902 -0.3290
 9060TIP3   OH248594   6.105   6.246   0.858  0.5715  0.1877 -0.1769
 9060TIP3    H148595   6.110   6.150   0.853 -1.0770  0.0517  0.3026
 9060TIP3    H248596   6.017   6.263   0.892  1.7383  1.8188  2.1150
 9061TIP3   OH248597   1.508   2.069  12.049  0.2018 -0.1789 -0.0894
 9061TIP3    H148598   1.427   2.072  12.099 -0.3467  0.2342 -0.9986
 9061TIP3    H248599   1.484   2.098  11.961  1.1436 -0.9249 -0.6123
 9062TIP3   OH248600   3.428   0.586  11.871 -0.8545  0.0524 -0.5091
 9062TIP3    H148601   3.481   0.665  11.880 -0.4356 -0.3800  0.9520
 9062TIP3    H248602   3.491   0.518  11.846 -0.3809 -0.8299  2.8571
 9063TIP3   OH248603   3.076   1.702   2.778 -0.3929  0.0253 -0.0023
 9063TIP3    H148604   2.999   1.698   2.835  1.6309  1.9335  3.0382
 9063TIP3    H248605   3.130   1.627   2.804 -0.6417 -0.5977 -1.2553
 9064TIP3   OH248606   0.955   0.670   0.448 -0.3806 -0.1083 -0.1769
 9064TIP3    H148607   1.048   0.653   0.464 -0.6387  0.5182  2.2174
 9064TIP3    H248608   0.929   0.607   0.381  1.7045 -0.4435 -0.6845
 9065TIP3   OH248609   3.728   1.226  17.018 -0.4034 -0.0928  0.2112
 9065TIP3    H148610   3.698   1.316  17.003 -0.0194 -0.3460 -2.2489
 9065TIP3    H248611   3.823   1.231  17.011 -0.2546 -0.4162  1.7905
 9066TIP3   OH248612   4.849   5.795  11.304  0.2337  0.0330 -0.0393
 9066TIP3    H148613   4.756   5.817  11.308  0.2470 -0.0364  0.5988
 9066TIP3    H248614   4.861   5.758  11.216 -0.5681 -1.0482  0.3092
 9067TIP3   OH248615   4.478   5.101   1.228 -0.2189 -0.1278 -0.9349
 9067TIP3    H148616   4.472   5.136   1.317  1.0278 -1.6338 -0.2312
 9067TIP3    H248617   4.496   5.007   1.241 -1.5868 -0.6754 -2.7687
 9068TIP3   OH248618   5.275   0.006   1.036  0.1107  0.3024  0.1013
 9068TIP3    H148619   5.289   0.089   0.990 -0.9843  0.2644 -0.3077
 9068TIP3    H248620   5.184  -0.017   1.017 -0.1658 -0.0420  1.7552
 9069TIP3   OH248621   4.550   4.965   4.006  0.4173 -0.6984 -0.7644
 9069TIP3    H148622   4.479   5.017   4.045  0.5636 -0.4363 -0.8394
 9069TIP3    H248623   4.592   5.026   3.945  0.4736 -0.9697 -0.9918
 9070TIP3   OH248624   5.800   0.656   0.723  0.0979 -0.7234  0.3355
 9070TIP3    H148625   5.747   0.721   0.769  0.1035 -0.6423  0.2282
 9070TIP3    H248626   5.741   0.618   0.659  0.5096  0.2427 -0.6240
 9071TIP3   OH248627   3.771   3.254  10.342 -0.6835  0.0842  0.0254
 9071TIP3    H148628   3.866   3.240  10.345 -0.7955 -0.7187 -0.2346
 9071TIP3    H248629   3.758   3.338  10.387  0.0221 -0.4125  1.1615
 9072TIP3   OH248630   6.368   5.530  16.114 -0.5374  0.0994 -0.0260
 9072TIP3    H148631   6.351   5.515  16.021 -0.6090  0.0740 -0.0074
 9072TIP3    H248632   6.427   5.459  16.140 -1.2494 -0.4231  0.1687
 9073TIP3   OH248633   0.436   1.000  13.605  0.2487  0.5002 -0.0591
 9073TIP3    H148634   0.448   0.970  13.695 -0.7304 -0.3941 -0.2189
 9073TIP3    H248635   0.347   1.035  13.603 -0.6104 -1.6270 -1.2419
 9074TIP3   OH248636   3.025   6.340   3.580  0.1121 -0.4542  0.5849
 9074TIP3    H148637   3.000   6.248   3.581  0.0783 -0.4756 -0.9748
 9074TIP3    H248638   3.119   6.339   3.568  0.2121 -0.2950  1.3499
 9075TIP3   OH248639   0.646   5.017  14.294  0.1128  0.2582 -0.4296
 9075TIP3    H148640   0.667   5.110  14.299 -2.1185  0.8187 -0.8461
 9075TIP3    H248641   0.625   5.003  14.201 -3.2359  0.2224  0.2701
 9076TIP3   OH248642   1.565   0.560   5.689 -0.1268 -0.2837  0.8289
 9076TIP3    H148643   1.561   0.656   5.686  0.9782 -0.2212  1.1112
 9076TIP3    H248644   1.558   0.539   5.782 -1.7937 -0.5616  0.6566
 9077TIP3   OH248645   3.684   6.481  14.758 -0.2586 -0.8986  0.1917
 9077TIP3    H148646   3.610   6.517  14.808 -3.0120 -3.9231 -1.5400
 9077TIP3    H248647   3.725   6.418  14.818 -0.1947 -0.5517  0.5174
 9078TIP3   OH248648   4.735   0.814   3.706 -0.0332 -0.2364 -0.1760
 9078TIP3    H148649   4.650   0.769   3.710 -0.1112 -0.0073  1.0356
 9078TIP3    H248650   4.797   0.744   3.687 -0.3115 -0.6737  0.4648
 9079TIP3   OH248651   0.659   2.191   1.723  0.3952  0.2075  0.3649
 9079TIP3    H148652   0.606   2.111   1.736 -0.3540  0.8094  1.0924
 9079TIP3    H248653   0.640   2.217   1.633 -0.2316  0.1838  0.4856
 9080TIP3   OH248654   4.703   4.098  11.216 -0.7314  0.2448  0.2668
 9080TIP3    H148655   4.753   4.134  11.142  1.8537  1.1755  2.3688
 9080TIP3    H248656   4.763   4.105  11.290 -2.3081 -3.1394  1.9363
 9081TIP3   OH248657   4.102   2.554   0.729 -0.1025 -0.4219 -0.1796
 9081TIP3    H148658   4.136   2.564   0.818 -1.6763  1.6125  0.2286
 9081TIP3    H248659   4.018   2.510   0.741 -0.6974  0.5979 -0.5831
 9082TIP3   OH248660   6.041   6.399  11.332  0.1230  0.1837 -0.3940
 9082TIP3    H148661   5.987   6.370  11.259 -0.4247  0.8971 -0.2837
 9082TIP3    H248662   6.001   6.358  11.409  0.4706 -0.2634 -0.4499
 9083TIP3   OH248663   3.417   4.593  13.793  0.7061 -0.6198 -0.3500
 9083TIP3    H148664   3.358   4.572  13.866 -0.2826  0.0010 -0.9503
 9083TIP3    H248665   3.361   4.637  13.729  1.5411 -1.2359 -1.5301
 9084TIP3   OH248666   4.088   5.831   3.954  0.8361 -0.5983 -0.1929
 9084TIP3    H148667   4.176   5.832   3.915  0.6900  1.4586 -0.5228
 9084TIP3    H248668   4.101   5.868   4.042  0.1303  0.8439 -0.6775
 9085TIP3   OH248669   2.317   3.888   2.954  0.5671 -0.4453  0.2756
 9085TIP3    H148670   2.339   3.816   2.895 -0.1727 -0.4438 -0.0048
 9085TIP3    H248671   2.326   3.851   3.042 -1.5726 -1.4188  0.1155
 9086TIP3   OH248672   3.651   0.928   1.783  0.2748  0.2138  0.1638
 9086TIP3    H148673   3.638   0.899   1.692  0.8016 -0.2447  0.2342
 9086TIP3    H248674   3.587   0.998   1.795  0.2166  0.2878 -0.5704
 9087TIP3   OH248675   3.834   2.779   2.633 -0.3818 -0.3390  0.2030
 9087TIP3    H148676   3.876   2.695   2.615 -0.7964 -0.2960 -0.9747
 9087TIP3    H248677   3.801   2.809   2.548  1.2762  1.8374  0.2749
 9088TIP3   OH248678   1.741   1.395   5.723  0.3699  0.0233  0.2141
 9088TIP3    H148679   1.817   1.385   5.780  0.7773  2.2967  0.1077
 9088TIP3    H248680   1.683   1.455   5.770 -0.2422  0.2449 -0.8064
 9089TIP3   OH248681   0.781   6.754   4.052  0.3521 -0.1197  0.0759
 9089TIP3    H148682   0.812   6.732   3.964 -0.7281 -0.3619 -0.2512
 9089TIP3    H248683   0.746   6.843   4.043 -0.5276 -0.4606  0.0535
 9090TIP3   OH248684   0.797   1.916   6.066  0.2126 -0.7216 -0.0894
 9090TIP3    H148685   0.724   1.977   6.073  1.1965  0.5153 -0.3747
 9090TIP3    H248686   0.762   1.842   6.017 -1.9248 -1.8831  3.0378
 9091TIP3   OH248687   6.653   0.516   1.962  0.5143  0.1937 -0.8902
 9091TIP3    H148688   6.736   0.468   1.963  0.3718 -0.0500 -0.7240
 9091TIP3    H248689   6.632   0.525   1.869  0.4572 -0.2169 -0.9207
 9092TIP3   OH248690   3.899   2.324   5.770  0.9535  0.0310 -0.1791
 9092TIP3    H148691   3.944   2.242   5.787  0.6256 -0.1845 -0.3421
 9092TIP3    H248692   3.949   2.390   5.818  0.7794 -0.3770  0.5636
 9093TIP3   OH248693   1.444   0.197  13.497  1.1109  0.0456  0.0120
 9093TIP3    H148694   1.352   0.193  13.471  1.3746  2.6971 -1.4944
 9093TIP3    H248695   1.449   0.143  13.576 -1.7430 -0.0276  0.1923
 9094TIP3   OH248696   4.029   5.131   3.022 -0.1388 -0.2385  0.0553
 9094TIP3    H148697   4.101   5.068   3.018 -0.9521 -1.1282 -0.8535
 9094TIP3    H248698   4.073   5.216   3.016  0.8874 -0.7476  0.1207
 9095TIP3   OH248699   1.697   6.036   4.027  0.4890 -0.3581  0.0826
 9095TIP3    H148700   1.719   6.111   4.083 -0.0616  0.7421 -1.1298
 9095TIP3    H248701   1.667   5.969   4.088 -1.7696  1.4165  1.0458
 9096TIP3   OH248702   0.712   6.283   1.122 -0.4033  0.3292  0.5884
 9096TIP3    H148703   0.704   6.208   1.181 -0.5944 -0.8217 -0.8593
 9096TIP3    H248704   0.622   6.314   1.111 -0.3345  0.7166  1.1219
 9097TIP3   OH248705   6.112   4.360   4.686 -0.1836  0.1984 -0.1825
 9097TIP3    H148706   6.027   4.386   4.651  1.4321  2.1939 -2.7817
 9097TIP3    H248707   6.145   4.295   4.623  0.2354 -0.5845  0.8186
 9098TIP3   OH248708   4.956   1.636  11.430 -0.2444 -0.4545 -0.4003
 9098TIP3    H148709   4.892   1.654  11.500  0.6173  1.0740  0.0357
 9098TIP3    H248710   4.973   1.542  11.436 -1.3450 -0.6115  0.4491
 9099TIP3   OH248711   1.952   0.095   5.516 -0.0202  0.4874  0.0297
 9099TIP3    H148712   2.026   0.057   5.468  0.3321  0.8360  0.2871
 9099TIP3    H248713   1.923   0.025   5.574 -0.6916 -0.0592 -0.9552
 9100TIP3   OH248714   3.493   2.237   4.579 -0.0822 -0.1399 -0.5888
 9100TIP3    H148715   3.562   2.191   4.532 -1.0925 -1.0684 -1.1885
 9100TIP3    H248716   3.474   2.182   4.655 -0.6582 -0.2683 -0.8185
 9101TIP3   OH248717   6.631   4.231   1.570 -0.4869  0.4448 -0.2267
 9101TIP3    H148718   6.710   4.177   1.581  0.0456  0.8995 -1.7191
 9101TIP3    H248719   6.652   4.313   1.615 -1.1305 -0.3967  1.6642
 9102TIP3   OH248720   2.949   5.412  16.685  0.8616  0.3209 -0.6028
 9102TIP3    H148721   3.030   5.443  16.645  2.1138 -0.0132  1.6011
 9102TIP3    H248722   2.973   5.330  16.727 -0.2700  0.9017  1.2444
 9103TIP3   OH248723   3.626   1.883  11.317 -0.3896 -0.2579  0.1430
 9103TIP3    H148724   3.703   1.873  11.261 -1.4368  0.2870 -1.4409
 9103TIP3    H248725   3.655   1.854  11.404  1.0485 -1.8956 -0.8532
 9104TIP3   OH248726   2.683   6.071  14.207 -0.4162  0.2484  0.4048
 9104TIP3    H148727   2.614   6.004  14.208  0.1283 -0.3562 -1.1355
 9104TIP3    H248728   2.688   6.099  14.116  0.9375  0.7535  0.6266
 9105TIP3   OH248729   4.399   3.536   0.153 -0.0355 -0.7741  0.0689
 9105TIP3    H148730   4.408   3.617   0.204  2.6040 -1.2260  0.3734
 9105TIP3    H248731   4.449   3.552   0.073 -0.8384 -1.5338 -0.5911
 9106TIP3   OH248732   1.781   3.818   2.816  0.3086 -0.6267  0.6636
 9106TIP3    H148733   1.707   3.848   2.868 -0.1487 -1.4417  0.4878
 9106TIP3    H248734   1.828   3.899   2.792 -1.8155  0.1365 -1.1687
 9107TIP3   OH248735   0.272   4.273  17.174 -0.0639 -0.3334 -0.8037
 9107TIP3    H148736   0.291   4.190  17.219  1.4224  0.1946 -0.4487
 9107TIP3    H248737   0.343   4.283  17.111 -0.1515  0.7543 -0.7344
 9108TIP3   OH248738   0.344   4.812   1.418  0.4417 -0.4603 -0.6510
 9108TIP3    H148739   0.341   4.718   1.434 -0.3038 -0.3401 -0.0531
 9108TIP3    H248740   0.434   4.829   1.389  1.0592 -1.0998  0.8302
 9109TIP3   OH248741   6.784   3.725   4.974 -0.3882  0.4100 -0.0509
 9109TIP3    H148742   6.787   3.646   5.028 -0.0307  0.9818  0.7796
 9109TIP3    H248743   6.859   3.716   4.916 -1.1791 -0.5459 -0.9529
 9110TIP3   OH248744   6.340   2.811  12.867 -0.4599  0.8831  0.0304
 9110TIP3    H148745   6.409   2.766  12.915  0.2425  1.4347 -0.4586
 9110TIP3    H248746   6.268   2.819  12.929  0.1107  0.7789  0.7004
 9111TIP3   OH248747   3.930   5.334  15.796 -0.6956 -0.3691 -0.2778
 9111TIP3    H148748   3.934   5.398  15.724  1.1859  1.0078  1.0155
 9111TIP3    H248749   3.867   5.371  15.857  0.8481  0.5969  0.7623
 9112TIP3   OH248750   4.890   2.940  11.991 -0.2542 -0.1102 -0.5454
 9112TIP3    H148751   4.860   2.991  12.066 -1.1635 -1.5865  0.1060
 9112TIP3    H248752   4.969   2.896  12.022  0.0799  0.2601 -0.8581
 9113TIP3   OH248753   2.314   2.203  16.274  0.0163 -0.1088  0.0471
 9113TIP3    H148754   2.341   2.156  16.352  0.9474  0.6208  0.1746
 9113TIP3    H248755   2.229   2.165  16.251 -0.3800 -0.1781  1.5489
 9114TIP3   OH248756   4.986   0.715  14.961 -0.2220  0.0293  0.5205
 9114TIP3    H148757   5.044   0.774  15.010 -0.2591  0.3425  0.1933
 9114TIP3    H248758   4.916   0.693  15.023  0.1059 -0.1345  0.8314
 9115TIP3   OH248759   3.368   0.869  11.144 -0.2692  0.1862 -0.3520
 9115TIP3    H148760   3.397   0.935  11.082  0.0232  0.1993 -0.2027
 9115TIP3    H248761   3.285   0.837  11.108  1.1205 -1.5802 -2.0442
 9116TIP3   OH248762   5.705   2.192  12.040 -0.0030  0.3861  0.0105
 9116TIP3    H148763   5.777   2.192  12.103  0.4791 -0.6427 -0.5256
 9116TIP3    H248764   5.690   2.099  12.022 -1.4193  0.5991  0.0676
 9117TIP3   OH248765   3.038   2.420   6.311  0.8208 -0.0682 -0.6163
 9117TIP3    H148766   3.041   2.417   6.406 -0.2219 -0.9428 -0.6004
 9117TIP3    H248767   2.968   2.483   6.291  0.0020 -1.0309 -0.7911
 9118TIP3   OH248768   5.128   4.870  12.623 -0.9799  0.0325  0.1660
 9118TIP3    H148769   5.109   4.910  12.537  1.1024  0.5910 -0.0610
 9118TIP3    H248770   5.061   4.802  12.633 -0.1470 -1.3080 -2.7636
 9119TIP3   OH248771   6.307   0.221  15.791  0.1985  0.7808  0.3495
 9119TIP3    H148772   6.329   0.312  15.812 -0.5889  1.0969 -0.1556
 9119TIP3    H248773   6.267   0.226  15.704  1.7057 -0.2599 -0.4355
 9120TIP3   OH248774   4.563   1.102  14.540 -0.0505  0.1796  0.0046
 9120TIP3    H148775   4.584   1.193  14.518  0.1390  0.2911  0.6378
 9120TIP3    H248776   4.525   1.067  14.460  0.0572  0.7602 -0.3103
 9121TIP3   OH248777   1.162   6.413   5.053 -0.3472  0.4671  0.1381
 9121TIP3    H148778   1.206   6.354   5.114 -0.8786 -0.4506 -0.3468
 9121TIP3    H248779   1.212   6.404   4.971  1.2614  2.7892  0.7981
 9122TIP3   OH248780   3.215   3.514   3.614  0.0451  0.7506 -0.1160
 9122TIP3    H148781   3.144   3.573   3.589  0.7845  1.9235  0.5065
 9122TIP3    H248782   3.180   3.426   3.599 -1.3178  1.3317 -0.3781
 9123TIP3   OH248783   3.964   4.767  16.675  0.8320 -0.2177 -0.7060
 9123TIP3    H148784   3.917   4.746  16.756  0.9335 -0.4884 -0.7167
 9123TIP3    H248785   4.050   4.798  16.706  0.2594  1.3596 -0.6261
 9124TIP3   OH248786   0.882   5.220   6.396  0.0004  0.1848 -0.2927
 9124TIP3    H148787   0.828   5.203   6.474  0.4484 -0.6973 -0.1801
 9124TIP3    H248788   0.971   5.227   6.429  0.3668 -1.5077 -0.8951
 9125TIP3   OH248789   4.670   3.515   4.849  0.4605  0.3550 -0.3046
 9125TIP3    H148790   4.721   3.447   4.892  0.7805  0.6561 -0.2095
 9125TIP3    H248791   4.579   3.496   4.875  0.6440  0.4896  0.4480
 9126TIP3   OH248792   1.782   4.496  14.142 -0.1347  0.0648 -0.4847
 9126TIP3    H148793   1.813   4.406  14.146 -0.7221 -0.1090  0.1291
 9126TIP3    H248794   1.817   4.530  14.059 -0.8260 -1.0645 -1.2560
 9127TIP3   OH248795   1.031   2.493  12.233 -0.3270 -0.5574 -0.0758
 9127TIP3    H148796   1.053   2.403  12.255 -3.5826 -1.3607  0.2658
 9127TIP3    H248797   1.107   2.544  12.259  1.7372 -3.2538 -0.6641
 9128TIP3   OH248798   1.720   2.246   0.639  0.0837  0.0539 -0.4193
 9128TIP3    H148799   1.658   2.317   0.620  0.1801  0.2132 -0.1488
 9128TIP3    H248800   1.785   2.252   0.569 -0.3318 -0.2614 -0.8347
 9129TIP3   OH248801   1.617   1.577  12.633  0.1964 -0.2946 -0.2273
 9129TIP3    H148802   1.679   1.608  12.699  0.8368 -0.8236 -0.5700
 9129TIP3    H248803   1.535   1.621  12.654  0.7591  0.6203  0.0700
 9130TIP3   OH248804   4.494   5.698  12.433  0.0685 -0.2432  0.1353
 9130TIP3    H148805   4.561   5.662  12.375 -2.3459 -1.5206 -1.9599
 9130TIP3    H248806   4.482   5.630  12.499  1.4633  0.3874  1.0604
 9131TIP3   OH248807   0.133   0.036  12.080 -0.6060 -0.1339 -0.2284
 9131TIP3    H148808   0.139   0.061  11.988 -1.2520 -1.0998 -0.5525
 9131TIP3    H248809   0.215  -0.008  12.098 -0.7102 -0.4500 -0.5135
 9132TIP3   OH248810   4.025   1.893  15.949 -0.1314 -0.4765 -0.0709
 9132TIP3    H148811   4.110   1.919  15.914 -0.7547  2.1380  0.3134
 9132TIP3    H248812   3.997   1.821  15.892  2.2632 -1.3222 -0.2661
 9133TIP3   OH248813   1.910   6.302   5.562  0.1891 -0.7146 -0.1962
 9133TIP3    H148814   1.995   6.263   5.583  0.3717 -0.5152 -0.5557
 9133TIP3    H248815   1.927   6.355   5.484  0.3281  1.3242  1.1632
 9134TIP3   OH248816   4.643   0.021  16.711  0.5627 -0.0178  0.4558
 9134TIP3    H148817   4.660   0.112  16.735 -0.7201  0.5663 -0.7728
 9134TIP3    H248818   4.728  -0.022  16.719  1.5818  1.7021 -0.7353
 9135TIP3   OH248819   4.142   0.957  14.198 -0.2363  0.2808 -0.1646
 9135TIP3    H148820   4.221   0.977  14.149  0.4453  0.8183  1.1231
 9135TIP3    H248821   4.083   1.029  14.178  0.2538  0.8032  0.2671
 9136TIP3   OH248822   2.242   2.673   5.373 -0.1426 -0.1686 -0.1185
 9136TIP3    H148823   2.196   2.596   5.339 -1.1114 -0.0230  0.8123
 9136TIP3    H248824   2.250   2.732   5.298 -0.1559 -0.8333 -0.6384
 9137TIP3   OH248825   0.549   4.139  16.603  0.3350  0.2185  0.3943
 9137TIP3    H148826   0.618   4.074  16.620 -0.1702 -0.4349 -0.0142
 9137TIP3    H248827   0.480   4.119  16.666  1.0226  1.6456  1.6162
 9138TIP3   OH248828   5.661   6.052   3.898  0.4677 -0.0518  0.1605
 9138TIP3    H148829   5.658   5.961   3.870  0.7846  0.3196 -1.1340
 9138TIP3    H248830   5.731   6.091   3.846  0.4752  0.8854  0.8496
 9139TIP3   OH248831   4.955   3.245   1.063 -0.5156 -0.4045  0.0672
 9139TIP3    H148832   4.950   3.150   1.062  0.2834 -0.4549  0.4592
 9139TIP3    H248833   4.886   3.273   1.122 -1.5333 -0.6809 -0.9664
 9140TIP3   OH248834   3.738   4.248   5.966 -0.1779  0.3224 -0.4544
 9140TIP3    H148835   3.680   4.172   5.962  1.6311 -1.2752  2.3069
 9140TIP3    H248836   3.793   4.232   6.042  2.5774  2.7550 -1.8514
 9141TIP3   OH248837   4.518   1.359   3.357 -0.3215 -0.0439 -0.3758
 9141TIP3    H148838   4.562   1.444   3.354  0.4487 -0.3267  1.6937
 9141TIP3    H248839   4.426   1.378   3.340 -0.2103  1.2634  0.4162
 9142TIP3   OH248840   0.147   0.517   1.442  0.2827 -0.3540 -0.3185
 9142TIP3    H148841   0.123   0.592   1.387 -2.5181 -0.0600  1.1895
 9142TIP3    H248842   0.128   0.440   1.387  0.1123 -0.0240 -0.7246
 9143TIP3   OH248843   5.655   3.921   0.744 -0.3055  0.9827  0.0605
 9143TIP3    H148844   5.614   3.892   0.826 -1.1012  1.2782 -0.2402
 9143TIP3    H248845   5.650   3.844   0.687  2.0978  0.0928  0.9718
 9144TIP3   OH248846   3.075   3.353   1.013 -0.0053  0.2042 -0.4915
 9144TIP3    H148847   3.132   3.423   0.981 -1.4481  1.4247 -0.4865
 9144TIP3    H248848   3.082   3.284   0.947  0.1492  1.0537 -1.3748
 9145TIP3   OH248849   3.600   1.998   5.068  0.3621 -0.1918 -0.0855
 9145TIP3    H148850   3.541   2.072   5.079  0.7426  0.0872  0.0949
 9145TIP3    H248851   3.644   1.989   5.153  2.7089  1.4515 -1.0626
 9146TIP3   OH248852   2.863   0.989  12.287  0.2414 -0.0185 -0.0615
 9146TIP3    H148853   2.823   0.903  12.290  0.8113 -0.2536  0.8251
 9146TIP3    H248854   2.821   1.038  12.358  2.5916 -0.7479  1.8810
 9147TIP3   OH248855   5.323   2.543   5.947 -0.4033 -0.1330 -0.0149
 9147TIP3    H148856   5.333   2.598   5.870 -0.4930  1.7952  1.3297
 9147TIP3    H248857   5.289   2.601   6.015  0.1609 -1.6634  1.6345
 9148TIP3   OH248858   4.527   0.107   6.532 -0.7943 -0.4997 -0.0371
 9148TIP3    H148859   4.578   0.048   6.476 -0.5289 -0.6097  0.3183
 9148TIP3    H248860   4.534   0.192   6.490  1.2880 -0.1138  1.0390
 9149TIP3   OH248861   5.291   0.412   3.648 -0.2511  0.4931 -0.3842
 9149TIP3    H148862   5.242   0.335   3.621  0.5467 -1.2088  2.7751
 9149TIP3    H248863   5.240   0.448   3.721  0.6442  1.5457 -0.2726
 9150TIP3   OH248864   0.035   5.305  13.902 -0.0665 -0.2079 -0.1739
 9150TIP3    H148865   0.020   5.232  13.961 -1.2212 -0.1529 -0.3965
 9150TIP3    H248866  -0.040   5.305  13.843  0.0986  0.9433 -0.3998
 9151TIP3   OH248867   2.080   4.832  15.071  0.5623  0.2774 -0.0506
 9151TIP3    H148868   2.074   4.925  15.093 -0.3355  0.4772 -1.0589
 9151TIP3    H248869   2.048   4.827  14.981  0.2705 -1.0586  0.1106
 9152TIP3   OH248870   2.091   4.096  14.850 -0.2179 -0.0117 -0.3738
 9152TIP3    H148871   2.079   4.016  14.800  0.9114 -0.5866  0.2410
 9152TIP3    H248872   2.174   4.132  14.819  0.3174 -0.1856  0.8009
 9153TIP3   OH248873   1.519   0.821   0.592 -0.0571  0.3273 -0.0085
 9153TIP3    H148874   1.583   0.815   0.663 -0.7745 -0.1585  0.6026
 9153TIP3    H248875   1.544   0.750   0.532 -0.0352  0.1314  0.2316
 9154TIP3   OH248876   3.428   2.082  12.480  0.5505  0.1641  0.1630
 9154TIP3    H148877   3.500   2.137  12.452  2.0109 -1.0164  1.5400
 9154TIP3    H248878   3.450   1.994  12.450 -1.0129  0.0313 -0.6752
 9155TIP3   OH248879   4.664   3.177  12.403  0.1474  0.1062  0.1899
 9155TIP3    H148880   4.583   3.206  12.361  0.0265 -0.6422 -0.1126
 9155TIP3    H248881   4.636   3.111  12.466  0.3858  0.8328  1.0705
 9156TIP3   OH248882   1.673   6.602  15.181  0.1731  0.2092  0.5463
 9156TIP3    H148883   1.696   6.519  15.139  1.2460  0.3822  0.7756
 9156TIP3    H248884   1.631   6.576  15.263  1.0381 -0.1087  0.8956
 9157TIP3   OH248885   2.183   3.393  16.905  0.0135  0.0904 -0.5194
 9157TIP3    H148886   2.203   3.471  16.957 -0.4175 -0.1519  0.0262
 9157TIP3    H248887   2.214   3.413  16.817  2.2980 -0.1271  0.2021
 9158TIP3   OH248888   6.533   3.207   2.823 -0.2030 -0.7105  0.1586
 9158TIP3    H148889   6.557   3.212   2.916  0.0854  1.8650 -0.0293
 9158TIP3    H248890   6.439   3.188   2.824 -0.3091 -0.1787  0.9909
 9159TIP3   OH248891   1.634   2.755  16.829  0.9050  0.1354 -0.5929
 9159TIP3    H148892   1.680   2.683  16.871 -0.8479 -0.0121  1.1808
 9159TIP3    H248893   1.703   2.817  16.804  2.0290  0.9658  3.9936
 9160TIP3   OH248894   1.488   1.138  13.969  0.0325  0.4690  0.6887
 9160TIP3    H148895   1.514   1.206  14.032 -0.6711  0.9159  0.5033
 9160TIP3    H248896   1.418   1.179  13.918 -1.5997 -0.9660  1.7092
 9161TIP3   OH248897   0.121   3.790   0.488 -0.1070  0.0080  0.0878
 9161TIP3    H148898   0.210   3.808   0.457  0.6043 -1.7833  1.0203
 9161TIP3    H248899   0.082   3.735   0.420 -0.3079  0.2996 -0.0358
 9162TIP3   OH248900   2.065   2.128  15.940 -0.8013 -0.1801  0.2674
 9162TIP3    H148901   2.094   2.096  16.025 -2.1004 -0.3804  0.6425
 9162TIP3    H248902   1.979   2.166  15.956 -0.5235  0.9168 -0.7210
 9163TIP3   OH248903   1.264   3.708   1.828 -0.2471  0.4575 -0.1288
 9163TIP3    H148904   1.221   3.750   1.754  2.1316 -0.9677 -2.4297
 9163TIP3    H248905   1.199   3.648   1.864 -0.8148 -0.3077 -2.3707
 9164TIP3   OH248906   2.175   1.241   4.071  0.1500  0.2003 -0.2890
 9164TIP3    H148907   2.224   1.322   4.059 -1.0564  1.3035  1.9154
 9164TIP3    H248908   2.086   1.269   4.094 -0.8869 -1.7561 -1.7331
 9165TIP3   OH248909   5.081   5.452   1.901 -0.4009  0.0898 -0.5637
 9165TIP3    H148910   5.048   5.534   1.939  0.4309  0.5818 -0.8816
 9165TIP3    H248911   5.044   5.450   1.812 -0.9250 -0.1905 -0.3408
 9166TIP3   OH248912   0.447   4.127  15.467 -0.1971  0.6885 -0.2440
 9166TIP3    H148913   0.369   4.173  15.433  0.8566  0.9383 -2.4571
 9166TIP3    H248914   0.447   4.146  15.560 -2.9711  0.4265 -0.1277
 9167TIP3   OH248915   4.633   2.901   3.308  0.7195  0.3841 -0.0637
 9167TIP3    H148916   4.566   2.905   3.376  0.2139  1.0116 -0.5942
 9167TIP3    H248917   4.602   2.836   3.246  0.2477  1.1975 -0.6831
 9168TIP3   OH248918   4.243   1.488  11.376  0.1809  0.6521 -0.2789
 9168TIP3    H148919   4.261   1.416  11.436  2.3502  1.9675  0.6892
 9168TIP3    H248920   4.251   1.450  11.289 -2.1511 -1.0735  0.2011
 9169TIP3   OH248921   1.401   1.964   0.735  0.2223 -0.1100 -0.1938
 9169TIP3    H148922   1.348   1.905   0.789 -0.0046  1.6556  1.6032
 9169TIP3    H248923   1.359   2.050   0.746  1.3289  0.6367 -1.6658
 9170TIP3   OH248924   5.110   1.373  13.291  0.1651  0.0388 -0.4761
 9170TIP3    H148925   5.178   1.396  13.227  1.0316 -0.4908  0.2383
 9170TIP3    H248926   5.037   1.340  13.238  1.3054 -1.4674 -1.1341
 9171TIP3   OH248927   4.931   4.446   0.591  0.7665  0.0388  0.1754
 9171TIP3    H148928   4.965   4.357   0.586 -0.4395 -0.4303  0.1248
 9171TIP3    H248929   5.002   4.501   0.557  2.3836 -0.6577  2.3732
 9172TIP3   OH248930   6.325   6.227   3.579  0.0591  0.7051  0.3545
 9172TIP3    H148931   6.375   6.242   3.499 -0.8245  0.1398 -0.3058
 9172TIP3    H248932   6.355   6.142   3.611  1.0406  1.3208  1.1032
 9173TIP3   OH248933   6.082   5.509  15.030 -0.0933  0.3319 -0.8321
 9173TIP3    H148934   6.155   5.494  15.090 -0.6756 -0.0798 -0.2270
 9173TIP3    H248935   6.050   5.597  15.052 -2.2614 -0.9801  1.5806
 9174TIP3   OH248936   4.845   2.372  12.265 -0.4098 -0.5022  0.1536
 9174TIP3    H148937   4.890   2.301  12.219  0.0750  0.0788 -0.2811
 9174TIP3    H248938   4.867   2.450  12.214 -0.2722  0.0739  1.0995
 9175TIP3   OH248939   2.353   5.531   1.216 -0.7097  0.5505  0.4128
 9175TIP3    H148940   2.368   5.593   1.145 -1.1188  0.4838  0.2637
 9175TIP3    H248941   2.363   5.445   1.175  0.1741  0.5221  0.6919
 9176TIP3   OH248942   3.262   1.867   5.720  0.1436 -0.2523  0.3528
 9176TIP3    H148943   3.174   1.850   5.754  0.4739 -2.1973  0.3145
 9176TIP3    H248944   3.320   1.821   5.781  0.8725 -2.0126 -1.6111
 9177TIP3   OH248945   6.065   5.193   2.113 -0.2329  0.0395 -0.7485
 9177TIP3    H148946   6.133   5.244   2.069  1.6550 -1.3510  0.4817
 9177TIP3    H248947   6.013   5.259   2.160  1.2902  0.9820 -0.3304
 9178TIP3   OH248948   4.454   5.522  15.772  0.5355 -0.2586  0.0175
 9178TIP3    H148949   4.361   5.502  15.762  0.6333 -0.4291 -0.5428
 9178TIP3    H248950   4.462   5.550  15.863 -0.1158  0.0350 -0.0125
 9179TIP3   OH248951   1.804   1.758   4.803  1.1789  0.1960 -0.2628
 9179TIP3    H148952   1.838   1.676   4.768 -0.1946  0.0191 -1.1734
 9179TIP3    H248953   1.711   1.759   4.781  1.2073  2.0882 -0.4408
 9180TIP3   OH248954   5.955   1.796  16.718  0.0014 -0.0435  0.3950
 9180TIP3    H148955   6.017   1.844  16.773  0.2577 -2.3078  2.1280
 9180TIP3    H248956   5.874   1.847  16.724  0.4761  0.5971  1.5496
 9181TIP3   OH248957   5.055   5.661  12.100 -0.5131 -0.1301  0.2994
 9181TIP3    H148958   5.049   5.617  12.015  0.3768  1.6532 -0.7017
 9181TIP3    H248959   5.149   5.667  12.117 -0.6289  1.2983  0.4607
 9182TIP3   OH248960   0.815   6.382  13.739  0.2000  0.3022 -0.0978
 9182TIP3    H148961   0.853   6.319  13.800 -2.3736 -2.8527 -1.5487
 9182TIP3    H248962   0.875   6.384  13.665  0.1229 -0.8005 -0.2009
 9183TIP3   OH248963   6.265   0.624   4.988  0.5034 -0.3939  0.4392
 9183TIP3    H148964   6.318   0.605   5.065  0.7104  0.0776  0.4177
 9183TIP3    H248965   6.181   0.580   5.004 -0.2775  1.5588  1.9625
 9184TIP3   OH248966   2.766   3.564  16.254 -0.0446 -0.4075 -0.0024
 9184TIP3    H148967   2.860   3.578  16.258 -0.3402  1.7071  0.0358
 9184TIP3    H248968   2.734   3.596  16.338 -0.8661 -0.5227 -0.2720
 9185TIP3   OH248969   5.654   0.074  16.843 -1.0036 -0.4416  0.0255
 9185TIP3    H148970   5.671  -0.020  16.852  0.7125 -0.3923 -2.1046
 9185TIP3    H248971   5.638   0.086  16.749  0.1618  1.5796  0.0602
 9186TIP3   OH248972   6.441   2.358  12.220  0.1209  0.6063 -0.5416
 9186TIP3    H148973   6.457   2.431  12.279  0.0804  0.2773 -0.1194
 9186TIP3    H248974   6.525   2.314  12.213  0.1213  0.6361 -0.7156
 9187TIP3   OH248975   1.947   0.592  16.323  0.2625 -0.5257 -0.6031
 9187TIP3    H148976   1.864   0.637  16.305  0.2487 -0.9821 -1.7494
 9187TIP3    H248977   1.998   0.654  16.374 -0.6959 -0.1464 -0.1039
 9188TIP3   OH248978   4.342   5.311   3.516  0.4978  0.0984 -0.1861
 9188TIP3    H148979   4.361   5.404   3.517 -0.2886  0.2606  1.5062
 9188TIP3    H248980   4.427   5.268   3.527  0.7983  0.6348 -0.4474
 9189TIP3   OH248981   6.024   1.477   0.982 -0.8750  0.3109  0.3809
 9189TIP3    H148982   5.984   1.526   0.910  2.1041  2.6283  0.2148
 9189TIP3    H248983   6.056   1.397   0.941  0.1172  1.2687 -0.7705
 9190TIP3   OH248984   5.348   2.860  13.373 -0.5185  0.1697 -0.3149
 9190TIP3    H148985   5.412   2.930  13.386  0.6980 -1.2551  1.7556
 9190TIP3    H248986   5.335   2.857  13.279  1.4109  1.4395 -0.6606
 9191TIP3   OH248987   2.934   4.457   5.135 -0.5827  0.0868  0.3195
 9191TIP3    H148988   2.989   4.534   5.122 -2.2388  1.0737 -1.1256
 9191TIP3    H248989   2.926   4.448   5.230  0.4999  1.0419  0.5096
 9192TIP3   OH248990   5.296   2.899  16.882 -0.1737  0.1443 -0.1527
 9192TIP3    H148991   5.212   2.928  16.919  1.4992  2.8216  1.7145
 9192TIP3    H248992   5.327   2.832  16.943 -0.4100 -0.0072 -0.2002
 9193TIP3   OH248993   6.583   3.889  14.354  0.0183 -0.5159  0.5965
 9193TIP3    H148994   6.601   3.824  14.421 -2.0397 -0.8032  0.9194
 9193TIP3    H248995   6.531   3.956  14.399  2.0761  1.3822  0.2759
 9194TIP3   OH248996   3.643   1.798  16.543  0.2097  0.2750  0.9664
 9194TIP3    H148997   3.667   1.708  16.564  0.7559 -0.0348 -0.9598
 9194TIP3    H248998   3.547   1.797  16.538  0.2708 -0.4135 -0.0570
 9195TIP3   OH248999   1.884   3.938   4.377 -0.5608  0.1436  0.4626
 9195TIP3    H149000   1.957   3.878   4.365 -1.9194 -1.5488  0.5621
 9195TIP3    H249001   1.840   3.907   4.455 -1.3228  1.2329  0.4744
 9196TIP3   OH249002   3.097   0.460  13.426  0.6493 -0.3888 -0.4174
 9196TIP3    H149003   3.086   0.376  13.380 -0.5903 -1.0297  0.9970
 9196TIP3    H249004   3.063   0.525  13.365 -0.1160 -1.1230 -0.7910
 9197TIP3   OH249005   5.941   2.471  15.432 -0.4372  0.5102  0.3464
 9197TIP3    H149006   6.008   2.502  15.493  0.1920  1.2719 -0.7164
 9197TIP3    H249007   5.973   2.387  15.401 -0.3709  0.4962  0.4510
 9198TIP3   OH249008   5.260   6.663   2.559  0.4771 -0.1303  0.4348
 9198TIP3    H149009   5.212   6.624   2.487  0.7044 -1.1112  0.8121
 9198TIP3    H249010   5.259   6.757   2.540 -0.4057 -0.2736 -0.2643
 9199TIP3   OH249011   4.637   0.819  11.093 -0.0135  0.3105 -0.3007
 9199TIP3    H149012   4.666   0.780  11.176  1.4958  3.8576  0.9499
 9199TIP3    H249013   4.714   0.815  11.037 -0.0451  0.8518 -0.3851
 9200TIP3   OH249014   5.655   4.169   3.615 -0.0813  0.6907 -0.0568
 9200TIP3    H149015   5.640   4.180   3.521  1.9237 -0.1953 -0.5160
 9200TIP3    H249016   5.606   4.241   3.656 -2.2444  0.1799 -1.6516
 9201TIP3   OH249017   1.570   6.536  10.774  0.2334  0.2987 -0.2107
 9201TIP3    H149018   1.606   6.517  10.860 -1.3774 -3.7671 -0.3461
 9201TIP3    H249019   1.490   6.585  10.792  0.4812  0.4483  0.5088
 9202TIP3   OH249020   4.893   5.362   2.342  0.0709 -0.4742 -0.8013
 9202TIP3    H149021   4.907   5.374   2.248 -0.1821  1.9497 -0.5578
 9202TIP3    H249022   4.913   5.447   2.380 -0.4238 -1.2659  1.2866
 9203TIP3   OH249023   6.406   2.943   5.260  0.2377 -0.2284  0.2499
 9203TIP3    H149024   6.458   2.960   5.339 -0.6919 -2.2933  1.3425
 9203TIP3    H249025   6.454   2.874   5.214  0.4002  0.4758 -0.6776
 9204TIP3   OH249026   6.190   5.456   0.275  0.3559 -0.2317  0.1891
 9204TIP3    H149027   6.192   5.515   0.350 -0.7744  0.3688 -0.2380
 9204TIP3    H249028   6.243   5.381   0.301  1.7800  0.9672  0.7387
 9205TIP3   OH249029   5.337   2.053   1.828 -0.0909 -0.1332  0.4639
 9205TIP3    H149030   5.261   2.049   1.885 -1.4192  2.0952 -1.0655
 9205TIP3    H249031   5.393   2.121   1.867 -0.2360  0.2384  0.0295
 9206TIP3   OH249032   1.133   4.814   1.203  0.4181  0.1715 -0.3884
 9206TIP3    H149033   1.222   4.792   1.230  0.0972  1.3442  1.6405
 9206TIP3    H249034   1.079   4.744   1.240  0.4049 -0.2361 -1.1548
 9207TIP3   OH249035   0.586   3.793   1.076  0.4439  0.4627  0.2046
 9207TIP3    H149036   0.558   3.713   1.031 -0.3505  0.5285  0.5658
 9207TIP3    H249037   0.656   3.764   1.134  1.4989  0.3833 -1.0766
 9208TIP3   OH249038   3.230   4.292   4.977 -0.3638  0.2319 -0.0117
 9208TIP3    H149039   3.197   4.333   4.897 -0.1524 -0.0306 -0.2378
 9208TIP3    H249040   3.174   4.325   5.047 -1.2004 -0.3117 -0.4130
 9209TIP3   OH249041   2.381   1.338   6.158  0.5361  0.0968 -0.0123
 9209TIP3    H149042   2.332   1.299   6.086  1.2939 -0.8695 -0.0203
 9209TIP3    H249043   2.316   1.353   6.226 -0.1417  0.8162 -0.8095
 9210TIP3   OH249044   5.751   3.055   1.422 -0.2172  0.3233 -0.2452
 9210TIP3    H149045   5.786   3.004   1.350  1.2494  1.3840 -0.2964
 9210TIP3    H249046   5.770   3.003   1.500  1.3013  0.7958 -0.2937
 9211TIP3   OH249047   2.841   4.633  17.197 -0.3053 -0.1686  0.4618
 9211TIP3    H149048   2.821   4.620  17.289 -2.0491  1.8484  0.3981
 9211TIP3    H249049   2.787   4.708  17.170 -0.9495 -1.6144 -2.5537
 9212TIP3   OH249050   4.660   3.374   0.700 -0.2530 -0.3234  0.1949
 9212TIP3    H149051   4.609   3.452   0.723  0.9342  0.7148 -0.6534
 9212TIP3    H249052   4.694   3.343   0.784  1.0183  1.3069  0.3086
 9213TIP3   OH249053   1.133   1.094  11.810  0.1504  1.3829  0.5246
 9213TIP3    H149054   1.123   1.010  11.766  1.3843  0.5781  1.7155
 9213TIP3    H249055   1.091   1.157  11.752  1.3239  0.3048 -1.5662
 9214TIP3   OH249056   4.936   3.287   3.662  0.4171  0.6177  0.0981
 9214TIP3    H149057   4.875   3.232   3.613 -0.8900  1.0180  1.2454
 9214TIP3    H249058   5.003   3.226   3.692 -0.6765 -0.2648  0.8191
 9215TIP3   OH249059   6.403   2.994  13.227 -0.0924 -0.3678 -0.5345
 9215TIP3    H149060   6.413   3.059  13.157 -1.8561  0.3873 -0.1013
 9215TIP3    H249061   6.321   3.018  13.271  0.7708 -1.1026  1.5243
 9216TIP3   OH249062   2.042   2.129   5.072  0.6087  0.3204  1.1925
 9216TIP3    H149063   2.015   2.038   5.069  1.5022  0.0685  0.5615
 9216TIP3    H249064   2.097   2.136   5.151 -2.6648  1.2414  3.4982
 9217TIP3   OH249065   6.711   3.122   1.993  0.4050 -0.1290  0.1355
 9217TIP3    H149066   6.701   3.217   1.988  2.4357  0.0350 -1.0300
 9217TIP3    H249067   6.702   3.093   1.902 -0.2555 -1.0664  0.4982
 9218TIP3   OH249068   2.122   4.921  12.968  0.5088 -0.0844  0.1390
 9218TIP3    H149069   2.207   4.958  12.993  0.2344  0.4777  0.2444
 9218TIP3    H249070   2.061   4.994  12.976 -0.3899 -1.0289  2.3203
 9219TIP3   OH249071   3.142   1.122   1.396 -0.3509  0.1812  0.3696
 9219TIP3    H149072   3.148   1.172   1.315 -0.6117  1.6699  1.2537
 9219TIP3    H249073   3.053   1.086   1.395 -0.9371  1.5787  0.7743
 9220TIP3   OH249074   1.682   1.703   2.666  0.2803  0.3520  0.2208
 9220TIP3    H149075   1.689   1.723   2.759 -0.1694  0.6277  0.1961
 9220TIP3    H249076   1.770   1.721   2.631  0.4837  0.1282  0.6126
 9221TIP3   OH249077   1.460   1.057   4.093 -0.3937  0.2788 -0.4750
 9221TIP3    H149078   1.478   0.974   4.136 -0.6766  1.0395  1.1662
 9221TIP3    H249079   1.545   1.101   4.086 -0.3155  0.0612 -0.8970
 9222TIP3   OH249080   2.750   3.425  17.166 -0.7726  0.5663 -0.3513
 9222TIP3    H149081   2.775   3.420  17.074 -1.2229  0.3183 -0.4646
 9222TIP3    H249082   2.655   3.440  17.164 -0.8238  0.3108  0.0745
 9223TIP3   OH249083   6.573   4.632  15.553  0.2574 -0.0321  0.1032
 9223TIP3    H149084   6.554   4.561  15.491 -1.2644  2.2154 -2.0883
 9223TIP3    H249085   6.497   4.635  15.610 -0.7480  1.3198 -1.2772
 9224TIP3   OH249086   1.905   3.050   6.128  0.2299 -0.2232  0.2441
 9224TIP3    H149087   1.960   3.059   6.050 -0.3920 -0.2252 -0.1952
 9224TIP3    H249088   1.861   3.134   6.137  1.3750  0.2682  1.4194
 9225TIP3   OH249089   4.961   2.114  14.826 -0.6882  0.0453  0.0594
 9225TIP3    H149090   5.011   2.163  14.891 -0.9387  1.0132 -0.4659
 9225TIP3    H249091   4.981   2.158  14.743  1.1123 -2.3060 -0.8327
 9226TIP3   OH249092   2.009   2.826  13.551  0.0579  0.4321 -0.1198
 9226TIP3    H149093   2.078   2.812  13.486  1.8828 -0.1489  1.8681
 9226TIP3    H249094   1.953   2.749  13.544  1.0101 -0.2756 -0.0978
 9227TIP3   OH249095   5.360   4.512   4.991  0.2779  0.1815 -0.0884
 9227TIP3    H149096   5.360   4.419   5.011 -0.4988  0.3843  0.8862
 9227TIP3    H249097   5.440   4.545   5.031 -0.1322  0.1739  0.7466
 9228TIP3   OH249098   3.300   5.736   2.106 -0.3195 -0.1037 -0.9634
 9228TIP3    H149099   3.262   5.731   2.193 -1.0376 -1.5458 -1.3426
 9228TIP3    H249100   3.388   5.699   2.116  0.1383  1.0740 -0.5651
 9229TIP3   OH249101   6.750   2.979   5.712  0.5537  0.6757 -0.2909
 9229TIP3    H149102   6.716   2.890   5.713  0.1651  0.7696 -2.5907
 9229TIP3    H249103   6.777   2.995   5.802  0.0628 -1.5380  0.2860
 9230TIP3   OH249104   2.484   5.934  11.368 -0.4714  0.7354  0.6089
 9230TIP3    H149105   2.419   6.003  11.374  0.5081  1.5598  1.9423
 9230TIP3    H249106   2.567   5.977  11.391  0.1709 -0.8258  1.2824
 9231TIP3   OH249107   1.117   6.571  15.540  0.0914  0.0372  0.1116
 9231TIP3    H149108   1.205   6.537  15.556  0.6591  1.4880  0.1416
 9231TIP3    H249109   1.080   6.583  15.627  0.2187  0.3559  0.1200
 9232TIP3   OH249110   1.280   5.234   2.474  0.4526  0.1903  0.7581
 9232TIP3    H149111   1.232   5.287   2.411 -0.4117  0.3404  1.5340
 9232TIP3    H249112   1.292   5.291   2.550  1.7489  0.1103  0.6263
 9233TIP3   OH249113   3.554   0.057  16.188  0.6724 -0.3455  0.1200
 9233TIP3    H149114   3.614   0.043  16.114  0.1450 -1.1305 -0.1749
 9233TIP3    H249115   3.473   0.089  16.147  0.1700 -1.3754  0.2775
 9234TIP3   OH249116   4.981   6.765  14.848 -0.0048 -0.1174  0.2959
 9234TIP3    H149117   5.044   6.825  14.808 -0.3797 -0.8707 -1.4419
 9234TIP3    H249118   5.014   6.678  14.828  0.0273 -0.5183  2.0112
 9235TIP3   OH249119   2.451   5.561  10.565  0.4784  0.4809  0.2146
 9235TIP3    H149120   2.483   5.541  10.653 -1.3720 -0.8818  0.5973
 9235TIP3    H249121   2.463   5.480  10.516  0.1185  0.7929 -0.3853
 9236TIP3   OH249122   5.482   6.418  15.317  0.9229 -0.0016  0.0920
 9236TIP3    H149123   5.419   6.488  15.303  2.4504  1.3182 -0.3551
 9236TIP3    H249124   5.456   6.379  15.401  1.1120  2.2656  1.2525
 9237TIP3   OH249125   0.423   5.250   6.820 -0.1301 -0.4152 -0.1247
 9237TIP3    H149126   0.346   5.286   6.864 -0.2098 -1.0648  0.2823
 9237TIP3    H249127   0.477   5.326   6.799  0.0061 -0.1119  1.2839
 9238TIP3   OH249128   5.350   4.768  12.754  0.6073  0.5251  0.3371
 9238TIP3    H149129   5.281   4.816  12.709 -0.5096  0.8735  2.3559
 9238TIP3    H249130   5.332   4.676  12.734 -0.6499  0.5893  1.1115
 9239TIP3   OH249131   5.037   0.988  14.566  0.7305 -0.0460 -0.3199
 9239TIP3    H149132   5.026   0.922  14.635  1.0979 -1.6539 -1.7685
 9239TIP3    H249133   4.985   1.063  14.597  0.4446 -0.9281  1.4390
 9240TIP3   OH249134   6.272   3.747  16.396  0.0811  0.0770  0.2669
 9240TIP3    H149135   6.180   3.759  16.420 -0.4820  0.8215 -2.1389
 9240TIP3    H249136   6.293   3.658  16.425 -1.9128 -0.7434 -0.7626
 9241TIP3   OH249137   1.739   5.360   5.524  0.0800 -0.1443 -0.1175
 9241TIP3    H149138   1.649   5.329   5.516  0.7102 -1.9920 -0.1791
 9241TIP3    H249139   1.750   5.382   5.616 -0.4861  0.2543 -0.1470
 9242TIP3   OH249140   6.347   5.003  15.312  0.0314 -0.6841  0.6836
 9242TIP3    H149141   6.398   4.970  15.386  1.2888 -0.5187 -0.0771
 9242TIP3    H249142   6.410   5.055  15.262 -1.1233  0.2605  0.1891
 9243TIP3   OH249143   3.949   2.004  12.253 -0.0903  0.4027  0.1365
 9243TIP3    H149144   3.999   2.058  12.314 -0.1627  0.3432  0.2478
 9243TIP3    H249145   3.857   2.020  12.275 -0.0959 -1.1312  1.3605
 9244TIP3   OH249146   2.293   5.972  12.491  0.2850 -0.3076  0.0186
 9244TIP3    H149147   2.300   5.927  12.407 -1.4370  0.5108 -0.5777
 9244TIP3    H249148   2.358   5.929  12.547  0.7442 -1.5176 -1.4295
 9245TIP3   OH249149   1.068   2.195  13.011 -0.2701  0.4592  0.1741
 9245TIP3    H149150   1.010   2.265  13.041 -1.3687 -0.8484  1.2308
 9245TIP3    H249151   1.053   2.124  13.074  0.9678 -0.6378 -0.7452
 9246TIP3   OH249152   5.796   4.733  11.045  0.3223 -0.1878 -0.1666
 9246TIP3    H149153   5.706   4.745  11.075  0.5485 -0.2589  0.5522
 9246TIP3    H249154   5.816   4.814  10.997 -0.6187 -0.7987 -1.6219
 9247TIP3   OH249155   5.199   4.546  15.709  0.3646  0.2588 -0.2253
 9247TIP3    H149156   5.240   4.628  15.683  1.7523  0.9108  3.5534
 9247TIP3    H249157   5.108   4.554  15.682  0.3974  3.2295  0.3603
 9248TIP3   OH249158   2.640   5.617   3.707  0.5033  0.2810  0.3257
 9248TIP3    H149159   2.559   5.610   3.758  0.3078 -1.2021 -0.1676
 9248TIP3    H249160   2.641   5.538   3.653  1.6511  0.9142 -0.5997
 9249TIP3   OH249161   1.428   3.458  11.168 -0.4885  0.3567 -0.1841
 9249TIP3    H149162   1.401   3.409  11.091 -0.9287 -1.6378  1.1905
 9249TIP3    H249163   1.385   3.543  11.159 -1.6485 -0.3409 -1.4418
 9250TIP3   OH249164   2.869   1.163   3.017 -0.0443 -0.2863  0.3550
 9250TIP3    H149165   2.862   1.255   3.044 -0.8296 -0.8874  2.3196
 9250TIP3    H249166   2.963   1.145   3.015  0.0791  0.2941  0.8976
 9251TIP3   OH249167   1.445   5.232   5.868 -0.1981 -0.5861  0.2446
 9251TIP3    H149168   1.453   5.320   5.905 -0.4544 -1.6324  2.8819
 9251TIP3    H249169   1.399   5.245   5.785  1.9197  2.0339 -0.5763
 9252TIP3   OH249170   2.853   4.935  10.882  0.4259  0.2720 -0.5778
 9252TIP3    H149171   2.760   4.930  10.906  1.2115 -1.3336  2.4058
 9252TIP3    H249172   2.869   4.854  10.835  0.8875 -0.7040  1.2176
 9253TIP3   OH249173   2.320   2.549   1.859 -0.4550  0.3839 -0.3933
 9253TIP3    H149174   2.340   2.461   1.892 -2.1259  0.4386  0.8397
 9253TIP3    H249175   2.227   2.545   1.837 -0.1999  1.4371 -1.6616
 9254TIP3   OH249176   5.984   0.054  15.097  0.1340 -0.2058 -0.0928
 9254TIP3    H149177   5.938  -0.030  15.089 -0.4822  0.0235  0.9791
 9254TIP3    H249178   6.030   0.048  15.181  1.4906 -0.1483 -0.8299
 9255TIP3   OH249179   4.439   2.851  11.856  0.4120 -0.1908  0.1235
 9255TIP3    H149180   4.509   2.916  11.866 -0.1873  0.6233 -0.8791
 9255TIP3    H249181   4.465   2.778  11.912 -0.2655  2.0521  3.4772
 9256TIP3   OH249182   0.870   5.769   0.797  0.4239  0.2965  0.2310
 9256TIP3    H149183   0.886   5.820   0.717  1.6930  1.2053  1.0359
 9256TIP3    H249184   0.862   5.836   0.865  0.9675 -0.5350  1.1168
 9257TIP3   OH249185   0.938   1.888  16.134 -0.4054 -0.6424 -0.7251
 9257TIP3    H149186   1.032   1.898  16.148 -0.4344 -0.8115 -0.4003
 9257TIP3    H249187   0.910   1.827  16.202 -1.1051  0.9702  0.4584
 9258TIP3   OH249188   2.576   4.787  15.403  0.1300  0.3356 -0.5785
 9258TIP3    H149189   2.584   4.733  15.324  0.9722 -0.3147 -0.0624
 9258TIP3    H249190   2.655   4.766  15.454 -0.1187  1.1833  0.1675
 9259TIP3   OH249191   0.586   5.056   5.943  0.2384 -0.0530  0.2448
 9259TIP3    H149192   0.523   5.111   5.990 -0.5366 -1.5686  0.9960
 9259TIP3    H249193   0.654   5.117   5.915 -0.7948  1.3571  0.7479
 9260TIP3   OH249194   3.257   0.039  10.699 -0.7160 -0.3029  0.3494
 9260TIP3    H149195   3.235   0.132  10.708 -0.8991 -0.2249 -0.8167
 9260TIP3    H249196   3.314   0.021  10.774 -1.1646  0.5992  0.9201
 9261TIP3   OH249197   5.598   1.389   3.256  0.2549  0.3160 -0.2284
 9261TIP3    H149198   5.514   1.417   3.221  0.7018 -0.3497 -1.8760
 9261TIP3    H249199   5.646   1.356   3.180  2.0692  0.8510  0.6504
 9262TIP3   OH249200   4.573   4.700   0.122 -0.0469  0.4207  0.0233
 9262TIP3    H149201   4.616   4.621   0.155 -0.2282  0.7055  0.9450
 9262TIP3    H249202   4.642   4.747   0.075  0.2234  0.0358  0.0313
 9263TIP3   OH249203   2.412   5.392  13.495  0.1006 -0.8834  0.1917
 9263TIP3    H149204   2.448   5.420  13.411 -3.3573  4.5074  0.3100
 9263TIP3    H249205   2.328   5.352  13.473  0.9010 -3.0332  0.8621
 9264TIP3   OH249206   2.771   4.239  13.979 -0.0035 -0.2638  0.0657
 9264TIP3    H149207   2.745   4.149  14.000  0.2119 -0.5389 -0.8228
 9264TIP3    H249208   2.714   4.264  13.906 -0.1346  0.3617  0.3812
 9265TIP3   OH249209   0.656   4.454  13.943  0.3470  0.1220 -0.5519
 9265TIP3    H149210   0.640   4.451  13.849 -1.0089  0.6213 -0.3459
 9265TIP3    H249211   0.658   4.362  13.970 -0.7152  0.0063 -0.8364
 9266TIP3   OH249212   0.131   6.682  13.082 -0.5547  0.3411 -0.1874
 9266TIP3    H149213   0.178   6.705  13.001 -0.3545  2.0812  0.4036
 9266TIP3    H249214   0.097   6.765  13.114 -0.3676 -0.2852  1.6809
 9267TIP3   OH249215   6.164   4.291  13.393  0.2613  0.2129 -0.4062
 9267TIP3    H149216   6.166   4.295  13.297 -2.4132 -0.2839 -0.5352
 9267TIP3    H249217   6.133   4.377  13.420  1.0894  0.3793  0.0012
 9268TIP3   OH249218   5.131   5.707   3.835  0.5588 -0.0681 -0.4685
 9268TIP3    H149219   5.132   5.737   3.926  0.7658  0.5301 -0.6667
 9268TIP3    H249220   5.042   5.675   3.822 -0.2149  2.0919 -0.7656
 9269TIP3   OH249221   6.148   2.803  11.982  0.1957 -0.5019  0.4084
 9269TIP3    H149222   6.097   2.788  12.062  0.7336 -1.4817  0.5661
 9269TIP3    H249223   6.152   2.899  11.975  0.0034 -0.4062  1.4596
 9270TIP3   OH249224   4.097   5.093   0.500  0.2302 -0.1606 -0.3074
 9270TIP3    H149225   4.003   5.107   0.496  0.0637 -1.1309  0.0328
 9270TIP3    H249226   4.134   5.165   0.450 -0.6323  0.8648  0.4889
 9271TIP3   OH249227   0.509   3.884   4.781 -0.0860 -0.5709 -0.0048
 9271TIP3    H149228   0.588   3.931   4.810  1.0029 -0.9813 -2.2049
 9271TIP3    H249229   0.532   3.850   4.694 -2.8056 -0.4698 -0.7876
 9272TIP3   OH249230   1.565   4.918  11.623 -0.1858  0.1625  0.1342
 9272TIP3    H149231   1.474   4.892  11.615 -0.6925  1.7285  0.7412
 9272TIP3    H249232   1.592   4.886  11.710  0.2611 -1.4763 -0.5757
 9273TIP3   OH249233   4.253   1.275  12.438 -0.4631 -0.6513  0.2381
 9273TIP3    H149234   4.332   1.299  12.487  1.9297 -2.9630 -2.2447
 9273TIP3    H249235   4.218   1.358  12.407  0.8512  0.4603  1.6393
 9274TIP3   OH249236   4.475   6.744  14.702  0.4184  0.8254 -0.7042
 9274TIP3    H149237   4.554   6.787  14.734  0.4960  0.3149 -0.2019
 9274TIP3    H249238   4.463   6.779  14.614  2.1534 -0.3286 -1.4361
 9275TIP3   OH249239   3.500   5.928   5.048  0.3915 -0.4321  0.2083
 9275TIP3    H149240   3.491   5.879   4.967 -0.3278  0.2708 -0.1508
 9275TIP3    H249241   3.411   5.932   5.084  0.6648 -0.5527  0.9230
 9276TIP3   OH249242   4.803   0.039   0.074 -0.2929 -0.5140  0.4246
 9276TIP3    H149243   4.826  -0.017   0.000  0.6791  1.3231 -0.7309
 9276TIP3    H249244   4.880   0.035   0.132  0.3134  0.5743 -0.2788
 9277TIP3   OH249245   3.208   0.137  12.586 -0.0255 -0.0267 -0.3721
 9277TIP3    H149246   3.180   0.078  12.515 -0.9006  1.3679 -1.2045
 9277TIP3    H249247   3.177   0.223  12.559  0.6260  0.7071  1.1842
 9278TIP3   OH249248   5.607   3.387   2.834 -0.0568 -1.3553 -0.0475
 9278TIP3    H149249   5.533   3.396   2.894  0.8258  0.0884  0.8552
 9278TIP3    H249250   5.621   3.292   2.826 -0.4941 -1.5687  1.6284
 9279TIP3   OH249251   4.085   0.559   4.175  0.1714  0.2731  0.2220
 9279TIP3    H149252   4.039   0.574   4.093  0.6405  0.0518 -0.0815
 9279TIP3    H249253   4.116   0.646   4.201 -0.0945  0.3643  0.2367
 9280TIP3   OH249254   0.969   0.826  15.610 -0.3737  0.1022 -0.2771
 9280TIP3    H149255   1.049   0.860  15.651 -1.1007  0.8046  0.5722
 9280TIP3    H249256   0.992   0.737  15.583  0.1074 -0.3861  1.6935
 9281TIP3   OH249257   4.581   0.877  15.347 -0.1632 -0.1422 -0.1189
 9281TIP3    H149258   4.584   0.862  15.252 -0.1960 -2.2491  0.1839
 9281TIP3    H249259   4.627   0.960  15.360  1.1409 -0.5642 -1.8518
 9282TIP3   OH249260   0.817   0.786  11.925 -0.3547 -0.1437 -0.1029
 9282TIP3    H149261   0.831   0.771  11.831 -0.4817 -0.8120 -0.0173
 9282TIP3    H249262   0.898   0.830  11.954 -0.2904  0.0107 -0.5094
 9283TIP3   OH249263   5.629   2.031  12.952  0.6912 -0.2638  0.4872
 9283TIP3    H149264   5.663   2.022  12.863 -2.3472 -1.7768 -0.6185
 9283TIP3    H249265   5.682   1.970  13.004  1.0214 -1.0707 -0.7666
 9284TIP3   OH249266   1.790   1.372   3.177 -0.1492  0.7450  0.6080
 9284TIP3    H149267   1.720   1.328   3.128  0.2099  0.6386  0.1804
 9284TIP3    H249268   1.865   1.369   3.118 -0.0124  1.5885  0.7372
 9285TIP3   OH249269   4.209   0.674  15.646  0.2390  0.9098 -0.1007
 9285TIP3    H149270   4.245   0.676  15.557  0.3753 -0.0072 -0.0672
 9285TIP3    H249271   4.168   0.588  15.654 -0.7929  1.4362  0.3279
 9286TIP3   OH249272   0.209   3.238  11.808 -0.3867 -0.4328 -0.3862
 9286TIP3    H149273   0.168   3.316  11.771 -1.3226 -0.4405  0.5964
 9286TIP3    H249274   0.300   3.242  11.779 -0.2942  1.3178  0.1153
 9287TIP3   OH249275   1.358   3.912  11.935  1.0394 -0.0777  0.0048
 9287TIP3    H149276   1.350   3.945  11.845  1.9368 -1.5524 -0.6390
 9287TIP3    H249277   1.445   3.940  11.963  0.7342  0.4372  0.4410
 9288TIP3   OH249278   6.093   1.772  11.637 -0.3799 -0.4946  0.3005
 9288TIP3    H149279   6.034   1.795  11.566  1.2233  1.7702 -0.3513
 9288TIP3    H249280   6.059   1.820  11.713  0.3604  0.4766  0.0254
 9289TIP3   OH249281   5.707   5.361   4.222 -0.1205 -0.5022  0.2138
 9289TIP3    H149282   5.762   5.351   4.144 -0.5986 -1.8997  0.0399
 9289TIP3    H249283   5.635   5.299   4.208  0.3781 -1.5757  2.2880
 9290TIP3   OH249284   1.011   4.633  14.561 -0.3303 -0.1394 -0.0173
 9290TIP3    H149285   0.990   4.601  14.473  0.8879  1.7194 -1.0054
 9290TIP3    H249286   1.082   4.576  14.591  0.7051  0.5509 -1.1115
 9291TIP3   OH249287   3.263   1.219   5.889  0.1309  0.6730  0.2524
 9291TIP3    H149288   3.260   1.149   5.823 -0.6856  1.2779 -0.3681
 9291TIP3    H249289   3.335   1.195   5.946  1.5081  0.6309 -1.4430
 9292TIP3   OH249290   4.717   4.154  16.203 -0.0117  0.2616  0.7338
 9292TIP3    H149291   4.637   4.134  16.251  1.6271 -3.1290  2.1882
 9292TIP3    H249292   4.767   4.211  16.261 -0.8904  1.5677  0.2360
 9293TIP3   OH249293   6.678   5.192   4.830  0.1188 -0.5404  0.9738
 9293TIP3    H149294   6.620   5.139   4.885 -1.6615 -0.0837 -0.4057
 9293TIP3    H249295   6.651   5.282   4.848 -0.2115 -0.3757 -0.3444
 9294TIP3   OH249296   1.742   3.157  10.426 -0.1295  0.4182  0.3464
 9294TIP3    H149297   1.830   3.167  10.462 -0.0912 -0.4861  0.5106
 9294TIP3    H249298   1.686   3.209  10.485  0.1647  0.2661  0.7606
 9295TIP3   OH249299   5.193   5.479   4.051  0.1276 -0.0140 -0.9265
 9295TIP3    H149300   5.145   5.560   4.069  0.7386  0.0528  0.4129
 9295TIP3    H249301   5.125   5.416   4.026 -0.5275  0.4252 -0.2571
 9296TIP3   OH249302   5.049   2.048   1.059 -0.2663  0.2665 -0.3843
 9296TIP3    H149303   4.991   2.122   1.074 -0.0158  0.2902  0.5077
 9296TIP3    H249304   5.134   2.076   1.093 -0.0432 -0.2321 -0.5158
 9297TIP3   OH249305   3.269   3.770  12.104  0.8404 -0.3191  0.8206
 9297TIP3    H149306   3.203   3.815  12.051  0.0959 -0.2505  1.7707
 9297TIP3    H249307   3.341   3.752  12.044  0.8952  1.6050  0.2894
 9298TIP3   OH249308   5.572   6.712   0.104 -0.1161  0.2251 -0.2676
 9298TIP3    H149309   5.664   6.717   0.130 -0.3829 -1.8063  1.2069
 9298TIP3    H249310   5.535   6.797   0.128  0.8805  0.2737  1.1302
 9299TIP3   OH249311   4.617   4.903   5.375  0.1191  0.2688 -0.4280
 9299TIP3    H149312   4.543   4.907   5.436  0.6956  0.3911  0.2640
 9299TIP3    H249313   4.694   4.918   5.429  0.6647  0.0441 -1.1352
 9300TIP3   OH249314   6.052   2.423   5.344  0.2051  0.2152  0.3198
 9300TIP3    H149315   6.007   2.349   5.303  0.0594  0.1742  0.5574
 9300TIP3    H249316   6.099   2.465   5.272  1.5588 -1.0355  0.4347
 9301TIP3   OH249317   6.680   2.358  13.192  0.3175 -0.1182  0.6092
 9301TIP3    H149318   6.748   2.291  13.200  2.4029  2.0996  2.0715
 9301TIP3    H249319   6.725   2.434  13.156 -2.0955  0.4253 -1.3719
 9302TIP3   OH249320   4.726   1.880   3.678  0.1768  0.0083  0.6522
 9302TIP3    H149321   4.664   1.829   3.730  0.8966  1.9255  3.5012
 9302TIP3    H249322   4.807   1.828   3.679  0.0332 -0.2073  1.0215
 9303TIP3   OH249323   4.182   2.960  12.749 -0.4665  0.1663  0.4305
 9303TIP3    H149324   4.236   2.882  12.763 -0.0468  0.1291 -1.2660
 9303TIP3    H249325   4.244   3.032  12.742 -0.7146  0.3375 -0.0606
 9304TIP3   OH249326   1.770   4.736   4.414 -0.6263  0.3944 -0.2222
 9304TIP3    H149327   1.823   4.708   4.488  0.9706 -1.3699 -1.9659
 9304TIP3    H249328   1.786   4.830   4.407 -0.9174  0.6007  1.7463
 9305TIP3   OH249329   0.976   5.206  11.460 -0.2951  1.1255 -0.2995
 9305TIP3    H149330   1.009   5.297  11.460  3.2816 -0.0463  1.5881
 9305TIP3    H249331   0.944   5.193  11.549 -0.4047  0.4354 -0.4414
 9306TIP3   OH249332   1.227   5.589   2.092  0.1120  0.1344  0.0868
 9306TIP3    H149333   1.263   5.501   2.105 -0.8700 -0.5915 -1.8499
 9306TIP3    H249334   1.163   5.578   2.021 -2.1329  1.8679  1.7816
 9307TIP3   OH249335   4.764   4.672  13.425  0.2170  0.1940 -0.1456
 9307TIP3    H149336   4.724   4.646  13.343  0.0408  0.9126 -0.2944
 9307TIP3    H249337   4.850   4.631  13.424  0.2764  0.3241 -0.7603
 9308TIP3   OH249338   3.019   3.663  13.849 -0.4442  0.2564  0.5148
 9308TIP3    H149339   3.040   3.756  13.845 -3.5325  1.0289  1.1600
 9308TIP3    H249340   3.057   3.633  13.931 -0.4521  1.2223  0.8794
 9309TIP3   OH249341   6.517   4.336  14.124 -0.0480 -0.5966 -0.3709
 9309TIP3    H149342   6.518   4.240  14.128 -0.0514 -0.6133 -0.7211
 9309TIP3    H249343   6.425   4.360  14.130  0.0554 -0.5401  1.2593
 9310TIP3   OH249344   1.775   0.778   2.040  0.1632 -0.4231 -0.3458
 9310TIP3    H149345   1.801   0.870   2.040 -0.4759 -0.2382 -0.7438
 9310TIP3    H249346   1.856   0.730   2.020  0.5820  0.0186  0.2482
 9311TIP3   OH249347   1.199   1.122   4.020  0.1797 -0.3659 -0.6452
 9311TIP3    H149348   1.290   1.094   4.025 -0.1471 -1.3716 -0.3710
 9311TIP3    H249349   1.153   1.067   4.083 -0.1371  2.1219  1.3840
 9312TIP3   OH249350   2.190   4.732  10.399 -0.1584 -0.1526  0.2205
 9312TIP3    H149351   2.220   4.716  10.489 -1.3946 -0.1490  0.6401
 9312TIP3    H249352   2.097   4.751  10.408  0.0665  1.5555 -0.8990
 9313TIP3   OH249353   6.398   1.071   3.644 -0.0317  0.5129 -0.0535
 9313TIP3    H149354   6.323   1.019   3.674 -0.2646  0.3746 -0.8659
 9313TIP3    H249355   6.464   1.006   3.620  0.5716  0.6461  1.2188
 9314TIP3   OH249356   1.299   0.748   2.132 -0.7803 -0.0517  0.1797
 9314TIP3    H149357   1.240   0.802   2.081 -0.0147  0.1927 -0.4505
 9314TIP3    H249358   1.334   0.684   2.070 -0.9608 -0.6778  0.7153
 9315TIP3   OH249359   0.993   1.904  14.640 -0.3529  0.2179 -0.1974
 9315TIP3    H149360   0.998   1.813  14.669 -0.0880  0.1301 -0.5228
 9315TIP3    H249361   1.077   1.921  14.597  0.4684  1.2464  1.7053
 9316TIP3   OH249362   5.030   5.193   0.057  0.1666 -0.1897  0.0254
 9316TIP3    H149363   4.958   5.181  -0.006 -1.2999 -0.8805  1.7630
 9316TIP3    H249364   5.109   5.184   0.005 -1.0074 -1.1141 -1.6706
 9317TIP3   OH249365   3.877   1.080  15.453  0.4202 -0.1967  0.0934
 9317TIP3    H149366   3.867   1.081  15.548  1.5823 -1.8414  0.2710
 9317TIP3    H249367   3.929   1.001  15.436  0.9322  0.5331 -1.8312
 9318TIP3   OH249368   2.131   3.254  14.031 -0.1147 -0.0099  0.0104
 9318TIP3    H149369   2.117   3.172  14.079  0.1446 -0.3487 -0.4854
 9318TIP3    H249370   2.201   3.233  13.969  0.2849  0.7253  0.2100
 9319TIP3   OH249371   2.044   2.141   2.463 -0.1668  0.3694  0.4470
 9319TIP3    H149372   2.079   2.199   2.396  0.7502  0.3719  0.9225
 9319TIP3    H249373   1.955   2.173   2.478 -0.6963 -0.1859 -1.4031
 9320TIP3   OH249374   2.433   6.457   1.773  0.2194 -0.4570  0.3468
 9320TIP3    H149375   2.487   6.532   1.798 -0.8025  0.5099 -0.2544
 9320TIP3    H249376   2.492   6.382   1.775  1.9009  0.7606 -1.5221
 9321TIP3   OH249377   0.853   5.136  13.618 -0.1191 -0.4487 -0.1111
 9321TIP3    H149378   0.912   5.062  13.634  0.8169 -0.2063 -2.3696
 9321TIP3    H249379   0.866   5.158  13.526 -0.8684  2.1175  0.3637
 9322TIP3   OH249380   4.414   3.261  14.402 -0.6415 -0.2541  0.2140
 9322TIP3    H149381   4.365   3.311  14.467  0.1846  0.4322  0.3173
 9322TIP3    H249382   4.350   3.199  14.366 -0.9245 -1.1410  2.1818
 9323TIP3   OH249383   4.863   5.046  15.144 -0.1929 -0.0719  0.2112
 9323TIP3    H149384   4.936   4.985  15.138  0.7645  1.0085  0.7431
 9323TIP3    H249385   4.793   4.996  15.186  0.5370 -0.8329  0.5279
 9324TIP3   OH249386   3.594   0.094  16.625 -0.0492  0.7645  0.2769
 9324TIP3    H149387   3.679   0.109  16.584  0.2479 -0.0718  0.5996
 9324TIP3    H249388   3.542   0.050  16.557  0.2974 -0.2050  0.6356
 9325TIP3   OH249389   2.373   2.125   6.290  0.3853  0.6913 -0.5313
 9325TIP3    H149390   2.372   2.182   6.212  0.7076 -0.5289 -1.4385
 9325TIP3    H249391   2.453   2.073   6.281  0.8453  1.1068  1.0505
 9326TIP3   OH249392   2.304   1.079   5.122  0.0097  0.3609  0.1467
 9326TIP3    H149393   2.221   1.126   5.119  0.6303  1.5013  0.2786
 9326TIP3    H249394   2.301   1.019   5.047 -1.6306 -0.8497  1.1482
 9327TIP3   OH249395   4.359   2.781   1.503 -0.4035  0.0055  0.0917
 9327TIP3    H149396   4.344   2.686   1.498 -1.0897  0.0688  0.7663
 9327TIP3    H249397   4.285   2.819   1.456 -0.6712  0.2313  0.6840
 9328TIP3   OH249398   2.090   4.077   4.049  0.6883 -0.8018  0.0169
 9328TIP3    H149399   2.121   4.022   3.977  2.5400 -0.2506  0.3881
 9328TIP3    H249400   2.035   4.143   4.007  0.7043 -1.2710 -0.7467
 9329TIP3   OH249401   3.888   2.142   3.865 -0.6124  0.3892  0.6595
 9329TIP3    H149402   3.948   2.128   3.939  0.5506  2.3221  0.1296
 9329TIP3    H249403   3.804   2.110   3.896  0.7032 -2.4553  1.4013
 9330TIP3   OH249404   5.227   4.409  15.425 -0.2248  0.0298  0.0114
 9330TIP3    H149405   5.261   4.339  15.481 -0.5775  1.4098  1.9960
 9330TIP3    H249406   5.137   4.385  15.408 -0.9862  0.9925  2.4204
 9331TIP3   OH249407   6.199   3.537  15.023 -0.3748 -0.5217 -0.0359
 9331TIP3    H149408   6.179   3.597  14.951  0.1864 -1.6532 -1.1569
 9331TIP3    H249409   6.198   3.592  15.101 -2.1892  0.5067 -0.7452
 9332TIP3   OH249410   6.470   1.447   0.798  0.3811 -0.2677  0.5396
 9332TIP3    H149411   6.427   1.362   0.792  0.1383 -0.0917 -0.2230
 9332TIP3    H249412   6.458   1.487   0.712 -1.5793  1.5374  1.5919
 9333TIP3   OH249413   4.100   6.617  16.370 -0.2884 -0.0035  0.7522
 9333TIP3    H149414   4.137   6.562  16.439  0.2051 -1.1112 -0.3845
 9333TIP3    H249415   4.142   6.702  16.383  0.3698 -0.4115  1.3406
 9334TIP3   OH249416   0.178   3.030  12.769  0.4023 -0.0328  0.1341
 9334TIP3    H149417   0.140   3.095  12.710  0.9127  1.2160  1.1665
 9334TIP3    H249418   0.110   2.963  12.778 -0.5806  0.9249 -0.0425
 9335TIP3   OH249419   0.836   3.858   0.234  0.0502 -0.2002  0.0239
 9335TIP3    H149420   0.878   3.787   0.185  1.7618 -0.1175  1.3461
 9335TIP3    H249421   0.787   3.907   0.167  0.9169 -1.1216 -1.3116
 9336TIP3   OH249422   3.249   4.588   3.704 -0.8990  0.4214  0.0294
 9336TIP3    H149423   3.246   4.569   3.610 -0.4017 -0.2079  0.1431
 9336TIP3    H249424   3.280   4.679   3.709  2.4763 -0.6486 -0.3079
 9337TIP3   OH249425   4.505   3.811  13.203 -0.2782  0.2050  0.5108
 9337TIP3    H149426   4.525   3.864  13.280  0.7828  0.8653 -0.2059
 9337TIP3    H249427   4.538   3.724  13.224  2.9335  1.1216 -0.4084
 9338TIP3   OH249428   0.059   5.826  17.165 -0.0742 -0.1984 -0.1824
 9338TIP3    H149429   0.005   5.789  17.235  0.8350 -1.9093 -0.3512
 9338TIP3    H249430   0.055   5.761  17.095  1.0869  0.2922 -0.7098
 9339TIP3   OH249431   0.662   6.734   1.018  0.1184  0.4980  0.8732
 9339TIP3    H149432   0.717   6.691   1.084  2.2576 -0.8333 -1.6706
 9339TIP3    H249433   0.720   6.745   0.943 -2.5832  0.9360 -1.2046
 9340TIP3   OH249434   3.134   3.488   1.368 -0.3694  0.2139 -0.2418
 9340TIP3    H149435   3.045   3.463   1.391 -0.5789  1.4111  0.2264
 9340TIP3    H249436   3.171   3.523   1.448  1.1904 -2.0848  0.1089
 9341TIP3   OH249437   2.137   1.410   5.772  0.0934  0.1178 -0.8261
 9341TIP3    H149438   2.157   1.503   5.763  1.7981  0.0069  1.1986
 9341TIP3    H249439   2.065   1.406   5.836  0.9245  0.0121  0.1240
 9342TIP3   OH249440   5.177   2.900   1.561 -0.0655 -0.5332  0.2729
 9342TIP3    H149441   5.259   2.851   1.561  0.2350 -0.0481  1.4108
 9342TIP3    H249442   5.205   2.992   1.562 -0.5920 -0.3658  3.9593
 9343TIP3   OH249443   4.443   3.083  16.395  0.0404 -0.4912  0.1327
 9343TIP3    H149444   4.431   2.989  16.388 -0.3971 -0.3760 -0.7382
 9343TIP3    H249445   4.385   3.120  16.329  2.1874  0.2490 -1.4182
 9344TIP3   OH249446   3.680   4.246  12.809 -0.3501 -0.0358  0.0983
 9344TIP3    H149447   3.590   4.252  12.779 -0.1033  2.3478 -0.2579
 9344TIP3    H249448   3.673   4.232  12.904 -1.0744 -0.5590 -0.0282
 9345TIP3   OH249449   2.353   6.016   2.492  0.1971 -0.1301 -0.3538
 9345TIP3    H149450   2.342   5.989   2.400  1.6822  0.1064 -0.6099
 9345TIP3    H249451   2.445   6.042   2.498 -0.1152  0.6742  0.9940
 9346TIP3   OH249452   6.534   3.727  13.797 -0.0016 -0.2088 -0.2919
 9346TIP3    H149453   6.528   3.642  13.841 -2.8139  0.6024  1.0048
 9346TIP3    H249454   6.523   3.708  13.704 -2.4359 -1.1075  0.1560
 9347TIP3   OH249455   3.285   6.104   4.346 -0.0249 -0.5845  0.1538
 9347TIP3    H149456   3.317   6.173   4.404  0.1848 -1.0198  0.5651
 9347TIP3    H249457   3.218   6.146   4.292  1.5325  0.4580 -1.0240
 9348TIP3   OH249458   6.352   0.472  11.638  0.7454  0.4014  0.0531
 9348TIP3    H149459   6.320   0.557  11.668 -1.0466 -0.0810 -0.4324
 9348TIP3    H249460   6.277   0.432  11.594  1.5657 -1.4286  0.2521
 9349TIP3   OH249461   1.700   2.095  16.058  0.2699  0.3578  0.0136
 9349TIP3    H149462   1.608   2.098  16.084  0.8868  0.2455  2.3098
 9349TIP3    H249463   1.741   2.168  16.104  1.0904  1.3009 -2.1288
 9350TIP3   OH249464   1.490   6.580   4.116  0.3434  0.1888  0.2300
 9350TIP3    H149465   1.553   6.539   4.058 -0.0008  0.2023 -0.1557
 9350TIP3    H249466   1.494   6.527   4.196  0.2162 -0.3355 -0.1055
 9351TIP3   OH249467   2.822   0.987  13.867 -0.4861  0.1761  1.1240
 9351TIP3    H149468   2.789   1.050  13.803 -0.7138 -0.7864  0.2675
 9351TIP3    H249469   2.774   1.007  13.947 -2.7897 -0.8224  0.0470
 9352TIP3   OH249470   2.355   1.593  15.478 -0.1564  0.1481  0.0931
 9352TIP3    H149471   2.342   1.688  15.483  3.5314  0.7849 -0.8292
 9352TIP3    H249472   2.358   1.565  15.570  0.2239  1.1993  0.4189
 9353TIP3   OH249473   1.983   3.462   6.402  0.1075  0.4907 -0.0226
 9353TIP3    H149474   1.947   3.543   6.439 -0.2578  0.4560 -0.2997
 9353TIP3    H249475   2.027   3.490   6.322 -2.1161  0.1098 -1.4502
 9354TIP3   OH249476   4.234   6.297   6.325 -0.1334  0.1620 -0.2906
 9354TIP3    H149477   4.174   6.267   6.256 -0.9553  1.7248 -0.2630
 9354TIP3    H249478   4.181   6.352   6.382  0.8473 -0.1058  0.9114
 9355TIP3   OH249479   5.674   2.049   4.723  0.0948 -0.2867 -0.3319
 9355TIP3    H149480   5.751   2.063   4.778 -0.4931  0.1764  0.4030
 9355TIP3    H249481   5.643   2.138   4.704 -0.2199 -0.4689 -0.6592
 9356TIP3   OH249482   3.879   5.371  17.044  0.0489 -0.3205 -0.4850
 9356TIP3    H149483   3.852   5.286  17.078  1.3595 -0.0494  1.3531
 9356TIP3    H249484   3.827   5.434  17.093  1.3707  0.0480  0.4754
 9357TIP3   OH249485   0.732   2.919   0.910  0.1681  0.1393  0.2520
 9357TIP3    H149486   0.750   2.886   0.998  1.1049 -0.6903 -0.2465
 9357TIP3    H249487   0.801   2.983   0.893  1.3122 -1.3251 -0.7378
 9358TIP3   OH249488   5.056   2.483  16.238 -0.4007  0.2946  0.1227
 9358TIP3    H149489   4.967   2.516  16.228 -1.1284 -1.7342 -0.3916
 9358TIP3    H249490   5.103   2.520  16.163 -1.2558 -0.0208 -0.5858
 9359TIP3   OH249491   2.766   3.015  13.836  0.2054  0.5051 -0.0586
 9359TIP3    H149492   2.852   3.025  13.877 -0.9259  0.0961  2.4573
 9359TIP3    H249493   2.748   2.921  13.838 -0.3576  0.5974 -0.5070
 9360TIP3   OH249494   2.402   4.694   5.080  0.0191  0.6741  0.1868
 9360TIP3    H149495   2.412   4.607   5.120 -2.8209  1.6365  3.2456
 9360TIP3    H249496   2.443   4.754   5.143 -2.6957  2.0250  0.7291
 9361TIP3   OH249497   5.049   5.435  14.857 -0.3671 -0.0947  0.5350
 9361TIP3    H149498   5.061   5.342  14.837 -0.2425  0.7531 -3.6200
 9361TIP3    H249499   5.129   5.477  14.825 -0.5753  1.5460  2.0532
 9362TIP3   OH249500   0.873   0.362   3.264  0.6013 -0.3627 -0.3460
 9362TIP3    H149501   0.876   0.456   3.280 -0.4771 -0.2746 -0.6585
 9362TIP3    H249502   0.801   0.331   3.319 -0.3572 -0.6992 -1.7616
 9363TIP3   OH249503   2.864   3.643  13.537  0.2735  0.0741 -0.9323
 9363TIP3    H149504   2.937   3.585  13.560  1.1072  1.0322 -1.0913
 9363TIP3    H249505   2.862   3.708  13.608 -1.6610 -1.0524  0.0719
 9364TIP3   OH249506   4.083   0.115  14.489 -0.1801  0.0701 -0.3202
 9364TIP3    H149507   4.056   0.129  14.580 -0.1023 -0.0214 -0.2833
 9364TIP3    H249508   4.159   0.173  14.478 -0.3479  0.2732 -0.4020
 9365TIP3   OH249509   4.724   3.738   3.093 -0.4746  0.4146 -0.0594
 9365TIP3    H149510   4.730   3.691   3.176 -1.0657 -0.3489 -0.4383
 9365TIP3    H249511   4.792   3.699   3.038 -1.7848 -0.9134 -0.8001
 9366TIP3   OH249512   2.699   5.990  10.692 -1.5640  0.4834  0.1330
 9366TIP3    H149513   2.786   6.029  10.684 -1.8978  1.6922  1.9478
 9366TIP3    H249514   2.706   5.905  10.648  0.3263  0.8698 -0.3420
 9367TIP3   OH249515   0.501   5.650   5.632  0.3814 -0.2064  0.3155
 9367TIP3    H149516   0.469   5.725   5.681 -0.9222 -0.6465  0.1460
 9367TIP3    H249517   0.597   5.660   5.633  0.2060  1.8553 -0.3430
 9368TIP3   OH249518   0.257   5.068   0.662 -0.1975  0.1252  0.1393
 9368TIP3    H149519   0.298   4.982   0.674  0.1438  0.3932  0.8785
 9368TIP3    H249520   0.296   5.124   0.729 -1.3982  0.5238  0.5255
 9369TIP3   OH249521   2.096   4.599  17.027 -0.2798  0.0718 -0.3876
 9369TIP3    H149522   2.018   4.593  16.971  0.2916 -3.2479 -0.8812
 9369TIP3    H249523   2.169   4.585  16.967  0.5125 -0.3420  0.6747
 9370TIP3   OH249524   0.961   2.314  11.736  0.1437 -0.0947  0.3097
 9370TIP3    H149525   0.996   2.403  11.728 -0.3320  0.0528 -0.1846
 9370TIP3    H249526   1.026   2.258  11.693 -0.7791  0.3153 -1.6888
 9371TIP3   OH249527   0.221   3.014   0.146  0.3992 -0.1607  0.2580
 9371TIP3    H149528   0.305   3.004   0.101  0.6704 -1.5610  1.0752
 9371TIP3    H249529   0.158   2.970   0.089  0.4023 -0.0892  0.1996
 9372TIP3   OH249530   5.563   5.570   4.335  0.2443  0.0115  0.1373
 9372TIP3    H149531   5.627   5.518   4.287  0.9578 -0.2274  1.3098
 9372TIP3    H249532   5.552   5.523   4.418 -2.4617 -0.6696 -0.5633
 9373TIP3   OH249533   3.321   6.719   6.433  0.0639 -0.4249  0.4797
 9373TIP3    H149534   3.286   6.710   6.521  0.1535  0.5138  0.6209
 9373TIP3    H249535   3.394   6.657   6.430  1.4712  1.0744  1.8250
 9374TIP3   OH249536   1.196   0.608   6.280 -0.6172  0.1114 -0.5098
 9374TIP3    H149537   1.129   0.666   6.316 -1.8597 -1.3002 -0.5288
 9374TIP3    H249538   1.225   0.555   6.354  0.0946  0.3386 -0.6203
 9375TIP3   OH249539   3.528   2.992   3.306  0.3018  0.0076  0.5706
 9375TIP3    H149540   3.616   2.962   3.285 -0.3538 -0.8261 -1.0646
 9375TIP3    H249541   3.492   2.924   3.362  0.1475 -0.4108 -0.0367
 9376TIP3   OH249542   1.484   1.489   6.808 -0.0399 -0.2937 -0.1191
 9376TIP3    H149543   1.472   1.475   6.714  0.8437 -0.2305 -0.2421
 9376TIP3    H249544   1.397   1.512   6.840 -0.5393 -1.2388 -0.7578
 9377TIP3   OH249545   2.520   0.626  12.385 -0.1815 -0.2679  0.4140
 9377TIP3    H149546   2.590   0.650  12.446 -0.6437  0.8252  0.5297
 9377TIP3    H249547   2.509   0.704  12.330 -0.3718 -0.9310 -0.4890
 9378TIP3   OH249548   2.916   3.924  12.989 -0.2271  0.1864 -0.4794
 9378TIP3    H149549   2.930   4.010  13.028 -3.3178  0.2047  0.6873
 9378TIP3    H249550   2.850   3.937  12.922 -1.3235 -1.3974  0.2586
 9379TIP3   OH249551   4.861   1.653  16.182  0.0414  0.1184  0.3272
 9379TIP3    H149552   4.852   1.601  16.261 -1.6591  0.8349  0.6308
 9379TIP3    H249553   4.802   1.611  16.119  1.9331 -0.8966 -0.8296
 9380TIP3   OH249554   4.407   4.227  11.515 -0.3734 -0.4532  0.6348
 9380TIP3    H149555   4.443   4.154  11.466 -1.6709 -0.4281 -0.3947
 9380TIP3    H249556   4.375   4.188  11.597  0.1579 -0.7988  0.6758
 9381TIP3   OH249557   2.051   5.263   1.027  0.0236  0.3544  0.2659
 9381TIP3    H149558   1.987   5.212   0.977 -2.7072  0.2071  3.7000
 9381TIP3    H249559   2.120   5.201   1.049 -0.9708 -0.7090  0.4416
 9382TIP3   OH249560   3.906   6.519   4.857 -0.8859  0.5236  0.2733
 9382TIP3    H149561   3.838   6.491   4.918  1.2267 -0.5499  2.2067
 9382TIP3    H249562   3.924   6.441   4.804  1.6287 -0.4874  2.4813
 9383TIP3   OH249563   4.938   2.699   6.077  0.2871 -0.0863 -0.2504
 9383TIP3    H149564   4.899   2.755   6.144 -2.1417 -0.5311 -1.2122
 9383TIP3    H249565   4.945   2.613   6.119  0.4186  0.0577  0.0192
 9384TIP3   OH249566   3.875   0.906   3.842  0.6398  0.4369 -0.4905
 9384TIP3    H149567   3.833   0.969   3.784 -2.5600 -1.9468 -0.8963
 9384TIP3    H249568   3.849   0.934   3.930  0.2347  0.3641 -0.5880
 9385TIP3   OH249569   4.458   5.277  16.832  0.2688  0.5570  0.2785
 9385TIP3    H149570   4.511   5.203  16.802 -0.4148  0.2619 -0.2245
 9385TIP3    H249571   4.453   5.265  16.927 -0.3902 -0.4193  0.1231
 9386TIP3   OH249572   2.619   3.577   1.672 -0.3001 -0.2047 -0.0328
 9386TIP3    H149573   2.550   3.627   1.716 -1.0774 -0.2716 -1.1346
 9386TIP3    H249574   2.649   3.514   1.738 -0.3283  0.7469  0.8966
 9387TIP3   OH249575   3.222   5.163   1.260  0.8281 -0.1537  0.0381
 9387TIP3    H149576   3.281   5.183   1.332  0.2178  1.3650  0.1360
 9387TIP3    H249577   3.159   5.101   1.297  1.3890 -0.5039  0.3986
 9388TIP3   OH249578   6.713   2.002   2.313 -0.4408  0.0382  0.0199
 9388TIP3    H149579   6.643   2.061   2.341 -0.9579  1.4179 -3.7950
 9388TIP3    H249580   6.792   2.056   2.313 -0.0257 -0.5632  0.9918
 9389TIP3   OH249581   1.789   1.413  13.179 -0.3440 -0.0902 -0.4237
 9389TIP3    H149582   1.869   1.372  13.147  0.5253  1.9777 -0.9633
 9389TIP3    H249583   1.803   1.424  13.273 -1.0378 -2.0101 -0.0775
 9390TIP3   OH249584   1.445   5.050  14.644 -0.0152  0.0880 -0.2118
 9390TIP3    H149585   1.355   5.084  14.641 -0.8705 -2.1819 -1.0589
 9390TIP3    H249586   1.474   5.052  14.553  1.0192  1.3513  0.1326
 9391TIP3   OH249587   3.863   3.280   1.579 -0.5198  0.6010 -0.1211
 9391TIP3    H149588   3.789   3.335   1.553  0.6715  1.1184 -2.5202
 9391TIP3    H249589   3.870   3.215   1.509  1.2374  0.4891  0.1462
 9392TIP3   OH249590   1.965   5.876   2.387 -0.4874 -0.9673  0.9023
 9392TIP3    H149591   2.000   5.851   2.473  1.6264 -1.2672 -0.0122
 9392TIP3    H249592   1.964   5.972   2.388  2.6275 -0.8818  0.1043
 9393TIP3   OH249593   0.193   2.548  15.665 -0.4760  0.0538 -0.1890
 9393TIP3    H149594   0.190   2.642  15.683 -0.3586 -0.2281  1.3747
 9393TIP3    H249595   0.251   2.540  15.589  1.5773  1.0634  1.2093
 9394TIP3   OH249596   2.223   1.887   2.052  0.1961 -0.1039  0.1230
 9394TIP3    H149597   2.310   1.923   2.071  1.2959 -1.7235 -1.6165
 9394TIP3    H249598   2.177   1.958   2.006  0.8564  0.5047  0.3958
 9395TIP3   OH249599   3.226   5.516  16.826  0.2473  0.9411  0.2223
 9395TIP3    H149600   3.240   5.431  16.785  0.1427  1.0299  0.0041
 9395TIP3    H249601   3.180   5.496  16.907  1.2686  0.6761  0.7530
 9396TIP3   OH249602   5.893   4.184   5.286 -0.5307 -0.0397 -0.1324
 9396TIP3    H149603   5.985   4.165   5.265 -0.1436  0.5743  0.9723
 9396TIP3    H249604   5.896   4.227   5.371 -1.9214 -0.7944  0.3196
 9397TIP3   OH249605   2.095   0.448   5.467 -0.3438 -0.1950  0.4010
 9397TIP3    H149606   2.045   0.410   5.539 -0.4033 -0.2949  0.3086
 9397TIP3    H249607   2.058   0.406   5.388 -1.4903  1.2491  0.1572
 9398TIP3   OH249608   0.596   3.916   1.795 -0.3371 -0.8352  0.2438
 9398TIP3    H149609   0.530   3.885   1.856  0.0388 -0.8647  0.6320
 9398TIP3    H249610   0.613   3.842   1.737 -0.5203 -0.8807  0.2483
 9399TIP3   OH249611   6.074   4.709  15.273  0.1851  0.0583  0.3631
 9399TIP3    H149612   6.028   4.745  15.349  0.4471 -0.0617  0.5767
 9399TIP3    H249613   6.020   4.735  15.198 -0.5280 -0.5347  0.6593
 9400TIP3   OH249614   2.060   4.049  11.396 -0.1029 -0.1132 -0.3922
 9400TIP3    H149615   2.047   3.992  11.472 -1.3862  1.3498  0.5220
 9400TIP3    H249616   2.115   4.120  11.429  0.8673 -0.4158 -1.3260
 9401TIP3   OH249617   2.797   4.614   0.512 -0.2033 -0.2962 -0.0711
 9401TIP3    H149618   2.720   4.595   0.566  1.0212 -0.5679  1.6127
 9401TIP3    H249619   2.870   4.575   0.559  1.1848  1.2631 -0.8608
 9402TIP3   OH249620   2.328   1.861  15.361 -0.2776 -0.6025 -0.2903
 9402TIP3    H149621   2.317   1.954  15.379  0.0369 -0.7999  1.0351
 9402TIP3    H249622   2.251   1.836  15.310 -1.0842  0.0739  0.5863
 9403TIP3   OH249623   1.380   6.345  12.382  0.4628 -0.3797  0.6819
 9403TIP3    H149624   1.377   6.363  12.476  1.2263  2.6905  0.1736
 9403TIP3    H249625   1.450   6.281  12.372 -1.1746 -2.5348  2.4202
 9404TIP3   OH249626   3.071   1.792   3.203  0.8599  0.3890  0.0543
 9404TIP3    H149627   3.121   1.724   3.158  1.6180  1.8741 -1.3997
 9404TIP3    H249628   3.126   1.819   3.276  0.9492  0.0385  0.1138
 9405TIP3   OH249629   0.855   3.874  12.940 -0.3111  0.3147  0.1353
 9405TIP3    H149630   0.936   3.912  12.906  0.1076  0.1701  0.9687
 9405TIP3    H249631   0.790   3.943  12.928 -0.2713  0.1115 -1.3730
 9406TIP3   OH249632   0.803   5.370  16.820  0.5852  0.2107  0.5238
 9406TIP3    H149633   0.757   5.411  16.747  0.5206  1.2167  1.1216
 9406TIP3    H249634   0.734   5.326  16.870  0.3445  1.2110  1.0849
 9407TIP3   OH249635   1.829   2.290  14.305 -0.1783 -0.1894 -0.6113
 9407TIP3    H149636   1.814   2.292  14.211 -1.0955 -1.5331 -0.5243
 9407TIP3    H249637   1.911   2.337  14.319 -1.9213  3.3465 -1.6785
 9408TIP3   OH249638   4.177   5.044  13.655  0.5298 -0.4123 -0.1124
 9408TIP3    H149639   4.135   4.989  13.590  3.2374 -0.8516 -1.5596
 9408TIP3    H249640   4.222   4.983  13.714  0.1022  0.0824  0.7379
 9409TIP3   OH249641   3.956   2.642  15.898 -0.1045  0.4431 -0.2929
 9409TIP3    H149642   4.000   2.668  15.817 -1.1358  1.1201 -0.6459
 9409TIP3    H249643   3.867   2.676  15.889 -0.5055 -0.3114  0.7099
 9410TIP3   OH249644   5.252   5.125  17.132 -0.1092  0.4425 -0.1565
 9410TIP3    H149645   5.303   5.205  17.120  0.3099 -0.0800 -1.9946
 9410TIP3    H249646   5.316   5.060  17.160 -0.2814  0.5005  0.3799
 9411TIP3   OH249647   6.342   1.160   2.525  0.4880 -0.1925  0.2733
 9411TIP3    H149648   6.315   1.075   2.560 -2.3118  0.4614 -0.1744
 9411TIP3    H249649   6.260   1.208   2.514  1.9901  2.4115  0.0975
 9412TIP3   OH249650   0.813   6.216  10.963 -0.0754 -0.2002  0.2931
 9412TIP3    H149651   0.893   6.205  11.015  0.2046  0.1193 -0.0647
 9412TIP3    H249652   0.762   6.281  11.010 -0.7435 -1.3885  1.2490
 9413TIP3   OH249653   2.129   2.464  12.538  0.0376  0.2701  0.8647
 9413TIP3    H149654   2.175   2.444  12.456 -2.6418  2.0776 -1.1597
 9413TIP3    H249655   2.193   2.513  12.590  1.4776 -0.1065 -0.5233
 9414TIP3   OH249656   5.822   3.691  14.075  0.9227 -1.0142 -0.5895
 9414TIP3    H149657   5.766   3.764  14.098  2.8804  0.5568 -0.6204
 9414TIP3    H249658   5.769   3.637  14.016 -0.6626  0.1862 -0.2895
 9415TIP3   OH249659   6.566   1.724   4.403 -0.4610  0.1920 -0.5422
 9415TIP3    H149660   6.642   1.665   4.409 -0.2049  0.4527 -1.2220
 9415TIP3    H249661   6.492   1.665   4.386 -0.1383  0.1044 -1.6606
 9416TIP3   OH249662   4.586   1.434   0.474 -0.9032 -0.2462  0.0490
 9416TIP3    H149663   4.497   1.401   0.484 -0.3874 -0.8719  2.8004
 9416TIP3    H249664   4.619   1.390   0.396 -2.3924 -1.3635  0.0289
 9417TIP3   OH249665   5.859   1.757  13.550  0.4471  0.5195 -0.2535
 9417TIP3    H149666   5.782   1.764  13.494  0.3496 -0.6075 -0.2635
 9417TIP3    H249667   5.932   1.739  13.490  0.3489 -0.6491 -0.0192
 9418TIP3   OH249668   6.699   4.431   3.089 -0.3936  0.2314 -0.0731
 9418TIP3    H149669   6.696   4.525   3.072  0.1976  0.9572  3.3964
 9418TIP3    H249670   6.607   4.405   3.099 -0.5414  0.5054 -0.7327
 9419TIP3   OH249671   3.159   1.507  14.768  0.0349  0.3588  0.3722
 9419TIP3    H149672   3.172   1.597  14.798  0.5196  0.1108  0.9098
 9419TIP3    H249673   3.239   1.461  14.794  1.1346  0.4746 -2.6056
 9420TIP3   OH249674   6.100   6.059  15.369 -0.4460 -0.7718  0.1002
 9420TIP3    H149675   6.151   6.016  15.437  0.0375 -1.4754 -0.7031
 9420TIP3    H249676   6.021   6.006  15.360  0.0982 -1.4337 -0.8105
 9421TIP3   OH249677   0.208   5.438  15.200 -0.0430 -0.0642 -0.3420
 9421TIP3    H149678   0.205   5.527  15.235  0.8738 -0.5637  1.0467
 9421TIP3    H249679   0.267   5.445  15.125 -2.3845  1.1054 -2.1452
 9422TIP3   OH249680   1.456   5.904  14.814 -0.3345 -0.4348  0.1252
 9422TIP3    H149681   1.443   5.841  14.743  0.6579  0.2820 -0.6914
 9422TIP3    H249682   1.508   5.856  14.879 -0.9181 -0.9660  0.2119
 9423TIP3   OH249683   5.205   0.695  10.381  0.1979  0.8655 -0.2851
 9423TIP3    H149684   5.234   0.764  10.322  0.1468  1.0861 -0.0515
 9423TIP3    H249685   5.233   0.724  10.468 -1.4312  1.4617  0.0555
 9424TIP3   OH249686   5.711   6.235   6.606 -0.4998  0.6910  0.3618
 9424TIP3    H149687   5.781   6.286   6.565 -0.3546  1.0594  1.0751
 9424TIP3    H249688   5.700   6.273   6.693 -0.5321 -0.3606  0.8269
 9425TIP3   OH249689   2.505   6.133  12.806  0.1959 -0.1824  0.1625
 9425TIP3    H149690   2.434   6.168  12.859 -0.1638  0.4275 -0.7097
 9425TIP3    H249691   2.548   6.069  12.862 -0.9809 -0.4800  0.7338
 9426TIP3   OH249692   1.134   5.180   4.401 -0.6082  0.1169 -0.6530
 9426TIP3    H149693   1.142   5.269   4.437 -1.6625  0.5936 -1.5431
 9426TIP3    H249694   1.043   5.175   4.372  0.0300 -0.4448 -2.6694
 9427TIP3   OH249695   3.078   5.079  13.508  0.3933 -0.3230 -0.1461
 9427TIP3    H149696   2.997   5.035  13.484  0.9589 -2.4011  1.6023
 9427TIP3    H249697   3.051   5.167  13.535 -1.4582 -1.3505  1.5143
 9428TIP3   OH249698   5.475   1.253  11.280  0.2928 -0.7325  0.3144
 9428TIP3    H149699   5.397   1.243  11.335 -0.8261  0.3398 -1.0529
 9428TIP3    H249700   5.457   1.201  11.202 -0.2550  1.6782 -1.2319
 9429TIP3   OH249701   6.254   2.812   4.321 -0.1114 -0.1733  0.3093
 9429TIP3    H149702   6.170   2.826   4.277  0.2468 -2.1466 -1.0985
 9429TIP3    H249703   6.317   2.862   4.268  0.1570 -1.7289 -0.9013
 9430TIP3   OH249704   5.021   0.937   4.398  0.3259  0.4027 -0.2332
 9430TIP3    H149705   4.943   0.882   4.401  0.6555 -0.0407  0.4317
 9430TIP3    H249706   5.092   0.879   4.427  0.7962  0.9739 -0.2361
 9431TIP3   OH249707   0.803   3.783  11.713 -0.0999 -0.0670  0.3373
 9431TIP3    H149708   0.769   3.813  11.797 -0.5315  0.7744 -0.1313
 9431TIP3    H249709   0.862   3.853  11.684 -0.7654  0.1400 -0.5524
 9432TIP3   OH249710   2.421   6.703   0.852 -0.4053 -0.1240 -0.5128
 9432TIP3    H149711   2.437   6.611   0.830  0.2641 -0.7635  2.3430
 9432TIP3    H249712   2.509   6.740   0.864 -0.6840  0.7675 -1.2374
 9433TIP3   OH249713   2.655   1.358   4.696  0.0505 -0.2281 -0.2749
 9433TIP3    H149714   2.673   1.410   4.775  0.3436 -0.4308 -0.2041
 9433TIP3    H249715   2.716   1.284   4.703  0.3485 -0.0395 -0.8905
 9434TIP3   OH249716   3.467   5.341  15.971  0.3892  0.0842 -0.2425
 9434TIP3    H149717   3.419   5.423  15.961 -0.4937 -0.5137 -0.9869
 9434TIP3    H249718   3.400   5.276  15.992  0.4725 -1.2409 -3.7139
 9435TIP3   OH249719   4.251   1.214  17.107 -0.4202  0.3127 -0.4583
 9435TIP3    H149720   4.311   1.286  17.123  1.2185 -1.4334  1.6262
 9435TIP3    H249721   4.277   1.179  17.022  1.5623 -0.4028  0.3991
 9436TIP3   OH249722   2.818   1.712  12.715 -0.2001  0.4013  0.2748
 9436TIP3    H149723   2.809   1.804  12.742  1.8647  0.0737  2.2492
 9436TIP3    H249724   2.782   1.663  12.789  2.0298 -0.4472  0.8093
 9437TIP3   OH249725   1.836   0.779   4.440 -0.1873 -0.0340  0.3397
 9437TIP3    H149726   1.776   0.754   4.510 -0.2765 -1.1925 -0.1311
 9437TIP3    H249727   1.923   0.759   4.474 -0.1920 -0.0465  0.3448
 9438TIP3   OH249728   3.215   6.661   0.065  0.0407  0.8470 -0.0241
 9438TIP3    H149729   3.124   6.671   0.093 -0.0522 -0.0315 -0.0032
 9438TIP3    H249730   3.250   6.751   0.064 -0.4660  1.0696  1.1730
 9439TIP3   OH249731   0.262   2.410   0.484 -0.3199  0.3979 -0.0337
 9439TIP3    H149732   0.187   2.394   0.541 -0.8659  2.5831 -0.0723
 9439TIP3    H249733   0.244   2.496   0.445  2.8663  1.6239  1.0279
 9440TIP3   OH249734   1.293   3.028   1.597 -0.5169 -0.6157 -0.7387
 9440TIP3    H149735   1.198   3.022   1.598 -0.4468 -2.7343 -3.0553
 9440TIP3    H249736   1.316   3.035   1.504  1.5697  0.4692 -0.1738
 9441TIP3   OH249737   4.054   2.209  11.222  0.3962 -0.3426  0.3292
 9441TIP3    H149738   4.107   2.152  11.165 -2.7728 -2.1501 -0.9731
 9441TIP3    H249739   4.037   2.287  11.168 -0.7382 -1.0938 -0.4480
 9442TIP3   OH249740   3.194   4.070  14.198 -0.0490  0.0174  0.9381
 9442TIP3    H149741   3.163   4.114  14.119 -0.3807 -1.3556  0.2863
 9442TIP3    H249742   3.266   4.014  14.168  0.6398  0.4076  1.8248
 9443TIP3   OH249743   0.175   4.820   0.833 -0.3594 -0.0526  0.2809
 9443TIP3    H149744   0.191   4.727   0.822 -1.5416 -0.2286 -0.0977
 9443TIP3    H249745   0.262   4.861   0.830  0.0434 -0.9740 -1.2421
 9444TIP3   OH249746   2.502   0.101   2.830  0.2981  0.0142 -0.5284
 9444TIP3    H149747   2.533   0.189   2.849  0.4082  0.1091 -1.1490
 9444TIP3    H249748   2.522   0.087   2.738 -1.0017 -0.1350 -0.7971
 9445TIP3   OH249749   4.411   4.294  11.233 -0.1214  0.6078 -0.3989
 9445TIP3    H149750   4.342   4.238  11.198 -0.7843 -0.5392  2.6036
 9445TIP3    H249751   4.389   4.305  11.326  2.8288  1.5761  0.2482
 9446TIP3   OH249752   6.738   6.504  15.961  0.3952 -0.0111 -0.2452
 9446TIP3    H149753   6.751   6.597  15.940  0.9323 -0.1009 -0.3096
 9446TIP3    H249754   6.717   6.463  15.877  2.1196 -0.2942 -0.5430
 9447TIP3   OH249755   5.275   3.721  13.066 -0.0635  0.2567 -0.3577
 9447TIP3    H149756   5.180   3.722  13.076 -0.1892 -1.7795 -1.2020
 9447TIP3    H249757   5.290   3.731  12.972  0.5114 -0.6572 -0.3686
 9448TIP3   OH249758   3.569   1.309  12.103  0.0265 -0.2021  0.3933
 9448TIP3    H149759   3.613   1.391  12.127  0.4480 -0.5454  0.7868
 9448TIP3    H249760   3.490   1.308  12.156 -0.4958  0.4399 -0.3512
 9449TIP3   OH249761   6.325   4.407  12.487  0.1619 -0.6378  0.1908
 9449TIP3    H149762   6.268   4.480  12.460 -0.3096 -0.9788  0.2655
 9449TIP3    H249763   6.407   4.450  12.511 -0.0108 -0.1539 -0.0520
 9450TIP3   OH249764   0.304   6.566   3.259 -0.3042  0.0554  0.5221
 9450TIP3    H149765   0.306   6.487   3.313  0.2391  0.3728  0.9776
 9450TIP3    H249766   0.328   6.636   3.319 -2.8151  0.8757  0.6241
 9451TIP3   OH249767   2.487   2.919  11.383 -0.1154 -0.4419  0.3317
 9451TIP3    H149768   2.508   2.902  11.292 -0.4868  1.0740 -0.0532
 9451TIP3    H249769   2.561   2.885  11.432  1.0784  0.6471 -0.6847
 9452TIP3   OH249770   0.547   3.527  16.459 -0.0613  0.0770 -0.0519
 9452TIP3    H149771   0.454   3.550  16.453 -0.4137 -1.3446 -0.3636
 9452TIP3    H249772   0.578   3.571  16.538 -1.1829 -0.0097  0.4484
 9453TIP3   OH249773   0.122   4.612   4.637 -0.5411  0.2279  0.1250
 9453TIP3    H149774   0.150   4.632   4.547 -0.1296  1.6342  0.5508
 9453TIP3    H249775   0.033   4.647   4.642 -0.5417  0.2033  0.2870
 9454TIP3   OH249776   3.537   2.517   5.282  0.0601  0.0065 -0.1679
 9454TIP3    H149777   3.560   2.600   5.240 -0.1596  0.4438  0.5793
 9454TIP3    H249778   3.612   2.496   5.338  1.2988 -1.6413 -2.3160
 9455TIP3   OH249779   2.174   3.216  15.868 -0.3623 -0.4138  0.1039
 9455TIP3    H149780   2.136   3.283  15.924 -1.3721 -0.2144 -0.8161
 9455TIP3    H249781   2.164   3.135  15.918 -0.5441 -0.1223  0.5454
 9456TIP3   OH249782   2.108   4.547   2.588  0.3185  0.1710  0.3861
 9456TIP3    H149783   2.081   4.585   2.672  1.2626  0.6458  0.4770
 9456TIP3    H249784   2.201   4.567   2.581  0.2727  0.0242 -0.7242
 9457TIP3   OH249785   2.644   1.627   2.483 -0.0842 -0.1538 -0.1375
 9457TIP3    H149786   2.713   1.566   2.456 -1.4525 -1.7616 -0.1007
 9457TIP3    H249787   2.581   1.572   2.531 -0.1947  1.7112  1.9466
 9458TIP3   OH249788   1.627   0.016  12.945 -0.4974  0.4625  0.1603
 9458TIP3    H149789   1.671  -0.022  12.869  0.2449  0.2146  0.7045
 9458TIP3    H249790   1.696   0.064  12.992 -0.8748  0.3551  0.8421
 9459TIP3   OH249791   6.173   1.375   6.126  0.0854  0.1029  0.8844
 9459TIP3    H149792   6.215   1.337   6.203  1.8016  1.4178  0.6090
 9459TIP3    H249793   6.196   1.467   6.129 -2.5003  0.8090  0.5093
 9460TIP3   OH249794   4.847   0.433  13.650 -0.2508  0.2513 -0.5266
 9460TIP3    H149795   4.929   0.482  13.642 -0.1339  0.0815 -0.3541
 9460TIP3    H249796   4.781   0.500  13.667 -0.1168  0.3680 -0.4636
 9461TIP3   OH249797   3.818   6.503  11.466 -0.0273 -0.5018  0.2086
 9461TIP3    H149798   3.910   6.514  11.490  0.4747  1.1501 -2.3229
 9461TIP3    H249799   3.820   6.468  11.377 -1.8453  1.8387 -0.7935
 9462TIP3   OH249800   6.362   2.452  14.425  0.1627 -0.1337 -0.2935
 9462TIP3    H149801   6.309   2.475  14.501 -1.2192 -3.2847 -0.2293
 9462TIP3    H249802   6.300   2.452  14.352  0.4684 -1.9305 -0.5624
 9463TIP3   OH249803   5.142   0.599   0.395  0.1768  0.0240 -0.1186
 9463TIP3    H149804   5.109   0.635   0.313  1.3094  1.1516 -0.0808
 9463TIP3    H249805   5.237   0.596   0.385  0.2086 -1.7942  0.3632
 9464TIP3   OH249806   4.517   5.868   1.197  0.1414 -0.4502 -0.0300
 9464TIP3    H149807   4.565   5.786   1.201 -0.8430 -0.9540  3.5747
 9464TIP3    H249808   4.583   5.936   1.204  0.6932 -1.0464  0.6055
 9465TIP3   OH249809   1.943   5.301  12.597  0.2025  0.0792 -0.2108
 9465TIP3    H149810   1.971   5.210  12.597  1.1550  0.3598  0.0495
 9465TIP3    H249811   1.859   5.301  12.642  0.5921 -0.5539  0.5371
 9466TIP3   OH249812   6.394   5.813  11.153 -0.1235  0.5063 -0.2812
 9466TIP3    H149813   6.333   5.749  11.189  0.9165  0.1374  0.8415
 9466TIP3    H249814   6.461   5.760  11.109  0.8194  0.7943  0.7774
 9467TIP3   OH249815   1.034   6.275  15.230 -0.3273  0.2746 -0.1346
 9467TIP3    H149816   1.075   6.273  15.144  0.2937 -0.7585  0.1742
 9467TIP3    H249817   1.039   6.184  15.261  0.3544  0.8238  1.4045
 9468TIP3   OH249818   0.287   1.811  11.707  0.1654 -0.0989 -0.0449
 9468TIP3    H149819   0.317   1.821  11.616  0.2684 -2.9667 -0.3626
 9468TIP3    H249820   0.368   1.800  11.757  0.0114 -0.1873  0.1816
 9469TIP3   OH249821   5.844   3.863  14.770 -0.4883 -0.2980  0.9219
 9469TIP3    H149822   5.773   3.926  14.785 -0.1894  0.5419 -0.9506
 9469TIP3    H249823   5.875   3.884  14.682  0.2424 -2.4769  0.6418
 9470TIP3   OH249824   1.154   5.502  16.307  0.5936  0.1765 -0.6372
 9470TIP3    H149825   1.178   5.582  16.353  1.0900  0.9391 -2.1830
 9470TIP3    H249826   1.221   5.438  16.334 -0.3606 -0.0310  1.3511
 9471TIP3   OH249827   2.335   2.083   3.856  0.4712 -0.4402  0.5245
 9471TIP3    H149828   2.244   2.107   3.840  0.2020 -0.9177  1.2850
 9471TIP3    H249829   2.369   2.057   3.771  0.3347  1.1912 -0.0379
 9472TIP3   OH249830   1.323   0.849   5.033 -0.1400  0.0368  0.3671
 9472TIP3    H149831   1.407   0.892   5.018  0.1969 -1.6721 -3.1529
 9472TIP3    H249832   1.264   0.890   4.971 -1.2938 -0.4988  1.1047
 9473TIP3   OH249833   2.918   6.521  15.944 -0.0166 -0.1113 -0.0547
 9473TIP3    H149834   2.858   6.579  15.897 -0.5783 -1.5213 -1.1042
 9473TIP3    H249835   2.992   6.511  15.884  0.1071 -0.4382  0.1565
 9474TIP3   OH249836   5.086   2.956   1.040 -0.3576 -0.2469 -0.0438
 9474TIP3    H149837   5.038   2.886   0.996 -1.4077  0.4917 -0.0854
 9474TIP3    H249838   5.122   2.914   1.119 -2.2588 -0.4878  0.7420
 9475TIP3   OH249839   3.824   2.620  11.468  0.8403 -0.0528 -0.0019
 9475TIP3    H149840   3.731   2.613  11.490  0.3001 -1.1437 -2.4422
 9475TIP3    H249841   3.842   2.714  11.470 -0.4419  0.2060  0.0746
 9476TIP3   OH249842   2.596   1.886  15.355 -0.1345  0.4642  0.2733
 9476TIP3    H149843   2.603   1.913  15.264 -0.0073  0.4962  0.2926
 9476TIP3    H249844   2.503   1.864  15.366 -0.0265 -0.1723 -0.0410
 9477TIP3   OH249845   0.910   5.913  12.232  0.3617  0.1195 -0.3272
 9477TIP3    H149846   0.971   5.937  12.162  0.2519 -1.6122 -1.0462
 9477TIP3    H249847   0.956   5.845  12.281 -0.5915 -0.5057 -0.2882
 9478TIP3   OH249848   3.365   5.197  11.334 -0.4532 -0.1909  0.6935
 9478TIP3    H149849   3.323   5.116  11.306  0.2466 -1.0932  2.1948
 9478TIP3    H249850   3.418   5.172  11.410  0.6720  1.4476  0.4809
 9479TIP3   OH249851   1.982   1.639   3.209 -0.1322  0.1911  0.0024
 9479TIP3    H149852   1.959   1.548   3.227  1.6769 -0.3241 -0.1461
 9479TIP3    H249853   2.047   1.661   3.275 -0.9316  1.5570  0.3545
 9480TIP3   OH249854   3.788   5.526   1.752  0.1176 -0.8074 -0.6880
 9480TIP3    H149855   3.745   5.577   1.820  3.0436  0.4973  0.2766
 9480TIP3    H249856   3.747   5.556   1.671 -1.4328 -0.3218  0.2543
 9481TIP3   OH249857   4.607   3.769   0.711 -0.3451  0.2961  0.3577
 9481TIP3    H149858   4.591   3.692   0.766 -0.6641 -0.1393 -0.3382
 9481TIP3    H249859   4.603   3.843   0.772  3.6140 -0.4609  1.7189
 9482TIP3   OH249860   2.109   6.043  13.041 -0.1789  0.5851 -0.3511
 9482TIP3    H149861   2.148   6.118  13.086  0.9524 -0.0865 -0.1960
 9482TIP3    H249862   2.143   6.048  12.952  1.8401 -1.0985  0.2966
 9483TIP3   OH249863   3.175   4.240   5.726 -0.2267 -0.4821 -0.3578
 9483TIP3    H149864   3.111   4.170   5.738 -0.6401 -0.0143  0.2188
 9483TIP3    H249865   3.259   4.195   5.718 -0.7099 -1.1369 -1.7831
 9484TIP3   OH249866   4.866   4.892   4.985  0.6562  0.1698  0.5525
 9484TIP3    H149867   4.952   4.872   4.949  0.6695  2.5429 -0.8753
 9484TIP3    H249868   4.822   4.942   4.916 -1.1500  0.6333  1.9842
 9485TIP3   OH249869   6.721   1.002  14.039 -0.0471  0.7349  1.0890
 9485TIP3    H149870   6.787   1.055  14.084  1.5856  0.1376 -0.5306
 9485TIP3    H249871   6.766   0.920  14.019 -1.5986 -0.0590  0.8186
 9486TIP3   OH249872   6.043   5.048  16.485 -0.8504  0.2204  0.1669
 9486TIP3    H149873   6.138   5.040  16.492 -0.8897  0.3604  0.9083
 9486TIP3    H249874   6.026   5.053  16.391  0.0602  2.6126  0.1022
 9487TIP3   OH249875   5.857   4.390  16.981 -0.3685 -0.2685 -0.6459
 9487TIP3    H149876   5.857   4.406  17.076 -2.1921  2.2235 -1.0380
 9487TIP3    H249877   5.773   4.422  16.951 -0.4086 -2.3836 -2.9470
 9488TIP3   OH249878   2.734   2.438  15.331 -0.2386  0.1608 -0.3253
 9488TIP3    H149879   2.693   2.507  15.383  2.0576  1.0312  0.3622
 9488TIP3    H249880   2.660   2.391  15.292 -1.8633  2.7477 -0.5112
 9489TIP3   OH249881   0.859   5.006   2.446  0.6767  0.1345  0.1969
 9489TIP3    H149882   0.848   5.016   2.352 -0.6268  2.1478  0.5293
 9489TIP3    H249883   0.771   5.020   2.483  1.1630 -0.6122  1.7133
 9490TIP3   OH249884   2.820   1.696   1.533  0.1348 -0.0144  0.2702
 9490TIP3    H149885   2.899   1.706   1.480  0.3329  0.0390  0.5757
 9490TIP3    H249886   2.761   1.766   1.504  0.6863  0.7243  0.9192
 9491TIP3   OH249887   0.551   1.527   1.317  0.4993  0.0648  0.4261
 9491TIP3    H149888   0.567   1.501   1.226 -1.0840 -2.8283  0.9074
 9491TIP3    H249889   0.629   1.576   1.342  1.8120 -0.7646 -1.8958
 9492TIP3   OH249890   0.648   1.632   4.015  0.8676 -0.0851 -0.0551
 9492TIP3    H149891   0.611   1.638   4.102  0.9877 -0.4814  0.0250
 9492TIP3    H249892   0.641   1.540   3.992 -2.2033  0.5416 -1.8081
 9493TIP3   OH249893   2.108   5.921  10.753 -0.1421  0.6102 -0.1311
 9493TIP3    H149894   2.110   5.830  10.723 -1.2610  0.2172  0.9479
 9493TIP3    H249895   2.126   5.973  10.674 -0.8350 -0.4931 -1.0329
 9494TIP3   OH249896   2.323   5.231   4.035 -1.0843  0.3363 -0.3791
 9494TIP3    H149897   2.401   5.211   4.087  0.1189  1.5940 -1.6505
 9494TIP3    H249898   2.264   5.158   4.052 -0.1959  0.0629  1.7053
 9495TIP3   OH249899   6.683   4.598   1.004 -0.1930 -0.2204  0.4179
 9495TIP3    H149900   6.684   4.665   0.936  3.4481 -0.3482  0.2614
 9495TIP3    H249901   6.702   4.517   0.958 -1.9527 -0.9895  1.0020
 9496TIP3   OH249902   4.694   1.810   6.394 -0.3292 -0.1261  0.4581
 9496TIP3    H149903   4.615   1.764   6.420 -0.5936 -0.1139 -0.3027
 9496TIP3    H249904   4.675   1.842   6.306  0.9652 -1.2017 -0.2473
 9497TIP3   OH249905   3.422   2.562   0.321  0.0025  0.1411 -0.8676
 9497TIP3    H149906   3.341   2.576   0.271  0.2171  1.2574 -0.9309
 9497TIP3    H249907   3.404   2.604   0.406  0.5497  0.4729 -0.9176
 9498TIP3   OH249908   3.507   4.881  16.993  0.6343  0.0268 -0.5816
 9498TIP3    H149909   3.593   4.888  17.035 -0.0484 -1.4285  1.0859
 9498TIP3    H249910   3.481   4.971  16.976  2.3433  0.4924 -0.8210
 9499TIP3   OH249911   6.549   2.166   0.752 -0.1301 -0.3294  0.3790
 9499TIP3    H149912   6.644   2.160   0.740 -0.4080  1.1938 -3.0369
 9499TIP3    H249913   6.536   2.248   0.799  0.2579 -1.0240  1.7452
 9500TIP3   OH249914   4.952   1.418   0.476  0.0715  0.4584 -0.4904
 9500TIP3    H149915   4.895   1.344   0.455 -1.5686  2.2292 -2.4728
 9500TIP3    H249916   4.907   1.464   0.547  0.4543  0.2656 -0.1219
 9501TIP3   OH249917   1.019   4.731   5.516 -0.6158 -0.5537  0.1665
 9501TIP3    H149918   1.026   4.646   5.559  0.5762 -0.4631  0.1841
 9501TIP3    H249919   0.942   4.724   5.461 -0.2093 -1.8450 -0.2542
 9502TIP3   OH249920   3.372   2.880   5.876  0.1152 -0.3835  0.0973
 9502TIP3    H149921   3.388   2.811   5.940  2.0206  0.3687  0.4669
 9502TIP3    H249922   3.423   2.853   5.799 -1.2505 -0.7067 -0.7132
 9503TIP3   OH249923   2.398   5.505   0.158 -0.4426 -0.0927 -0.3820
 9503TIP3    H149924   2.312   5.462   0.163 -0.9556  0.9708 -0.0602
 9503TIP3    H249925   2.453   5.442   0.111 -0.7879 -1.7683  1.3693
 9504TIP3   OH249926   0.647   1.811   2.486  0.4046 -0.8639  0.0993
 9504TIP3    H149927   0.581   1.754   2.448  0.0052 -0.8925  0.8318
 9504TIP3    H249928   0.600   1.864   2.550  0.7219  0.4747 -0.7584
 9505TIP3   OH249929   4.147   2.694   0.520  0.5579  0.1532 -0.4841
 9505TIP3    H149930   4.142   2.618   0.578 -2.5100 -0.0980 -0.9855
 9505TIP3    H249931   4.088   2.758   0.559  0.9376  1.1920 -1.5913
 9506TIP3   OH249932   2.447   5.085   0.043 -0.0114  0.5286  0.4534
 9506TIP3    H149933   2.423   5.142  -0.030  1.0718  0.9164  0.3868
 9506TIP3    H249934   2.513   5.135   0.092  1.0646 -0.7139  0.3077
 9507TIP3   OH249935   2.634   4.267  14.638 -0.5829  0.6596 -0.2608
 9507TIP3    H149936   2.717   4.304  14.608  0.5468 -1.2070  0.4662
 9507TIP3    H249937   2.638   4.273  14.733 -0.9351 -0.1613 -0.1896
 9508TIP3   OH249938   6.369   1.434  12.188  0.4445 -0.1885 -0.0072
 9508TIP3    H149939   6.425   1.508  12.165 -1.0738  0.8847 -0.4114
 9508TIP3    H249940   6.428   1.366  12.218  2.2102 -0.0833 -3.0280
 9509TIP3   OH249941   1.778   4.196   0.573  0.3390 -0.1783  0.2486
 9509TIP3    H149942   1.738   4.142   0.641  1.3484 -0.3409  0.7243
 9509TIP3    H249943   1.857   4.148   0.547  0.2106  0.1148 -0.7035
 9510TIP3   OH249944   3.806   5.680  14.172  0.1120  0.3953 -0.5952
 9510TIP3    H149945   3.786   5.641  14.087 -0.6817 -1.3013  0.3449
 9510TIP3    H249946   3.851   5.610  14.220  0.0645  1.1605  0.5688
 9511TIP3   OH249947   6.728   3.005  15.350 -0.5589 -0.1264  0.1136
 9511TIP3    H149948   6.794   2.956  15.300 -0.7793 -0.2081 -0.1035
 9511TIP3    H249949   6.763   3.010  15.439  0.0124  0.3436 -0.1343
 9512TIP3   OH249950   1.485   3.973   2.588 -0.5184  0.2622 -0.3002
 9512TIP3    H149951   1.439   3.957   2.505  1.0655 -1.1738 -0.9325
 9512TIP3    H249952   1.483   3.889   2.633  1.1881  0.2512 -0.2062
 9513TIP3   OH249953   1.612   5.146   3.243 -0.1065 -0.6207  0.0173
 9513TIP3    H149954   1.687   5.201   3.263 -1.0372  1.1089 -1.0516
 9513TIP3    H249955   1.643   5.057   3.254  2.4604  0.0288 -1.5854
 9514TIP3   OH249956   3.095   2.925   1.100  0.2222 -0.2804  0.0638
 9514TIP3    H149957   3.099   2.979   1.020 -0.9029 -0.3182 -0.0262
 9514TIP3    H249958   3.064   2.986   1.167  1.1785 -0.2489  0.4740
 9515TIP3   OH249959   4.473   3.133  14.140  0.1007 -0.0366 -0.3187
 9515TIP3    H149960   4.393   3.182  14.156 -1.3553 -1.7417 -2.1392
 9515TIP3    H249961   4.539   3.174  14.197 -1.7486  2.1550  0.2814
 9516TIP3   OH249962   4.899   4.336  11.743 -0.0326  0.5132 -0.1791
 9516TIP3    H149963   4.836   4.265  11.754  0.0377  0.4580 -0.1373
 9516TIP3    H249964   4.847   4.416  11.753 -0.0350  0.4640  0.1861
 9517TIP3   OH249965   1.770   0.216  12.433  0.4712  0.1185  0.0944
 9517TIP3    H149966   1.755   0.183  12.345  0.9697 -2.3115  0.8670
 9517TIP3    H249967   1.683   0.222  12.472  0.4049 -1.0757  0.1730
 9518TIP3   OH249968   0.665   5.852  17.181  0.0239 -0.1977 -0.3796
 9518TIP3    H149969   0.589   5.904  17.209 -0.2827 -1.4679  1.2776
 9518TIP3    H249970   0.635   5.806  17.103 -0.5830  0.0502 -0.2972
 9519TIP3   OH249971   5.962   5.078  16.218  0.1165  0.0397 -0.5620
 9519TIP3    H149972   5.984   5.048  16.130  0.5183  1.4023 -0.9479
 9519TIP3    H249973   5.981   5.172  16.216 -0.0898  0.1187  0.9097
 9520TIP3   OH249974   5.073   4.285  16.751 -0.5226 -0.1983 -0.2125
 9520TIP3    H149975   5.043   4.219  16.813 -0.1879 -0.7111 -0.5892
 9520TIP3    H249976   5.025   4.365  16.775  0.5449 -0.0385  1.5382
 9521TIP3   OH249977   5.716   3.494   3.121  0.5539  0.5278 -0.4283
 9521TIP3    H149978   5.703   3.480   3.027 -0.7960  0.6418 -0.2697
 9521TIP3    H249979   5.655   3.565   3.144 -0.4653 -0.7327  0.8782
 9522TIP3   OH249980   3.388   1.635  12.700  0.0666  0.1453 -0.3725
 9522TIP3    H149981   3.390   1.551  12.746  1.0638  0.0676 -0.5599
 9522TIP3    H249982   3.416   1.615  12.611 -1.3415  0.3925 -0.8861
 9523TIP3   OH249983   1.091   1.062   5.401  0.3925  0.2606 -0.0872
 9523TIP3    H149984   1.042   1.126   5.452  1.4679 -0.8242  2.3616
 9523TIP3    H249985   1.028   0.992   5.383  0.1272  0.4447  0.1260
 9524TIP3   OH249986   5.797   3.207  16.282 -0.0240 -0.0072  0.6394
 9524TIP3    H149987   5.719   3.221  16.336  0.1180  2.3110  0.2913
 9524TIP3    H249988   5.764   3.165  16.202 -0.8112  0.2058  0.8503
 9525TIP3   OH249989   1.019   1.455   1.089 -0.7462 -0.0366 -0.0136
 9525TIP3    H149990   0.978   1.420   1.010 -1.3462 -1.0670  0.7407
 9525TIP3    H249991   0.962   1.425   1.160  0.8883 -0.7823  0.9805
 9526TIP3   OH249992   1.217   2.117   6.114  0.9749 -0.3476  0.1263
 9526TIP3    H149993   1.125   2.141   6.116  0.8886 -0.5887 -0.8078
 9526TIP3    H249994   1.237   2.092   6.205 -0.9767 -4.3303 -0.3951
 9527TIP3   OH249995   3.775   5.146   3.116 -0.4080 -0.5217  0.6610
 9527TIP3    H149996   3.727   5.153   3.199 -1.1994 -2.9774  0.4437
 9527TIP3    H249997   3.863   5.118   3.142 -0.0231  0.7891  0.8105
 9528TIP3   OH249998   1.106   5.706  16.601  0.3648  0.1651  0.1701
 9528TIP3    H149999   1.181   5.704  16.542  0.2401  0.5774 -0.0008
 9528TIP3    H250000   1.130   5.767  16.670  0.2808  0.1191  0.2415
 9529TIP3   OH250001   5.598   0.730  11.856  0.0425 -0.5036  0.4715
 9529TIP3    H150002   5.562   0.818  11.870  0.2829 -0.3467  0.1234
 9529TIP3    H250003   5.523   0.672  11.861 -0.4113 -0.0895 -1.1511
 9530TIP3   OH250004   3.827   1.527   0.757 -0.5713  0.0293  0.0133
 9530TIP3    H150005   3.740   1.538   0.795  0.7131  0.5065  2.9039
 9530TIP3    H250006   3.868   1.613   0.765 -0.6817  0.5106 -3.6900
 9531TIP3   OH250007   0.942   0.604   1.996 -0.2459  0.0523  0.5407
 9531TIP3    H150008   0.981   0.554   2.067  0.5460  2.0432  1.5466
 9531TIP3    H250009   0.870   0.652   2.037 -0.8428 -0.0671 -0.3552
 9532TIP3   OH250010   2.730   1.508  11.899 -0.2259 -0.1113  0.1197
 9532TIP3    H150011   2.634   1.500  11.902 -0.1561 -0.9600  0.1523
 9532TIP3    H250012   2.750   1.522  11.807 -0.6188  3.2580  0.4823
 9533TIP3   OH250013   4.230   4.000  14.961 -0.3751 -0.1590  0.2261
 9533TIP3    H150014   4.322   3.990  14.937 -0.1380  1.2491  0.5191
 9533TIP3    H250015   4.230   4.060  15.035 -1.5007 -0.4485  0.4816
 9534TIP3   OH250016   1.509   5.685  12.671 -0.1053 -0.2110 -0.4639
 9534TIP3    H150017   1.512   5.761  12.614 -0.7132  1.6689  1.9541
 9534TIP3    H250018   1.599   5.677  12.705 -0.6178  0.9521  1.2058
 9535TIP3   OH250019   3.738   5.239  11.241  0.0810 -0.0231 -0.1458
 9535TIP3    H150020   3.658   5.273  11.201 -0.8227 -2.5053 -0.5227
 9535TIP3    H250021   3.749   5.152  11.202  1.4648 -0.8105  1.9222
 9536TIP3   OH250022   5.005   6.322   1.379 -0.6121 -0.3270  0.2208
 9536TIP3    H150023   5.100   6.337   1.376 -0.1279 -2.7632  2.0478
 9536TIP3    H250024   4.990   6.253   1.315 -0.9351 -1.0311  1.0593
 9537TIP3   OH250025   5.557   1.033   0.355 -0.5720 -0.1710 -0.0085
 9537TIP3    H150026   5.652   1.041   0.368 -0.6615 -0.5409  0.9477
 9537TIP3    H250027   5.530   0.970   0.422 -1.3455 -0.8273 -0.9280
 9538TIP3   OH250028   1.475   0.160   6.194  0.1872 -0.4341 -0.0147
 9538TIP3    H150029   1.544   0.129   6.252 -0.0026 -0.3925  0.2343
 9538TIP3    H250030   1.505   0.136   6.106  0.0788 -1.2647  0.1650
 9539TIP3   OH250031   5.699   2.094  13.309  0.3726  0.0010 -0.4489
 9539TIP3    H150032   5.723   2.170  13.256  0.1428  0.9217  0.7391
 9539TIP3    H250033   5.720   2.120  13.399 -1.9170 -0.4120  0.2365
 9540TIP3   OH250034   1.165   4.368   0.454  0.6104  0.4537  0.4203
 9540TIP3    H150035   1.192   4.451   0.413 -0.1315  1.1950  1.4185
 9540TIP3    H250036   1.239   4.344   0.510  1.1988 -0.0320 -0.5452
 9541TIP3   OH250037   0.384   1.816  13.009 -0.0576 -0.3993 -0.1352
 9541TIP3    H150038   0.347   1.754  13.071 -0.1857  0.7391  0.9660
 9541TIP3    H250039   0.466   1.777  12.981 -0.7382 -1.6362 -0.4367
 9542TIP3   OH250040   3.187   6.421   5.194  0.4588  0.3393  0.0628
 9542TIP3    H150041   3.165   6.513   5.205 -0.0927  0.1592  0.4684
 9542TIP3    H250042   3.242   6.400   5.269 -0.1447  0.1093  0.4432
 9543TIP3   OH250043   2.062   0.362  13.581 -0.2916 -0.2878 -0.4630
 9543TIP3    H150044   1.971   0.338  13.600 -0.7127  0.9989 -0.7984
 9543TIP3    H250045   2.066   0.456  13.596  0.6497 -0.1072 -1.7480
 9544TIP3   OH250046   1.935   3.267   4.416  0.2242 -0.3479  0.2649
 9544TIP3    H150047   2.019   3.226   4.437  2.6226  4.3398  0.4847
 9544TIP3    H250048   1.896   3.286   4.502  0.3789  0.2415  0.2041
 9545TIP3   OH250049   0.325   1.285   2.624  0.0643  0.0172  0.0832
 9545TIP3    H150050   0.328   1.200   2.579 -2.1791 -0.4686  0.7866
 9545TIP3    H250051   0.402   1.284   2.682  0.0431 -1.5470  0.1056
 9546TIP3   OH250052   3.830   3.157  15.907  0.1842  0.8102  0.0187
 9546TIP3    H150053   3.826   3.217  15.982 -0.1242  0.6285  0.1490
 9546TIP3    H250054   3.881   3.204  15.842 -1.5244  1.9521 -0.5382
 9547TIP3   OH250055   0.690   0.456  14.693  0.1969  0.7176 -0.3521
 9547TIP3    H150056   0.732   0.386  14.744  0.4953  0.6444 -0.7005
 9547TIP3    H250057   0.725   0.446  14.605 -2.3152 -0.8130 -1.2137
 9548TIP3   OH250058   1.570   0.416   1.056  0.1268  0.0148 -0.3297
 9548TIP3    H150059   1.516   0.340   1.036  0.1144  0.1018 -0.6355
 9548TIP3    H250060   1.582   0.460   0.971  0.2065  0.3031 -0.1710
 9549TIP3   OH250061   2.092   2.296  11.607 -0.0746  0.1611 -0.2144
 9549TIP3    H150062   2.061   2.385  11.596 -0.7356  0.0390  0.6307
 9549TIP3    H250063   2.187   2.303  11.607 -0.1254  0.8088 -0.5872
 9550TIP3   OH250064   1.630   3.477  11.648  0.1018 -0.1580 -0.9143
 9550TIP3    H150065   1.558   3.541  11.652 -1.6533 -1.9949 -2.1381
 9550TIP3    H250066   1.643   3.450  11.739 -1.4798 -0.5954 -0.8137
 9551TIP3   OH250067   5.941   2.647   3.672  0.5027  0.4653 -0.4461
 9551TIP3    H150068   5.964   2.559   3.643  1.5315  0.6815 -0.3201
 9551TIP3    H250069   5.853   2.639   3.706  0.4034 -0.4156 -0.8912
 9552TIP3   OH250070   3.864   3.199   3.223 -0.7121 -0.3961 -0.0543
 9552TIP3    H150071   3.796   3.207   3.157  0.2171  1.1854 -0.8261
 9552TIP3    H250072   3.833   3.252   3.296  0.0522  0.9720 -0.7136
 9553TIP3   OH250073   0.059   1.383   2.673  0.1159 -0.2132 -0.3482
 9553TIP3    H150074   0.140   1.335   2.691  0.4502 -0.3803 -2.2103
 9553TIP3    H250075  -0.006   1.315   2.655 -0.0265 -0.0416 -0.4954
 9554TIP3   OH250076   0.385   2.491  12.138  0.4974 -0.2488 -0.0879
 9554TIP3    H150077   0.302   2.445  12.126  0.9901 -0.8478 -1.3148
 9554TIP3    H250078   0.373   2.575  12.095  0.9744 -0.8821 -1.4973
 9555TIP3   OH250079   1.313   0.943   6.340  0.6059  0.0871 -0.3878
 9555TIP3    H150080   1.247   0.890   6.385  0.1398  1.7304  0.8973
 9555TIP3    H250081   1.381   0.880   6.314  0.3062 -1.0684  1.5548
 9556TIP3   OH250082   2.382   4.072   1.305  0.4979  0.0213  0.3916
 9556TIP3    H150083   2.446   4.016   1.261 -0.8770 -0.5778 -0.8702
 9556TIP3    H250084   2.399   4.159   1.270  0.9016 -0.0558  0.3860
 9557TIP3   OH250085   2.295   0.143   0.781  0.2462 -0.0802 -0.0359
 9557TIP3    H150086   2.334   0.056   0.795 -0.6286 -0.6833 -1.2907
 9557TIP3    H250087   2.240   0.157   0.858  1.0222 -0.2806  0.5627
 9558TIP3   OH250088   0.726   3.828  12.020 -0.3659 -0.5237  0.7166
 9558TIP3    H150089   0.690   3.750  12.062 -1.2457 -1.0462 -0.9270
 9558TIP3    H250090   0.771   3.875  12.090 -2.0146 -1.2061  2.2904
 9559TIP3   OH250091   5.136   3.401  15.060 -0.3029  0.5726 -0.1229
 9559TIP3    H150092   5.212   3.423  15.114  0.0776  0.7833 -0.7345
 9559TIP3    H250093   5.063   3.445  15.102  0.0283  0.9209  0.0934
 9560TIP3   OH250094   4.798   5.204   4.219 -0.1563 -0.0176 -0.0693
 9560TIP3    H150095   4.886   5.222   4.253 -0.7063  0.3194  1.2103
 9560TIP3    H250096   4.779   5.277   4.161 -0.1907  0.7143  0.8500
 9561TIP3   OH250097   2.375   5.491   4.115  0.1091 -0.0968  0.4485
 9561TIP3    H150098   2.332   5.518   4.195  0.1299 -0.3601  0.5492
 9561TIP3    H250099   2.362   5.396   4.111 -2.5183  0.2834 -1.4025
 9562TIP3   OH250100   2.888   1.963  11.181 -0.0758  0.1543 -0.2656
 9562TIP3    H150101   2.903   1.906  11.106 -2.3427  1.7969 -2.0306
 9562TIP3    H250102   2.793   1.971  11.187  0.1180  1.2899  1.8423
 9563TIP3   OH250103   2.009   2.861   3.598 -0.0674 -0.2494 -0.3613
 9563TIP3    H150104   2.053   2.886   3.678 -1.6566 -1.3309  0.8809
 9563TIP3    H250105   2.039   2.772   3.580 -1.3110 -0.7945  0.2020
 9564TIP3   OH250106   0.993   5.743  16.275 -0.4245  0.4713 -0.7337
 9564TIP3    H150107   1.018   5.651  16.278 -1.2913  0.2556  1.7428
 9564TIP3    H250108   0.899   5.742  16.256 -0.3245  0.8699 -1.2601
 9565TIP3   OH250109   0.030   2.847  16.214  0.0917  0.3113  0.0090
 9565TIP3    H150110   0.037   2.817  16.123 -0.4333  0.7892 -0.1879
 9565TIP3    H250111  -0.043   2.797  16.250 -1.0741  1.6473 -0.4459
 9566TIP3   OH250112   0.665   3.402   2.163 -0.6091 -0.4444 -0.1287
 9566TIP3    H150113   0.574   3.427   2.151 -0.7264 -0.1893  1.2248
 9566TIP3    H250114   0.707   3.479   2.200  0.2811 -0.3786 -1.2687
 9567TIP3   OH250115   1.198   0.270  12.251 -0.2063 -0.0291 -0.4006
 9567TIP3    H150116   1.260   0.259  12.178  0.2782 -1.1251  0.1659
 9567TIP3    H250117   1.253   0.295  12.325 -0.8552  2.4305 -0.7158
 9568TIP3   OH250118   0.070   1.846   3.930  0.3677  0.4442 -0.2046
 9568TIP3    H150119   0.162   1.848   3.955  0.3079 -0.7400  0.1643
 9568TIP3    H250120   0.064   1.905   3.855  1.7178 -0.5499 -1.1287
 9569TIP3   OH250121   0.057   2.259  14.284  0.2966  0.1582  0.0149
 9569TIP3    H150122   0.095   2.296  14.205  0.2500  0.5717  0.1846
 9569TIP3    H250123  -0.037   2.258  14.267  0.3775 -0.8008 -0.3786
 9570TIP3   OH250124   3.831   6.122   2.527 -0.2695 -0.2495 -0.0390
 9570TIP3    H150125   3.926   6.135   2.521 -0.3802  0.4514 -0.4083
 9570TIP3    H250126   3.807   6.163   2.609 -0.7450  2.8085 -1.6231
 9571TIP3   OH250127   5.062   5.835   1.694  0.5922 -0.7372 -0.1884
 9571TIP3    H150128   5.083   5.788   1.613  0.1598 -2.1716  0.5168
 9571TIP3    H250129   5.143   5.833   1.744  1.4965  1.9575 -1.4056
 9572TIP3   OH250130   5.189   1.172  10.850  0.4608  0.1389  0.6262
 9572TIP3    H150131   5.215   1.082  10.830  0.2163  0.2306 -0.1409
 9572TIP3    H250132   5.223   1.224  10.777 -0.7826  0.4280  0.2293
 9573TIP3   OH250133   6.392   1.803  14.002  0.0388 -0.5038 -0.1670
 9573TIP3    H150134   6.443   1.864  14.055 -0.3931 -1.6957  1.6507
 9573TIP3    H250135   6.312   1.788  14.052 -1.2600 -0.1569 -2.0783
 9574TIP3   OH250136   6.699   0.716   4.141  0.5708 -0.2373  0.4865
 9574TIP3    H150137   6.714   0.778   4.069 -0.3324 -1.2378 -0.5804
 9574TIP3    H250138   6.720   0.766   4.220  2.0143  0.7426 -0.4852
 9575TIP3   OH250139   1.390   4.547   4.665 -0.2568  0.4523  0.3834
 9575TIP3    H150140   1.474   4.523   4.624 -0.7425  1.4938 -1.2649
 9575TIP3    H250141   1.348   4.463   4.685  1.0856 -0.0794  1.0575
 9576TIP3   OH250142   0.081   2.586   6.281  0.4473 -0.4734 -0.5385
 9576TIP3    H150143   0.073   2.654   6.348  1.3250 -0.0089 -0.8983
 9576TIP3    H250144   0.020   2.518   6.309 -1.3819  0.9922 -0.8508
 9577TIP3   OH250145   1.109   6.310  11.592  0.1399  1.1043 -0.2670
 9577TIP3    H150146   1.145   6.250  11.526  0.3171  0.7050  0.1929
 9577TIP3    H250147   1.176   6.377  11.603 -0.1554  1.5180 -0.9487
 9578TIP3   OH250148   0.585   5.335   4.299 -0.3144  0.3864 -0.2644
 9578TIP3    H150149   0.568   5.426   4.321 -1.3244  0.1699 -0.1503
 9578TIP3    H250150   0.564   5.328   4.206 -0.3291  0.2428 -0.2505
 9579TIP3   OH250151   5.494   0.411  11.290 -0.5063  0.1994 -0.3223
 9579TIP3    H150152   5.530   0.327  11.319  0.2833  0.9625  1.0165
 9579TIP3    H250153   5.564   0.450  11.237  0.4604  1.4105  1.7646
 9580TIP3   OH250154   4.725   0.022  13.737 -0.0774 -0.3576 -0.8161
 9580TIP3    H150155   4.707  -0.061  13.693  0.3736 -0.9104  0.0059
 9580TIP3    H250156   4.638   0.054  13.764 -0.0665 -2.0313  1.4125
 9581TIP3   OH250157   3.272   5.131   1.784 -0.0586 -0.5925  0.1848
 9581TIP3    H150158   3.351   5.165   1.741 -1.1428  2.7139  0.6242
 9581TIP3    H250159   3.200   5.160   1.727 -0.9904 -3.2218 -0.0087
 9582TIP3   OH250160   0.917   6.409   1.820 -0.4617  0.0278 -0.1626
 9582TIP3    H150161   0.877   6.381   1.738  0.7414 -0.3924 -0.6188
 9582TIP3    H250162   0.871   6.359   1.888 -0.4217 -0.7520 -0.7048
 9583TIP3   OH250163   5.485   0.208  12.224  0.4392  0.0599 -0.0413
 9583TIP3    H150164   5.579   0.211  12.239  0.5175 -0.5873 -0.4204
 9583TIP3    H250165   5.470   0.268  12.151  0.3422  1.4409  1.0826
 9584TIP3   OH250166   6.313   4.931   5.208 -0.1584  0.1556  0.7956
 9584TIP3    H150167   6.374   4.891   5.271  1.2360  1.1856  0.1233
 9584TIP3    H250168   6.284   4.858   5.154  1.6081 -0.1226  0.2035
 9585TIP3   OH250169   3.464   5.228  16.672  0.1980  0.2918  0.4535
 9585TIP3    H150170   3.502   5.258  16.590 -0.7230 -0.0989 -0.1162
 9585TIP3    H250171   3.539   5.194  16.722  0.5195 -1.0028 -0.8790
 9586TIP3   OH250172   3.799   1.099   3.402  0.1600 -0.3998  0.3794
 9586TIP3    H150173   3.708   1.122   3.385 -0.1993 -0.9917  1.4610
 9586TIP3    H250174   3.846   1.131   3.325 -1.1534 -1.3300 -0.8607
 9587TIP3   OH250175   3.466   0.399   5.544  0.5038 -0.0790 -0.0262
 9587TIP3    H150176   3.552   0.358   5.543  0.4721 -0.1455 -0.1996
 9587TIP3    H250177   3.474   0.473   5.482  0.7369  0.5502  0.7498
 9588TIP3   OH250178   3.965   4.311  15.073  0.1213 -0.5527  0.1158
 9588TIP3    H150179   3.940   4.259  15.149 -0.5587 -0.5327 -0.0878
 9588TIP3    H250180   4.000   4.392  15.109 -1.4248  0.0087  0.3955
 9589TIP3   OH250181   5.244   2.088  17.180 -0.5719 -0.5740  0.4161
 9589TIP3    H150182   5.211   2.097  17.091 -1.5347 -0.5100  0.7773
 9589TIP3    H250183   5.201   2.009  17.214  0.5213 -1.1495  0.5026
 9590TIP3   OH250184   2.327   1.207  13.358  0.4975 -0.0786 -0.4143
 9590TIP3    H150185   2.391   1.278  13.352 -0.4701  0.8080 -0.4479
 9590TIP3    H250186   2.296   1.209  13.448  1.5564 -1.4452 -0.0033
 9591TIP3   OH250187   3.550   3.929  14.430  0.0104 -0.2743 -0.2717
 9591TIP3    H150188   3.591   3.921  14.515 -1.5422 -3.3761  0.2657
 9591TIP3    H250189   3.500   4.011  14.434  0.0243 -0.3575  1.7634
 9592TIP3   OH250190   4.367   4.958  13.971 -0.1433  0.8029  0.3596
 9592TIP3    H150191   4.417   4.939  13.892  0.6290  0.8542  0.8235
 9592TIP3    H250192   4.383   4.883  14.028 -0.0496  1.1398  0.7787
 9593TIP3   OH250193   4.375   5.611   0.485  0.5485 -0.5363  0.2422
 9593TIP3    H150194   4.332   5.530   0.513 -0.2527 -1.0215 -2.2744
 9593TIP3    H250195   4.458   5.581   0.448  0.5388 -0.1455 -0.0919
 9594TIP3   OH250196   2.594   5.125  16.378  0.0424  0.1419  0.6003
 9594TIP3    H150197   2.592   5.212  16.419 -2.3131  0.1734  0.5045
 9594TIP3    H250198   2.654   5.074  16.433  1.6453  1.8721  0.5067
 9595TIP3   OH250199   4.104   0.179  13.978  0.2437  0.0681 -0.1230
 9595TIP3    H150200   4.101   0.122  13.901 -0.4861 -1.3257  0.9077
 9595TIP3    H250201   4.095   0.119  14.052 -0.0395  1.4938  1.0149
 9596TIP3   OH250202   4.346   6.106  11.082  0.7199  0.4981 -0.1228
 9596TIP3    H150203   4.295   6.126  11.003  2.7681  0.2708 -1.5331
 9596TIP3    H250204   4.411   6.177  11.086 -1.0360  2.0427  2.8888
 9597TIP3   OH250205   4.584   0.715   5.557  0.0304 -0.6324  0.4389
 9597TIP3    H150206   4.491   0.729   5.577  0.5015  0.5704  1.8855
 9597TIP3    H250207   4.625   0.702   5.643  1.4625  0.5396 -0.0506
 9598TIP3   OH250208   5.143   4.617  14.241 -0.1584  0.2606  0.1869
 9598TIP3    H150209   5.236   4.624  14.264  0.1267  1.7332 -1.3148
 9598TIP3    H250210   5.142   4.605  14.146 -1.4474 -2.3108  0.4658
 9599TIP3   OH250211   3.560   5.148   5.853 -0.0533 -0.1820 -0.7450
 9599TIP3    H150212   3.629   5.186   5.800  0.4610 -1.7785 -1.2648
 9599TIP3    H250213   3.479   5.189   5.821  0.5689  1.1485 -0.6276
 9600TIP3   OH250214   4.141   1.942   0.839  0.0011  0.1540  0.1051
 9600TIP3    H150215   4.172   1.928   0.928 -2.7054 -2.8095  0.6807
 9600TIP3    H250216   4.220   1.940   0.785  1.3865 -1.2817  2.1167
 9601TIP3   OH250217   5.876   2.272   4.187  0.0173 -0.3421 -0.0180
 9601TIP3    H150218   5.960   2.290   4.230 -0.6349 -0.0398  1.1592
 9601TIP3    H250219   5.849   2.188   4.222  0.4275 -1.0355 -1.3561
 9602TIP3   OH250220   0.085   2.690   3.676  0.0065  0.4037  0.0540
 9602TIP3    H150221   0.138   2.644   3.741  0.5467  0.1759 -0.5464
 9602TIP3    H250222   0.095   2.783   3.699 -0.2099  0.2997  0.5956
 9603TIP3   OH250223   5.582   5.198  12.386 -0.2418  0.4298 -0.4161
 9603TIP3    H150224   5.547   5.154  12.309 -1.3531  1.5163 -0.5449
 9603TIP3    H250225   5.507   5.207  12.445  0.5685 -0.2708  0.7318
 9604TIP3   OH250226   1.808   0.619  12.409 -0.1960 -0.1045 -0.1851
 9604TIP3    H150227   1.884   0.588  12.459  0.6044  1.5251 -0.3840
 9604TIP3    H250228   1.733   0.583  12.457  0.5639  1.1022  1.9937
 9605TIP3   OH250229   0.216   1.098  13.223 -0.0205  0.5113  0.1016
 9605TIP3    H150230   0.148   1.054  13.172 -0.1091 -0.4773  1.0497
 9605TIP3    H250231   0.298   1.064  13.189 -0.0896 -0.4282  0.8516
 9606TIP3   OH250232   2.686   1.621   3.505  0.0079  0.2383 -0.0615
 9606TIP3    H150233   2.673   1.558   3.434  2.1943  0.2390 -0.4920
 9606TIP3    H250234   2.597   1.640   3.537 -0.7378 -2.2817 -0.5688
 9607TIP3   OH250235   2.450   6.705   5.707  0.1106 -0.3808 -0.1100
 9607TIP3    H150236   2.515   6.635   5.702  0.7218 -0.0204  2.3003
 9607TIP3    H250237   2.377   6.666   5.755 -0.0206  0.2875  0.2345
 9608TIP3   OH250238   0.969   1.398   3.293  0.2457 -0.2210 -0.3895
 9608TIP3    H150239   0.934   1.309   3.295  1.4912 -0.7074  0.1504
 9608TIP3    H250240   1.055   1.391   3.334  0.8689  0.9997 -1.4591
 9609TIP3   OH250241   2.182   1.448  12.032  0.4408  0.3293 -0.2765
 9609TIP3    H150242   2.262   1.469  11.984  0.5697 -1.3638 -0.8325
 9609TIP3    H250243   2.167   1.355  12.015 -1.1354  0.4017  0.5832
 9610TIP3   OH250244   2.483   6.611   5.422 -0.0487 -0.6054 -0.3008
 9610TIP3    H150245   2.542   6.545   5.459 -0.1597 -0.4414  0.1773
 9610TIP3    H250246   2.411   6.616   5.485  0.3568  0.5535  0.0841
 9611TIP3   OH250247   0.096   2.156   4.132 -0.0647 -0.8188 -0.0007
 9611TIP3    H150248   0.172   2.211   4.151 -1.0010  0.0451  1.3192
 9611TIP3    H250249   0.088   2.158   4.036  3.0787 -2.9817 -0.3487
 9612TIP3   OH250250   6.336   4.662   5.560  0.0378  0.2579 -0.5342
 9612TIP3    H150251   6.271   4.727   5.530  0.4187  0.4565 -0.9437
 9612TIP3    H250252   6.295   4.578   5.543 -0.3937  0.3912 -0.1582
 9613TIP3   OH250253   1.074   4.104   2.375 -0.2055 -0.2258 -0.1053
 9613TIP3    H150254   1.081   4.191   2.415  0.4874 -0.4179  0.2089
 9613TIP3    H250255   0.982   4.095   2.350 -0.7652 -0.3423  1.9756
 9614TIP3   OH250256   0.163   2.687  12.586  0.3791 -0.5255  0.3073
 9614TIP3    H150257   0.245   2.642  12.609  0.9691  0.4228  0.0696
 9614TIP3    H250258   0.113   2.688  12.668  0.1200 -2.1181  0.1779
 9615TIP3   OH250259   5.199   3.139   3.496  0.2941 -0.7211  0.3446
 9615TIP3    H150260   5.200   3.043   3.500 -0.1136 -0.7692 -0.4206
 9615TIP3    H250261   5.149   3.158   3.417  2.4956  0.0813 -0.9092
 9616TIP3   OH250262   0.656   3.991   0.076  0.3002  0.5239  0.3018
 9616TIP3    H150263   0.620   4.073   0.110 -0.2187 -0.1882  1.4987
 9616TIP3    H250264   0.593   3.963   0.009  1.3701  1.9769 -1.3355
 9617TIP3   OH250265   1.952   2.431  15.096  0.9377  0.2152  0.0806
 9617TIP3    H150266   2.010   2.362  15.064  1.6246  0.0480  1.6502
 9617TIP3    H250267   1.907   2.393  15.171  3.8326  2.5136  3.0991
 9618TIP3   OH250268   6.406   3.069  13.879  0.2856  0.0302  0.3044
 9618TIP3    H150269   6.332   3.013  13.900  0.5989 -0.3558  0.3828
 9618TIP3    H250270   6.389   3.100  13.790 -0.3751  0.5933  0.6148
 9619TIP3   OH250271   1.382   0.912  16.572 -0.1100 -0.1877 -0.2921
 9619TIP3    H150272   1.367   0.819  16.557 -0.0114 -0.7564  2.7921
 9619TIP3    H250273   1.300   0.944  16.610  0.8762  0.2398  1.5842
 9620TIP3   OH250274   2.905   3.734   0.929  0.0414 -0.1029 -0.2273
 9620TIP3    H150275   2.958   3.806   0.895 -1.1578  1.5437  1.2744
 9620TIP3    H250276   2.963   3.687   0.989 -0.0984  1.5899  1.2819
 9621TIP3   OH250277   6.764   2.126   5.403  0.4431  0.5445 -0.3237
 9621TIP3    H150278   6.791   2.036   5.386 -0.2594  0.0763  0.9634
 9621TIP3    H250279   6.812   2.152   5.481  1.0930  1.5033 -1.0246
 9622TIP3   OH250280   1.577   1.883  12.328  0.3225 -0.5896 -0.5332
 9622TIP3    H150281   1.610   1.920  12.410  0.7997  0.3606 -1.1503
 9622TIP3    H250282   1.482   1.892  12.335  0.2763 -1.6873  0.4637
 9623TIP3   OH250283   2.605   0.174   1.965 -0.1263  0.1702 -0.2405
 9623TIP3    H150284   2.647   0.258   1.946 -1.7056  1.2251  0.9148
 9623TIP3    H250285   2.536   0.194   2.027 -1.3530 -1.7992 -0.9098
 9624TIP3   OH250286   0.193   3.298   5.173  0.0605 -0.2660 -0.3535
 9624TIP3    H150287   0.261   3.356   5.137  1.7684 -1.5891  0.6547
 9624TIP3    H250288   0.237   3.214   5.185 -2.0397 -1.4251 -0.5724
 9625TIP3   OH250289   0.020   6.071  13.158 -0.6646  0.3788 -0.5937
 9625TIP3    H150290  -0.024   6.042  13.078 -1.0145  2.3714 -1.1620
 9625TIP3    H250291   0.113   6.077  13.134 -0.4558 -1.1190 -0.2043
 9626TIP3   OH250292   4.662   0.218   2.273  0.2653  0.1790  0.2283
 9626TIP3    H150293   4.638   0.301   2.315 -1.6047 -0.9766  1.4862
 9626TIP3    H250294   4.616   0.151   2.323  0.5676 -1.5059 -1.6936
 9627TIP3   OH250295   6.635   0.313   0.807 -0.0491 -0.1539  0.6831
 9627TIP3    H150296   6.565   0.251   0.792 -1.3887  0.9249  2.2668
 9627TIP3    H250297   6.601   0.397   0.776  1.9069 -0.2471 -1.8588
 9628TIP3   OH250298   3.871   4.554  12.686 -0.8101  0.3608  0.4906
 9628TIP3    H150299   3.956   4.509  12.680  0.0812  1.8663  1.4784
 9628TIP3    H250300   3.870   4.614  12.612 -1.6773 -0.7486 -0.4011
 9629TIP3   OH250301   5.521   4.263   4.408  0.8296 -0.1943  0.1152
 9629TIP3    H150302   5.506   4.296   4.497  1.1287 -1.0076  0.4774
 9629TIP3    H250303   5.603   4.214   4.414  0.2551 -1.2396 -0.3292
 9630TIP3   OH250304   2.670   5.086   4.494 -0.2112  0.4317  1.1015
 9630TIP3    H150305   2.649   5.000   4.459  0.7426  0.6330  0.0500
 9630TIP3    H250306   2.605   5.099   4.564  0.8248 -1.9337  2.5577
 9631TIP3   OH250307   5.729   6.098  11.689 -0.4431 -0.2078  0.2077
 9631TIP3    H150308   5.717   6.012  11.649 -0.2163 -0.4408  0.6292
 9631TIP3    H250309   5.653   6.148  11.661  0.0076 -0.1748 -0.9813
 9632TIP3   OH250310   5.939   2.915  15.710 -0.6476 -0.3523  0.4799
 9632TIP3    H150311   5.963   2.841  15.765 -1.0711  0.1278  1.3112
 9632TIP3    H250312   5.960   2.886  15.621 -0.6236 -1.3884  0.8179
 9633TIP3   OH250313   5.748   4.293   6.223 -0.0899 -0.7415 -0.2767
 9633TIP3    H150314   5.820   4.320   6.281  0.8840 -0.1758 -1.7317
 9633TIP3    H250315   5.672   4.288   6.281  1.1666 -1.6177  1.3460
 9634TIP3   OH250316   6.068   1.599   2.131 -0.1573  0.3935 -0.0454
 9634TIP3    H150317   6.078   1.602   2.036  1.4485 -0.7860  0.0582
 9634TIP3    H250318   6.112   1.518   2.157  0.5526  1.3423  1.8261
 9635TIP3   OH250319   6.683   0.861   5.931  0.5556 -0.2006 -0.1485
 9635TIP3    H150320   6.747   0.817   5.987  0.0537 -2.1335 -1.0571
 9635TIP3    H250321   6.734   0.898   5.860  0.8419 -0.5415 -0.1246
 9636TIP3   OH250322   6.676   4.188   1.310  0.0348 -0.6893  0.2333
 9636TIP3    H150323   6.718   4.103   1.320 -0.5632 -0.9640  0.4234
 9636TIP3    H250324   6.674   4.224   1.399 -0.4805 -0.8481  0.2907
 9637TIP3   OH250325   1.769   3.005  16.410  0.0933  0.2091  0.5409
 9637TIP3    H150326   1.815   3.085  16.435 -0.6385  0.6092  0.6347
 9637TIP3    H250327   1.738   3.022  16.321 -1.5390  0.7190  1.1790
 9638TIP3   OH250328   3.520   1.506   3.983  0.3481  0.3143 -0.4964
 9638TIP3    H150329   3.535   1.439   3.916  2.8078  0.7628 -0.4419
 9638TIP3    H250330   3.554   1.587   3.944 -0.4007  1.0641  0.3755
 9639TIP3   OH250331   1.972   4.940  16.390 -0.3107  0.1513 -0.7757
 9639TIP3    H150332   1.896   4.968  16.442  0.6164 -0.5306  0.9996
 9639TIP3    H250333   1.959   4.982  16.305 -1.5587  1.8358  0.1904
 9640TIP3   OH250334   1.064   0.885   2.392  0.0238  0.4855 -0.5491
 9640TIP3    H150335   1.144   0.924   2.357 -0.7691 -0.1449 -3.2034
 9640TIP3    H250336   0.996   0.950   2.373 -0.4420  0.0784 -0.2851
 9641TIP3   OH250337   4.880   5.479   2.869  0.1589 -0.4461  0.1634
 9641TIP3    H150338   4.961   5.429   2.861 -0.3712 -1.0756 -1.6977
 9641TIP3    H250339   4.895   5.559   2.820 -0.0774 -0.2020  0.4834
 9642TIP3   OH250340   1.060   3.732  14.110  0.0020  0.6298  0.7663
 9642TIP3    H150341   0.970   3.744  14.143 -0.3497  1.4593 -0.4581
 9642TIP3    H250342   1.089   3.821  14.089  1.0891  0.3501  1.0778
 9643TIP3   OH250343   4.425   5.231   2.057 -0.6062  0.0362 -0.5893
 9643TIP3    H150344   4.480   5.245   2.134 -2.1132 -2.9967  1.1374
 9643TIP3    H250345   4.346   5.283   2.074 -0.3257  0.5340 -0.7958
 9644TIP3   OH250346   1.481   1.975  14.842  0.2819 -0.2978 -0.4708
 9644TIP3    H150347   1.394   1.982  14.881  0.9537 -2.5817  1.5121
 9644TIP3    H250348   1.474   1.902  14.780  0.6622 -0.1329 -0.7131
 9645TIP3   OH250349   1.890   4.795  12.132  0.3850  0.1655 -1.0287
 9645TIP3    H150350   1.934   4.789  12.217 -0.5197  2.3628 -0.3830
 9645TIP3    H250351   1.949   4.849  12.079 -0.0552  0.5660 -1.1139
 9646TIP3   OH250352   2.157   4.325  11.276 -0.1151 -0.9696 -0.1478
 9646TIP3    H150353   2.063   4.327  11.296 -0.1095 -0.0971 -0.2058
 9646TIP3    H250354   2.162   4.329  11.181 -0.0401 -1.9701 -0.1949
 9647TIP3   OH250355   2.508   4.913  13.235 -0.2757 -0.4284 -0.5615
 9647TIP3    H150356   2.540   4.877  13.318 -0.1995 -2.2430 -1.3702
 9647TIP3    H250357   2.575   4.889  13.171  1.6573  4.3130 -0.5429
 9648TIP3   OH250358   6.353   5.750  15.418  0.2612  0.0033  0.0755
 9648TIP3    H150359   6.346   5.662  15.455 -0.8571 -0.2508 -0.7426
 9648TIP3    H250360   6.335   5.739  15.325  0.2901  1.0790 -0.0593
 9649TIP3   OH250361   5.634   1.541  13.987 -0.1239 -0.4753 -0.1538
 9649TIP3    H150362   5.579   1.589  14.049 -0.4171 -0.1618 -0.6510
 9649TIP3    H250363   5.622   1.587  13.904 -0.4256 -1.4242 -0.6407
 9650TIP3   OH250364   2.356   1.491   5.495 -0.1525  0.6071  0.4684
 9650TIP3    H150365   2.267   1.523   5.515 -0.1036  2.6394 -2.2221
 9650TIP3    H250366   2.413   1.546   5.549 -0.3086  2.5255 -1.2428
 9651TIP3   OH250367   3.102   0.184  12.942 -0.3071  0.6382 -0.2822
 9651TIP3    H150368   3.035   0.116  12.954  1.0984 -0.4463  1.8184
 9651TIP3    H250369   3.067   0.241  12.874 -2.7416 -0.6880 -0.1939
 9652TIP3   OH250370   5.113   6.328  16.199 -0.0847 -0.0237 -0.5397
 9652TIP3    H150371   5.146   6.415  16.174 -0.3338 -0.1165 -1.1934
 9652TIP3    H250372   5.190   6.282  16.232  0.3883 -0.1221 -1.7433
 9653TIP3   OH250373   0.894   5.752  11.169 -0.1997  0.1062  0.4901
 9653TIP3    H150374   0.915   5.659  11.156  0.8034  0.3140  0.5485
 9653TIP3    H250375   0.811   5.764  11.123 -0.1308 -0.7276  0.1272
 9654TIP3   OH250376   0.095   3.581   3.588 -0.1843  0.3444 -0.0329
 9654TIP3    H150377   0.024   3.605   3.647 -0.8753  0.8959 -1.0562
 9654TIP3    H250378   0.134   3.665   3.563  0.5937  0.0671  0.2325
 9655TIP3   OH250379   6.423   4.733  17.211  0.4040  0.4352  0.1249
 9655TIP3    H150380   6.427   4.650  17.162  1.7725  0.3942  0.2813
 9655TIP3    H250381   6.515   4.756  17.225  0.0188  1.9628  0.1327
 9656TIP3   OH250382   5.143   5.954   5.706  0.2727  0.7485  0.2758
 9656TIP3    H150383   5.235   5.927   5.710  0.9994  3.0888 -0.2704
 9656TIP3    H250384   5.125   5.965   5.613 -1.4397 -2.4538  0.1401
 9657TIP3   OH250385   4.248   4.172  16.241  0.2825 -0.2998  0.1298
 9657TIP3    H150386   4.275   4.116  16.168  4.3833 -0.6120  1.7083
 9657TIP3    H250387   4.213   4.251  16.199  1.0266 -1.1589 -2.1912
 9658TIP3   OH250388   1.733   6.120   1.464 -0.3070  0.0444 -0.1999
 9658TIP3    H150389   1.638   6.125   1.453 -0.2055  0.9737 -0.6585
 9658TIP3    H250390   1.768   6.185   1.403  0.4909  1.9718  2.2547
 9659TIP3   OH250391   5.397   1.091  17.155  0.2337  0.1245 -0.3462
 9659TIP3    H150392   5.312   1.110  17.114 -0.1967  1.4043  1.1156
 9659TIP3    H250393   5.460   1.139  17.102  0.3405 -2.3909 -2.6472
 9660TIP3   OH250394   5.373   0.623   3.834 -0.2532  0.2546  0.6900
 9660TIP3    H150395   5.283   0.655   3.827 -0.8489 -1.5369 -0.0105
 9660TIP3    H250396   5.408   0.630   3.745 -0.4306 -1.1318  0.5051
 9661TIP3   OH250397   1.354   3.072  12.360 -0.0047 -0.1239  0.1279
 9661TIP3    H150398   1.396   3.152  12.328  0.1871 -0.7771 -1.3085
 9661TIP3    H250399   1.419   3.004  12.346 -1.1998 -1.0007 -1.3311
 9662TIP3   OH250400   3.157   6.060  15.858  0.2938 -0.2292 -0.5846
 9662TIP3    H150401   3.096   6.078  15.786  0.4004 -1.0757 -0.8816
 9662TIP3    H250402   3.105   6.012  15.923  0.8313 -1.5746 -1.1492
 9663TIP3   OH250403   5.234   3.927  11.506 -0.2762  0.7173 -0.1166
 9663TIP3    H150404   5.232   3.946  11.600  0.4478  0.4917 -0.0551
 9663TIP3    H250405   5.176   3.851  11.496  2.3055 -1.4439  0.6701
 9664TIP3   OH250406   6.559   3.080  10.867 -0.0551  0.4018 -0.2264
 9664TIP3    H150407   6.648   3.083  10.832 -0.5545  0.4493 -1.5189
 9664TIP3    H250408   6.524   2.997  10.835  0.2162 -0.6070  2.0196
 9665TIP3   OH250409   5.402   0.522   0.320 -0.3439 -0.3632 -0.3256
 9665TIP3    H150410   5.477   0.576   0.295 -0.9320 -0.2030 -1.7690
 9665TIP3    H250411   5.370   0.485   0.238 -1.3423 -1.1040  0.3783
 9666TIP3   OH250412   0.118   1.406  14.571 -0.5166  0.0164 -0.0768
 9666TIP3    H150413   0.052   1.460  14.615 -0.5002  1.3984 -1.7302
 9666TIP3    H250414   0.101   1.317  14.603 -0.0408  1.0681  3.2929
 9667TIP3   OH250415   6.528   2.179  11.480  0.0892  0.3907  0.6937
 9667TIP3    H150416   6.618   2.165  11.450  0.0230  0.5144  0.4289
 9667TIP3    H250417   6.486   2.093  11.469  0.0801  0.4222  0.4800
 9668TIP3   OH250418   4.219   5.858  15.626 -0.3516  0.1666 -0.1276
 9668TIP3    H150419   4.199   5.824  15.539 -2.0059  0.5710  0.0813
 9668TIP3    H250420   4.165   5.805  15.685 -0.4655  0.9756  0.5021
 9669TIP3   OH250421   3.095   5.575  16.529 -0.8025 -0.2640  0.2628
 9669TIP3    H150422   3.089   5.650  16.589  1.4127 -0.2327  0.5022
 9669TIP3    H250423   3.104   5.615  16.442 -2.1090 -0.2880  0.1111
 9670TIP3   OH250424   2.326   1.786  14.055 -0.5700  0.5341  0.3735
 9670TIP3    H150425   2.410   1.798  14.099  0.0875  0.1182 -0.7585
 9670TIP3    H250426   2.266   1.761  14.125  0.0406  1.7157  1.3365
 9671TIP3   OH250427   0.704   3.551  17.128 -0.0611  0.2113  0.0495
 9671TIP3    H150428   0.697   3.505  17.212 -0.8243  0.9846  0.4108
 9671TIP3    H250429   0.617   3.588  17.113  0.7173  2.1337  0.1178
 9672TIP3   OH250430   0.995   3.569  11.539  0.0906 -0.3535 -0.3435
 9672TIP3    H150431   1.024   3.632  11.606  0.8623 -0.4358 -0.5958
 9672TIP3    H250432   0.975   3.624  11.463  0.3548 -0.3762 -0.4280
 9673TIP3   OH250433   0.921   1.242   0.957 -0.0865 -0.0085  0.7553
 9673TIP3    H150434   0.851   1.288   0.912  0.0048 -1.3170 -0.8027
 9673TIP3    H250435   0.878   1.197   1.030 -0.9168 -0.9585 -0.3015
 9674TIP3   OH250436   5.509   5.026  12.179 -0.2317 -0.2590  0.5849
 9674TIP3    H150437   5.465   4.990  12.103  0.0690  1.1023 -0.2468
 9674TIP3    H250438   5.599   5.043  12.150  0.3401 -1.2776  1.7231
 9675TIP3   OH250439   3.507   1.881  10.798  0.4096 -0.1933  0.3564
 9675TIP3    H150440   3.600   1.896  10.784  0.3371 -1.0435 -1.1320
 9675TIP3    H250441   3.502   1.833  10.880  1.2792 -0.1089  0.4596
 9676TIP3   OH250442   6.545   1.643  14.287 -0.6156 -0.6048 -0.2166
 9676TIP3    H150443   6.524   1.596  14.206 -0.1095 -2.1322  0.5191
 9676TIP3    H250444   6.461   1.675  14.319 -1.3378 -3.2287  0.6215
 9677TIP3   OH250445   3.968   2.929  11.233  0.1743  0.1460 -0.2639
 9677TIP3    H150446   3.947   2.903  11.322  0.8832  1.7302  0.3916
 9677TIP3    H250447   3.906   2.882  11.178 -1.7158  0.8449  1.2387
 9678TIP3   OH250448   1.260   3.106   0.750  0.1424 -0.1085  0.0909
 9678TIP3    H150449   1.165   3.109   0.754  0.1852  1.1988  0.3033
 9678TIP3    H250450   1.289   3.189   0.788  1.3222  0.4110 -1.8399
 9679TIP3   OH250451   0.060   3.620  13.211  0.2708 -0.2411  0.3261
 9679TIP3    H150452   0.021   3.533  13.204  0.2371 -0.1841 -0.2459
 9679TIP3    H250453  -0.014   3.678  13.228  0.2137 -0.2440  0.0889
 9680TIP3   OH250454   4.354   6.268  16.774 -0.1970  0.1951 -0.1313
 9680TIP3    H150455   4.279   6.272  16.833  0.4236 -5.4514  1.3266
 9680TIP3    H250456   4.420   6.322  16.816 -1.6173  0.7637  1.4278
 9681TIP3   OH250457   0.846   0.642  12.498 -0.1466 -0.3738  0.6633
 9681TIP3    H150458   0.851   0.692  12.416 -0.3190 -1.2877  0.0850
 9681TIP3    H250459   0.916   0.578  12.490  0.2817 -0.0144  1.5477
 9682TIP3   OH250460   1.248   1.438   0.617  0.5583  0.2086  0.0073
 9682TIP3    H150461   1.318   1.424   0.554  0.8734  1.7865 -0.0163
 9682TIP3    H250462   1.251   1.362   0.675  2.3912  0.3413  0.1074
 9683TIP3   OH250463   3.574   5.473   3.787 -0.2055  0.5663 -0.3553
 9683TIP3    H150464   3.510   5.404   3.766 -1.6974  1.4924  1.0197
 9683TIP3    H250465   3.579   5.526   3.708 -0.8717  0.2617 -0.6072
 9684TIP3   OH250466   6.289   1.516   1.612 -0.3079  0.0248 -0.2576
 9684TIP3    H150467   6.268   1.432   1.573 -0.0454 -0.0295 -0.2857
 9684TIP3    H250468   6.252   1.512   1.700  0.9511 -0.6798  0.2486
 9685TIP3   OH250469   4.503   0.803  16.192 -0.1860 -1.0014  0.3367
 9685TIP3    H150470   4.523   0.897  16.191 -2.9236 -0.4062 -0.5964
 9685TIP3    H250471   4.570   0.764  16.136  1.3077  0.2945  1.1568
 9686TIP3   OH250472   1.796   5.663   5.703  0.4415  0.3959 -0.6715
 9686TIP3    H150473   1.716   5.700   5.741  0.0524 -0.2603 -0.8557
 9686TIP3    H250474   1.795   5.571   5.728  2.5183  0.9412  1.6556
 9687TIP3   OH250475   6.731   1.850  14.137 -0.3327 -0.2854  0.7316
 9687TIP3    H150476   6.682   1.803  14.204 -1.8864 -0.7329 -0.7022
 9687TIP3    H250477   6.722   1.797  14.058 -0.3620  1.3353 -0.3827
 9688TIP3   OH250478   5.121   6.050   1.286  0.7513 -0.4487 -0.0808
 9688TIP3    H150479   5.077   5.992   1.224  0.9224 -0.3577 -0.2898
 9688TIP3    H250480   5.198   6.081   1.238  0.8547 -0.3375  0.1598
 9689TIP3   OH250481   0.134   4.602   0.586  0.1929 -0.3119 -0.0734
 9689TIP3    H150482   0.051   4.554   0.592 -1.1408  1.8357 -0.6758
 9689TIP3    H250483   0.200   4.538   0.612 -1.6608 -2.0305  0.6217
 9690TIP3   OH250484   2.751   1.291   6.010 -0.1771  0.1511 -0.5586
 9690TIP3    H150485   2.844   1.313   6.015 -0.5900  1.7712  0.3491
 9690TIP3    H250486   2.713   1.362   5.958 -1.4996  1.5227  2.1852
 9691TIP3   OH250487   0.065   1.630  12.376 -0.2162  0.5863  0.4772
 9691TIP3    H150488   0.084   1.712  12.330  0.7933  0.2378  0.2509
 9691TIP3    H250489   0.057   1.565  12.306  3.0319 -0.2882  0.8331
 9692TIP3   OH250490   6.130   4.415  12.740  0.1780 -0.3082 -0.4806
 9692TIP3    H150491   6.061   4.390  12.678  0.0306 -0.2064 -0.3586
 9692TIP3    H250492   6.089   4.480  12.796 -0.3048 -1.8453  0.9976
 9693TIP3   OH250493   6.137   0.082  15.594  0.2472 -0.1291 -0.7024
 9693TIP3    H150494   6.067   0.129  15.549  1.3530  0.6326 -1.6659
 9693TIP3    H250495   6.102   0.064  15.681 -0.6131  1.5524 -0.6744
 9694TIP3   OH250496   1.787   0.759   3.957 -0.2631 -0.0126 -0.0919
 9694TIP3    H150497   1.835   0.678   3.970  0.9208  0.2879 -2.4175
 9694TIP3    H250498   1.715   0.736   3.899 -1.1325  0.2002  0.8724
 9695TIP3   OH250499   2.299   1.041   0.285  0.4212 -0.0082 -0.2041
 9695TIP3    H150500   2.308   1.131   0.314  0.1895  0.3961 -1.3496
 9695TIP3    H250501   2.231   1.044   0.218 -1.5519 -1.4811  1.6444
 9696TIP3   OH250502   5.232   2.722   1.889  0.4712  0.1279 -0.1346
 9696TIP3    H150503   5.318   2.745   1.924  2.0722 -1.4854 -2.8402
 9696TIP3    H250504   5.219   2.780   1.814 -0.6919  0.2120  0.1180
 9697TIP3   OH250505   5.431   0.496   4.122 -0.0657  0.3503  0.8647
 9697TIP3    H150506   5.371   0.538   4.060 -0.2733  0.0160  0.8341
 9697TIP3    H250507   5.517   0.504   4.081  0.0190  1.4918  1.2643
 9698TIP3   OH250508   5.472   4.828  16.953  0.4155  0.1746 -0.3569
 9698TIP3    H150509   5.546   4.771  16.934  0.3738 -0.7549  2.0483
 9698TIP3    H250510   5.395   4.771  16.950  0.1576  0.4788  0.2877
 9699TIP3   OH250511   0.834   4.780   4.049  0.5990 -0.0943  0.2157
 9699TIP3    H150512   0.831   4.696   4.004 -0.0617  0.3961 -0.6683
 9699TIP3    H250513   0.763   4.775   4.113  2.8684 -1.6076  2.7006
 9700TIP3   OH250514   5.209   1.134   2.428  0.0350 -0.2558  0.1934
 9700TIP3    H150515   5.221   1.215   2.379  1.4059  0.3711  1.5451
 9700TIP3    H250516   5.138   1.153   2.490  1.2654  0.3688  1.4378
 9701TIP3   OH250517   4.437   6.583   6.878 -0.5023 -0.4415  0.2495
 9701TIP3    H150518   4.525   6.571   6.912 -0.5830 -0.6653  0.3848
 9701TIP3    H250519   4.403   6.494   6.866 -1.2533 -0.3559  1.6278
 9702TIP3   OH250520   3.975   1.749   2.210  0.7058 -0.3879  0.0697
 9702TIP3    H150521   3.929   1.666   2.197  0.5726 -0.5059  1.2389
 9702TIP3    H250522   4.053   1.725   2.259  0.8792  0.1232  0.0397
 9703TIP3   OH250523   3.007   2.270  12.126  0.3453 -0.0971  0.0742
 9703TIP3    H150524   3.081   2.291  12.184 -0.6818  2.4632  0.5039
 9703TIP3    H250525   2.932   2.263  12.185  0.1780 -2.6409 -0.3727
 9704TIP3   OH250526   3.551   5.223   0.217  0.0758  0.2354  0.2850
 9704TIP3    H150527   3.554   5.135   0.182  1.1592  0.7115 -0.8456
 9704TIP3    H250528   3.572   5.280   0.143  0.0358  1.3980  1.1398
 9705TIP3   OH250529   3.781   2.462  12.709 -0.0960  0.1087 -0.2147
 9705TIP3    H150530   3.820   2.405  12.644  0.0807  1.1183 -1.0172
 9705TIP3    H250531   3.727   2.405  12.763  0.8829 -0.9655 -0.3634
 9706TIP3   OH250532   4.414   6.683   5.831  0.2079  0.1226  0.3452
 9706TIP3    H150533   4.329   6.659   5.796  2.2696 -1.4842 -4.0012
 9706TIP3    H250534   4.424   6.776   5.810 -0.1129  0.0984  0.0886
 9707TIP3   OH250535   3.228   5.947   5.146 -0.0692  0.0031  0.0800
 9707TIP3    H150536   3.173   6.025   5.136 -0.5910 -0.1142  1.8247
 9707TIP3    H250537   3.178   5.877   5.102  0.4620  0.6545 -1.6026
 9708TIP3   OH250538   4.563   5.760   1.705 -0.3378  0.3442 -0.3914
 9708TIP3    H150539   4.469   5.775   1.697 -0.9279 -2.5044  0.5771
 9708TIP3    H250540   4.586   5.710   1.627  0.5186  1.5759 -0.9402
 9709TIP3   OH250541   3.096   2.894  11.346  0.2832  0.4086  0.2802
 9709TIP3    H150542   3.036   2.820  11.343  0.3331  0.3261  1.0606
 9709TIP3    H250543   3.129   2.904  11.257 -2.5016  1.7593 -0.6624
 9710TIP3   OH250544   5.761   2.025   2.929  0.7478 -0.6795 -0.0037
 9710TIP3    H150545   5.770   2.116   2.898  0.6912 -0.6396  0.0959
 9710TIP3    H250546   5.805   2.025   3.014 -0.9735 -0.2590  0.9096
 9711TIP3   OH250547   5.196   1.808  15.501 -0.0919  0.7736  0.0937
 9711TIP3    H150548   5.103   1.802  15.476 -0.2799  0.3110  0.9123
 9711TIP3    H250549   5.198   1.783  15.593  0.8139  1.0672  0.1560
 9712TIP3   OH250550   5.643   1.478   0.261  0.3689  0.2411  0.0822
 9712TIP3    H150551   5.573   1.519   0.313  0.5926 -0.8299  1.2663
 9712TIP3    H250552   5.697   1.551   0.231 -0.5262  0.9769  0.2470
 9713TIP3   OH250553   6.061   4.727   2.616 -0.0988 -0.1149  0.0280
 9713TIP3    H150554   5.988   4.733   2.677  0.0247 -0.6817  0.2379
 9713TIP3    H250555   6.119   4.800   2.640 -0.5427  0.2732 -0.0770
 9714TIP3   OH250556   4.962   1.193   2.586 -0.2558  0.1118  0.2637
 9714TIP3    H150557   5.015   1.259   2.631 -1.6290  2.9962 -2.1473
 9714TIP3    H250558   4.956   1.121   2.648  2.3153  1.7495  2.5432
 9715TIP3   OH250559   6.511   0.972  14.523 -0.2106  0.1394 -0.1223
 9715TIP3    H150560   6.454   0.986  14.448  0.2478  1.8650 -0.1835
 9715TIP3    H250561   6.594   1.012  14.498  0.1948  0.0364  0.9972
 9716TIP3   OH250562   2.294   0.448  14.580 -0.3046 -0.2725 -0.4792
 9716TIP3    H150563   2.378   0.403  14.566 -1.4996 -2.9955  0.8339
 9716TIP3    H250564   2.316   0.520  14.640  1.2734 -0.2701 -1.0157
 9717TIP3   OH250565   2.852   1.803   0.818 -0.3095 -0.4596  0.3611
 9717TIP3    H150566   2.924   1.857   0.786  2.3566 -5.2916 -2.2846
 9717TIP3    H250567   2.872   1.789   0.911  2.1134 -1.5406 -0.2874
 9718TIP3   OH250568   4.121   0.571  16.177  0.2796 -0.1897  0.8508
 9718TIP3    H150569   4.097   0.528  16.259 -1.3444 -1.2454 -0.1475
 9718TIP3    H250570   4.105   0.664  16.193  0.5420 -0.3231  1.9166
 9719TIP3   OH250571   2.423   3.246  13.922 -0.0074 -0.0791  0.4332
 9719TIP3    H150572   2.469   3.330  13.916  3.0842 -1.5397  2.8300
 9719TIP3    H250573   2.396   3.241  14.013 -1.7609 -0.9372 -0.1158
 9720TIP3   OH250574   5.122   5.273  11.852  0.1362  0.3703 -0.5181
 9720TIP3    H150575   5.149   5.284  11.761 -0.3125  2.0213 -0.4697
 9720TIP3    H250576   5.044   5.328  11.860 -2.2222 -2.8997 -0.1912
 9721TIP3   OH250577   3.392   5.171   0.650  0.1467 -0.3317 -0.0942
 9721TIP3    H150578   3.476   5.197   0.613 -0.4190 -0.0329 -1.1961
 9721TIP3    H250579   3.414   5.112   0.722  1.2736 -0.8004 -0.8164
 9722TIP3   OH250580   0.122   2.210  11.829 -0.6749 -0.4883  0.0266
 9722TIP3    H150581   0.153   2.234  11.741 -0.1476  0.1460  0.3817
 9722TIP3    H250582   0.027   2.199  11.819 -0.6187 -0.4012 -0.6200
 9723TIP3   OH250583   1.632   0.581  16.651  0.2017  0.3047  0.4578
 9723TIP3    H150584   1.645   0.486  16.656 -0.4344  0.2134  0.5125
 9723TIP3    H250585   1.571   0.592  16.577  2.0064  0.8522 -0.9992
 9724TIP3   OH250586   6.609   4.258   4.732  0.3934  0.1187 -0.1130
 9724TIP3    H150587   6.674   4.217   4.674  1.5768 -0.1280  1.3451
 9724TIP3    H250588   6.623   4.215   4.816 -1.6462  0.1208  0.2343
 9725TIP3   OH250589   0.952   0.133   0.336 -0.0232 -0.7718 -0.1700
 9725TIP3    H150590   0.985   0.194   0.271 -0.6404  0.1554  0.3669
 9725TIP3    H250591   0.905   0.066   0.285 -1.1708  0.3700 -0.6499
 9726TIP3   OH250592   1.517   3.796  14.445 -0.2933 -0.6818  0.1718
 9726TIP3    H150593   1.437   3.756  14.411  0.8258 -2.4164 -0.4320
 9726TIP3    H250594   1.580   3.789  14.374  0.7645 -0.3978  1.0703
 9727TIP3   OH250595   0.390   3.947   2.045 -0.5075  0.4858 -0.2641
 9727TIP3    H150596   0.354   3.861   2.022 -0.9111  0.9315 -1.3643
 9727TIP3    H250597   0.332   4.009   2.000 -1.2583  1.4140  1.9424
 9728TIP3   OH250598   5.659   1.572  15.531  0.3959  0.1691 -0.0997
 9728TIP3    H150599   5.746   1.554  15.494 -0.0810 -1.0918 -0.6599
 9728TIP3    H250600   5.621   1.485  15.544 -0.1846  0.6731  1.6057
 9729TIP3   OH250601   1.593   1.504   6.335  0.1352 -0.1239  0.6269
 9729TIP3    H150602   1.676   1.475   6.373  0.0400  0.8051  1.6098
 9729TIP3    H250603   1.571   1.438   6.270  2.4357  0.4286 -0.7867
 9730TIP3   OH250604   6.205   6.334   6.051 -0.0296 -0.2511  0.7094
 9730TIP3    H150605   6.201   6.412   5.996 -0.1260 -0.5423  0.3006
 9730TIP3    H250606   6.147   6.354   6.125 -0.9827 -0.3929  0.0162
 9731TIP3   OH250607   2.691   0.684   5.115 -0.3497  0.3588 -0.4866
 9731TIP3    H150608   2.610   0.721   5.150 -0.1509  0.6241 -0.2983
 9731TIP3    H250609   2.707   0.606   5.169  0.5894  1.4256  0.8301
 9732TIP3   OH250610   1.442   2.898  16.969  0.5315  0.3701  0.2152
 9732TIP3    H150611   1.510   2.850  16.922  0.7443 -0.7257  1.6133
 9732TIP3    H250612   1.362   2.879  16.920  0.7155 -0.9401  0.4100
 9733TIP3   OH250613   5.760   2.667  12.618  0.7497 -0.0640  0.3443
 9733TIP3    H150614   5.782   2.591  12.564  0.0796 -1.8066  2.4594
 9733TIP3    H250615   5.845   2.700  12.648  1.1627  1.2899 -2.2123
 9734TIP3   OH250616   5.306   0.699  16.646  0.2787  0.4632  0.0945
 9734TIP3    H150617   5.252   0.671  16.573 -0.1182 -0.6098  0.7864
 9734TIP3    H250618   5.265   0.659  16.723  1.7033  0.1368  0.6974
 9735TIP3   OH250619   6.209   6.323  15.400  0.2461  0.4822 -0.8477
 9735TIP3    H150620   6.192   6.251  15.460  0.0566 -0.5939 -2.1613
 9735TIP3    H250621   6.293   6.301  15.359  0.7624  1.5996 -0.4232
 9736TIP3   OH250622   0.518   5.899  14.580  0.0993  0.5431 -0.5364
 9736TIP3    H150623   0.466   5.870  14.506 -1.2055  0.8719  0.2360
 9736TIP3    H250624   0.602   5.856  14.569 -0.2951  0.1023 -1.8657
 9737TIP3   OH250625   4.952   5.842   2.374  0.0189 -0.4259 -0.1884
 9737TIP3    H150626   5.015   5.774   2.350  0.4910 -0.0294 -0.0673
 9737TIP3    H250627   4.933   5.887   2.292  1.1124  0.4849  0.0417
 9738TIP3   OH250628   4.437   2.577   0.068  0.2191  0.0778  0.1881
 9738TIP3    H150629   4.419   2.504   0.127  1.0501 -0.8230 -0.6639
 9738TIP3    H250630   4.527   2.562   0.038 -0.1569  0.5961 -1.2032
 9739TIP3   OH250631   6.182   5.513  14.541  0.3712 -0.4948  0.3704
 9739TIP3    H150632   6.171   5.606  14.519 -1.9518 -0.9570 -0.4821
 9739TIP3    H250633   6.230   5.477  14.467 -1.1827 -0.5390 -0.6432
 9740TIP3   OH250634   1.510   0.962  12.826 -0.4914  0.0439  0.2618
 9740TIP3    H150635   1.552   1.025  12.767  2.8884 -2.1019  0.2630
 9740TIP3    H250636   1.542   0.986  12.913 -1.0802 -0.2429  0.5620
 9741TIP3   OH250637   6.052   0.923   2.671 -0.6697  0.3106 -0.1248
 9741TIP3    H150638   5.997   0.964   2.738  0.1272 -1.9290  1.9634
 9741TIP3    H250639   6.098   0.853   2.717  1.4415  0.0179 -2.5854
 9742TIP3   OH250640   3.635   3.737   1.669 -0.0738 -0.2061 -0.6173
 9742TIP3    H150641   3.576   3.811   1.652 -0.5277 -0.6709 -1.0803
 9742TIP3    H250642   3.582   3.674   1.718 -0.0814 -0.7891 -1.3669
 9743TIP3   OH250643   2.684   2.506   3.563 -0.5328 -0.1767  0.1793
 9743TIP3    H150644   2.710   2.443   3.631  0.0539 -0.9556 -0.7638
 9743TIP3    H250645   2.692   2.457   3.481  0.9138  1.4477 -0.6567
 9744TIP3   OH250646   4.956   5.635  12.429 -0.6472  0.0819  0.4564
 9744TIP3    H150647   4.955   5.662  12.337 -0.1761 -0.5457  0.2624
 9744TIP3    H250648   4.980   5.714  12.478  2.4952 -0.3801 -0.2515
 9745TIP3   OH250649   4.923   0.210   2.164 -0.3803 -0.5239 -0.0662
 9745TIP3    H150650   4.833   0.210   2.197 -0.9369  1.5128 -1.5076
 9745TIP3    H250651   4.977   0.212   2.243 -1.6550  0.9681  0.8053
 9746TIP3   OH250652   1.260   1.682   3.954  0.2223 -0.3952  0.0212
 9746TIP3    H150653   1.311   1.701   4.033  1.8587 -0.4882 -0.9916
 9746TIP3    H250654   1.216   1.600   3.974  0.7215 -0.4795  0.8090
 9747TIP3   OH250655   4.988   0.203   0.786 -0.6022  0.0180 -0.3979
 9747TIP3    H150656   5.047   0.211   0.711 -1.6889 -0.3297 -1.3142
 9747TIP3    H250657   4.908   0.165   0.749 -1.3536  0.3696  0.8380
 9748TIP3   OH250658   2.701   5.094   2.800 -0.6350  0.0711 -0.5360
 9748TIP3    H150659   2.745   5.039   2.865 -1.4312 -1.8858 -1.6111
 9748TIP3    H250660   2.743   5.179   2.809  1.7773 -1.1390  0.0469
 9749TIP3   OH250661   4.834   5.737   1.347  0.0084 -0.3350 -0.3343
 9749TIP3    H150662   4.782   5.808   1.386  3.1731  0.0030  3.6050
 9749TIP3    H250663   4.884   5.779   1.277  0.7118  1.0710  0.9700
 9750TIP3   OH250664   1.897   5.565  16.021  0.2043  0.2669  0.0808
 9750TIP3    H150665   1.858   5.604  15.943  0.3757  1.1305  0.4237
 9750TIP3    H250666   1.984   5.605  16.027  0.3542 -0.1092  0.4827
 9751TIP3   OH250667   0.425   4.197   5.366 -0.4331 -0.0406  0.0642
 9751TIP3    H150668   0.338   4.233   5.384 -1.3349 -2.7829  1.5579
 9751TIP3    H250669   0.420   4.107   5.400  2.8208 -0.3954 -0.3202
 9752TIP3   OH250670   2.202   3.849   1.529 -0.1596  0.4317  0.3385
 9752TIP3    H150671   2.149   3.926   1.509 -0.7218  0.0278  0.2571
 9752TIP3    H250672   2.223   3.859   1.622  0.5884  1.1770  0.0950
 9753TIP3   OH250673   1.479   4.837   5.712 -0.1800 -0.3945 -0.0480
 9753TIP3    H150674   1.393   4.813   5.744 -1.0811  0.3734 -1.8425
 9753TIP3    H250675   1.468   4.925   5.675  1.4512 -0.1251  0.0435
 9754TIP3   OH250676   2.251   0.631   5.725  0.0695  0.3257 -0.7525
 9754TIP3    H150677   2.284   0.545   5.697 -2.6776 -1.1377  0.3218
 9754TIP3    H250678   2.268   0.634   5.819  0.5406  1.1706 -0.8551
 9755TIP3   OH250679   3.066   1.517  16.884 -0.3885 -0.0983  0.0377
 9755TIP3    H150680   3.090   1.570  16.960 -0.4703 -1.3567  0.9609
 9755TIP3    H250681   3.001   1.570  16.838 -1.5432  0.0083  1.7198
 9756TIP3   OH250682   5.331   5.941   2.675  0.4686  0.4763  0.2124
 9756TIP3    H150683   5.237   5.927   2.679  0.7409 -1.2305  0.7928
 9756TIP3    H250684   5.358   5.902   2.592  0.7799  0.3024  0.3948
 9757TIP3   OH250685   2.437   2.116  13.919 -0.2207 -0.6353 -0.0145
 9757TIP3    H150686   2.344   2.136  13.913  0.7349  4.4090 -0.7155
 9757TIP3    H250687   2.461   2.087  13.832 -1.2391 -2.6647  0.3598
 9758TIP3   OH250688   6.603   6.481   5.705  0.1911 -0.1879  0.0154
 9758TIP3    H150689   6.550   6.436   5.638  1.5030  1.0590 -1.8948
 9758TIP3    H250690   6.548   6.479   5.784 -1.7465 -0.9363 -1.3143
 9759TIP3   OH250691   5.802   4.472  15.219  0.6914 -0.0962  0.1674
 9759TIP3    H150692   5.849   4.467  15.302  0.7500 -0.7969  0.0931
 9759TIP3    H250693   5.715   4.504  15.243  0.8363  0.0939  0.4457
 9760TIP3   OH250694   0.661   6.000  10.696  0.2593  0.1772  0.3515
 9760TIP3    H150695   0.575   6.035  10.670  0.7965  1.3969  0.1937
 9760TIP3    H250696   0.659   5.908  10.667 -0.9609  0.2112  0.2869
 9761TIP3   OH250697   6.618   5.493  14.830  0.3100 -0.6095  0.0252
 9761TIP3    H150698   6.633   5.500  14.924  0.5332  0.3148 -0.0798
 9761TIP3    H250699   6.569   5.411  14.820 -0.4452 -0.2947  1.0283
 9762TIP3   OH250700   3.897   0.550  17.226 -0.0305  0.5546 -0.5598
 9762TIP3    H150701   3.882   0.557  17.131  0.7206  1.7926 -0.5932
 9762TIP3    H250702   3.891   0.456  17.244 -0.0929  0.3005 -1.8489
 9763TIP3   OH250703   1.612   1.172  16.726  0.1944 -0.2460 -0.0853
 9763TIP3    H150704   1.628   1.085  16.764  0.3636  0.2590  1.0058
 9763TIP3    H250705   1.524   1.165  16.688  1.1301 -1.6153 -2.0679
 9764TIP3   OH250706   0.264   2.398  13.265  0.3112 -0.0848 -0.4690
 9764TIP3    H150707   0.344   2.372  13.311  1.0316 -2.1625 -2.7671
 9764TIP3    H250708   0.255   2.491  13.283  2.9871  0.0736  0.2356
 9765TIP3   OH250709   4.906   1.189  15.606 -0.4004 -0.3148  0.6127
 9765TIP3    H150710   4.971   1.175  15.675  0.8809  4.0816  0.4756
 9765TIP3    H250711   4.827   1.216  15.652 -0.3320  0.0999  0.4892
 9766TIP3   OH250712   6.237   3.078  12.946 -0.5762  0.3004  0.3083
 9766TIP3    H150713   6.166   3.097  13.007 -0.5727  1.5023 -0.0503
 9766TIP3    H250714   6.308   3.136  12.974  0.3751 -1.0895  0.8376
 9767TIP3   OH250715   0.246   5.389   1.590  0.8509 -0.2135  0.1631
 9767TIP3    H150716   0.332   5.356   1.617  1.3850  0.0028 -1.2204
 9767TIP3    H250717   0.254   5.401   1.495 -0.4868  0.4783  0.1294
 9768TIP3   OH250718   3.217   5.558  13.801 -0.0392  0.1378  0.1355
 9768TIP3    H150719   3.213   5.652  13.816  0.3999  0.0604  0.7468
 9768TIP3    H250720   3.275   5.548  13.726 -1.0745  0.4283 -0.7203
 9769TIP3   OH250721   2.548   2.039   1.202 -0.2371 -0.6546  0.2423
 9769TIP3    H150722   2.588   2.064   1.286 -1.7800  1.1438  0.4750
 9769TIP3    H250723   2.454   2.043   1.218 -0.5882  1.8778 -2.1799
 9770TIP3   OH250724   2.701   3.121  11.968 -0.0104 -0.1929 -0.3984
 9770TIP3    H150725   2.678   3.089  12.056  0.3665 -0.8494 -0.5361
 9770TIP3    H250726   2.796   3.131  11.971 -0.1171  0.8539 -0.3812
 9771TIP3   OH250727   0.343   1.278  17.173  0.0222 -0.2305  0.1333
 9771TIP3    H150728   0.261   1.240  17.205 -0.4153 -0.2568 -1.0051
 9771TIP3    H250729   0.318   1.364  17.139  0.4315 -0.3181 -0.3914
 9772TIP3   OH250730   2.384   0.278   2.085  0.4238 -0.1242 -0.1817
 9772TIP3    H150731   2.304   0.233   2.114 -0.2796  2.5449  2.2534
 9772TIP3    H250732   2.353   0.345   2.024  0.8872  0.2359 -0.0286
 9773TIP3   OH250733   3.837   3.287   3.501  0.7369  0.6418  0.3175
 9773TIP3    H150734   3.897   3.361   3.499  0.8626  0.6076  2.0510
 9773TIP3    H250735   3.753   3.323   3.530  0.2958  0.4334 -0.6734
 9774TIP3   OH250736   4.441   6.119   2.277  0.4550 -0.1505  0.3349
 9774TIP3    H150737   4.467   6.091   2.365  1.1956 -2.1143 -0.4680
 9774TIP3    H250738   4.474   6.208   2.269 -0.2594  0.3048  2.3052
 9775TIP3   OH250739   5.603   5.151  16.919  0.0452 -0.1350  0.7899
 9775TIP3    H150740   5.558   5.232  16.945 -0.1482 -0.9184  2.9471
 9775TIP3    H250741   5.565   5.129  16.834 -3.5055 -0.6269  2.4287
 9776TIP3   OH250742   6.461   3.620  16.836  0.6724  0.0606 -0.0039
 9776TIP3    H150743   6.381   3.579  16.803  1.1399 -1.3642  0.5833
 9776TIP3    H250744   6.431   3.700  16.878 -0.6150 -1.0348  1.2311
 9777TIP3   OH250745   4.110   4.998   0.837 -0.0598 -0.2388 -0.2543
 9777TIP3    H150746   4.060   5.005   0.755 -1.2274  0.5757  0.5059
 9777TIP3    H250747   4.108   5.087   0.873  0.5968 -0.5585  0.5663
 9778TIP3   OH250748   3.947   2.298  15.248  0.0233  0.2277  0.3284
 9778TIP3    H150749   3.930   2.255  15.331  1.3819 -0.2283  0.3802
 9778TIP3    H250750   3.865   2.291  15.199 -0.7548  0.4470  1.5974
 9779TIP3   OH250751   3.141   1.885  14.018 -0.2465  0.1601 -0.1311
 9779TIP3    H150752   3.152   1.850  14.106 -1.0333  0.0976 -0.0555
 9779TIP3    H250753   3.099   1.970  14.030  2.6146  1.6566 -0.2512
 9780TIP3   OH250754   5.050   5.934   2.615  0.2150  0.1591 -0.1648
 9780TIP3    H150755   5.033   5.903   2.526 -1.0463 -0.1764  0.1875
 9780TIP3    H250756   5.011   6.021   2.619 -0.2871 -0.0821  0.2533
 9781TIP3   OH250757   5.388   4.816   1.754  0.3614  0.2157 -0.6179
 9781TIP3    H150758   5.331   4.761   1.700  0.5261  0.2574 -0.8359
 9781TIP3    H250759   5.356   4.804   1.843  0.2741 -0.0830 -0.6890
 9782TIP3   OH250760   1.730   1.977   5.609 -0.1442  0.9995  0.2674
 9782TIP3    H150761   1.663   1.926   5.564  0.6949  0.5396 -0.4663
 9782TIP3    H250762   1.747   2.051   5.552  0.1471  0.9902  0.3411
 9783TIP3   OH250763   4.714   4.193   0.394  0.1761  0.2696  0.3986
 9783TIP3    H150764   4.766   4.148   0.460  0.0281  1.2305  1.1908
 9783TIP3    H250765   4.691   4.277   0.435 -0.8433  0.4189 -0.4577
 9784TIP3   OH250766   5.671   5.916  14.727  0.5672  0.0428  0.0334
 9784TIP3    H150767   5.587   5.962  14.721  0.3469 -0.5718 -2.0585
 9784TIP3    H250768   5.736   5.985  14.739 -0.1179  0.5955  0.6611
 9785TIP3   OH250769   0.205   5.733  16.395 -0.2921 -0.1972 -0.5223
 9785TIP3    H150770   0.265   5.747  16.468 -0.4925  0.8787 -0.5522
 9785TIP3    H250771   0.260   5.741  16.317 -0.3325  0.0504 -0.5269
 9786TIP3   OH250772   1.602   3.629  14.999  0.1402 -0.4666  0.2547
 9786TIP3    H150773   1.609   3.719  15.032 -0.7856 -0.1201 -0.4737
 9786TIP3    H250774   1.536   3.589  15.055 -0.7764 -0.1457 -0.5851
 9787TIP3   OH250775   1.279   3.532   4.869 -0.1375 -0.0607 -0.4068
 9787TIP3    H150776   1.285   3.558   4.961  2.0889  2.3707 -1.1724
 9787TIP3    H250777   1.203   3.579   4.836 -0.3058 -0.0924 -0.0692
 9788TIP3   OH250778   4.643   0.803   2.434 -0.0385 -0.4711  0.2587
 9788TIP3    H150779   4.637   0.895   2.408  0.3622 -0.8768 -1.2939
 9788TIP3    H250780   4.666   0.807   2.527 -0.8996  0.9921  0.4343
 9789TIP3   OH250781   0.615   4.204  15.214 -0.3847 -0.7355  0.0636
 9789TIP3    H150782   0.556   4.184  15.286 -1.1884 -1.5150 -0.8084
 9789TIP3    H250783   0.600   4.135  15.150  0.6010 -0.2659 -0.6944
 9790TIP3   OH250784   2.671   2.598  10.387 -0.3621 -0.1733  0.3707
 9790TIP3    H150785   2.686   2.504  10.391 -1.5257 -0.4873 -1.6976
 9790TIP3    H250786   2.745   2.632  10.336  0.5308  0.1614  1.8799
 9791TIP3   OH250787   3.129   5.979  13.242  0.3879  0.5607  0.0122
 9791TIP3    H150788   3.111   5.925  13.319 -2.1737  3.2724  1.4140
 9791TIP3    H250789   3.218   6.012  13.257  0.5689 -0.3198  0.9324
 9792TIP3   OH250790   0.273   2.946  10.549  0.2961 -0.0037  0.2821
 9792TIP3    H150791   0.263   2.935  10.454 -0.7552  1.1538  0.2369
 9792TIP3    H250792   0.199   2.899  10.586  0.7513 -0.5208  0.5366
 9793TIP3   OH250793   5.425   6.761   4.880 -0.0554 -0.2325  0.0138
 9793TIP3    H150794   5.353   6.705   4.909  0.4799 -0.2547  1.2986
 9793TIP3    H250795   5.388   6.809   4.806 -1.2776 -0.5248  0.4125
 9794TIP3   OH250796   3.698   3.948  17.017  0.0634 -0.0772 -0.2258
 9794TIP3    H150797   3.789   3.978  17.029 -0.2682  0.6162  0.5982
 9794TIP3    H250798   3.689   3.935  16.923  0.1282  2.7189 -0.6603
 9795TIP3   OH250799   3.588   4.274   1.892  0.8495  0.5981  0.3467
 9795TIP3    H150800   3.494   4.264   1.880  0.9029  1.7412 -1.2009
 9795TIP3    H250801   3.610   4.216   1.965 -0.9695 -0.0294  0.4058
 9796TIP3   OH250802   5.952   2.985   4.381 -0.4885  0.4497 -0.3255
 9796TIP3    H150803   5.981   2.977   4.290  0.9028  0.4679  0.1010
 9796TIP3    H250804   6.020   3.037   4.423  0.8581 -2.6856  1.5930
 9797TIP3   OH250805   0.393   4.168  12.651 -0.0396  0.5448 -0.5126
 9797TIP3    H150806   0.327   4.219  12.603  0.0226  0.4463 -0.7050
 9797TIP3    H250807   0.447   4.129  12.582 -1.6236 -1.8443 -0.4661
 9798TIP3   OH250808   3.842   0.993   4.109 -0.4214  0.3957  0.3156
 9798TIP3    H150809   3.764   0.992   4.165  0.1983 -0.0740  1.1919
 9798TIP3    H250810   3.880   1.080   4.124  1.5091 -0.8725  3.1557
 9799TIP3   OH250811   0.687   5.238  12.065 -0.0920 -0.0246 -0.5387
 9799TIP3    H150812   0.674   5.148  12.093  0.8256 -0.0647 -0.2402
 9799TIP3    H250813   0.604   5.281  12.084 -0.8761 -1.0400 -1.6024
 9800TIP3   OH250814   1.841   1.944  14.254 -0.0849 -0.1489  0.3470
 9800TIP3    H150815   1.765   1.911  14.206 -0.1751 -1.1338  1.1440
 9800TIP3    H250816   1.830   2.039  14.255  0.5936  0.0174 -2.7008
 9801TIP3   OH250817   5.127   0.749   3.801 -0.0010  0.1035  0.2939
 9801TIP3    H150818   5.157   0.840   3.801  0.1423  0.0600  1.4394
 9801TIP3    H250819   5.032   0.755   3.795 -0.0752  0.3710  1.5225
 9802TIP3   OH250820   3.553   5.619   0.597 -0.3947  0.3709 -0.7172
 9802TIP3    H150821   3.575   5.663   0.514  1.8680  1.6876  0.5196
 9802TIP3    H250822   3.612   5.544   0.600 -0.6649  0.1704 -0.4227
 9803TIP3   OH250823   0.212   1.927  17.130 -0.2929 -0.3622 -0.4463
 9803TIP3    H150824   0.159   1.862  17.084  2.1667 -1.7531 -1.4024
 9803TIP3    H250825   0.270   1.963  17.063  1.6458 -0.6347  1.0311
 9804TIP3   OH250826   3.254   6.720  14.670 -0.3909  0.2769  0.4149
 9804TIP3    H150827   3.257   6.669  14.751 -0.7959  0.4257  0.5248
 9804TIP3    H250828   3.222   6.659  14.604  0.2654  0.0592  0.2897
 9805TIP3   OH250829   5.920   0.737   3.665  0.1215 -0.5946  0.2090
 9805TIP3    H150830   5.851   0.681   3.701 -2.0970  1.4687 -0.7465
 9805TIP3    H250831   5.875   0.800   3.610  2.7503  1.0425 -0.1843
 9806TIP3   OH250832   1.015   0.007   2.792 -0.3590 -0.0574 -0.3039
 9806TIP3    H150833   0.935   0.017   2.844 -0.6008 -0.1268 -0.6550
 9806TIP3    H250834   1.034   0.095   2.760  1.2286  0.4728  1.9651
 9807TIP3   OH250835   0.892   3.397  12.848  0.3728 -0.3536 -0.7664
 9807TIP3    H150836   0.953   3.468  12.869  0.4414 -1.4022  3.0015
 9807TIP3    H250837   0.817   3.442  12.809  0.4837  1.8632  1.3666
 9808TIP3   OH250838   1.433   4.009  15.995 -0.0352  0.1702  0.1647
 9808TIP3    H150839   1.463   3.984  16.082  0.0280  0.5969  0.2652
 9808TIP3    H250840   1.491   4.081  15.969 -0.2282  0.2267 -0.1168
 9809TIP3   OH250841   3.537   4.292   5.774 -0.0225  0.0242 -0.6777
 9809TIP3    H150842   3.624   4.259   5.798 -1.3070 -1.3488  2.2939
 9809TIP3    H250843   3.500   4.324   5.856 -2.2337  0.9064 -1.9683
 9810TIP3   OH250844   6.141   5.619  11.183  0.1330  0.0230 -0.5488
 9810TIP3    H150845   6.151   5.658  11.096 -0.0170  0.7485 -0.2432
 9810TIP3    H250846   6.069   5.668  11.222 -0.5430 -1.0484 -0.4327
 9811TIP3   OH250847   3.384   2.781  15.979  0.1061  0.2881  0.2353
 9811TIP3    H150848   3.465   2.749  16.019  0.5796 -1.0933 -1.7263
 9811TIP3    H250849   3.378   2.872  16.005  1.6195  0.0517  1.4783
 9812TIP3   OH250850   1.720   1.435  16.997  0.4729  0.0316 -0.2038
 9812TIP3    H150851   1.803   1.480  16.982  1.9165 -1.6575  2.3267
 9812TIP3    H250852   1.735   1.383  17.077 -2.6852 -1.0887 -0.2753
 9813TIP3   OH250853   3.024   5.482  11.868  0.2329 -0.1660  0.8519
 9813TIP3    H150854   3.003   5.429  11.944  2.2447 -0.8925  0.9213
 9813TIP3    H250855   2.970   5.446  11.798 -0.3118 -0.6435  1.5161
 9814TIP3   OH250856   3.190   1.359  10.579  0.1549  0.3118  0.3837
 9814TIP3    H150857   3.099   1.390  10.583  0.8229  2.5099 -0.3645
 9814TIP3    H250858   3.184   1.265  10.593 -2.1919  0.4935  0.8650
 9815TIP3   OH250859   2.324   2.435  16.133 -0.0461 -0.3127 -0.1341
 9815TIP3    H150860   2.389   2.438  16.063  0.5976 -0.2927  0.4520
 9815TIP3    H250861   2.354   2.364  16.190 -0.2911 -0.0040  0.3831
 9816TIP3   OH250862   3.474   5.829  12.393 -0.1996  0.6828 -0.3392
 9816TIP3    H150863   3.383   5.819  12.422  0.0843  1.1163  0.6957
 9816TIP3    H250864   3.522   5.852  12.472  0.4433  2.6679 -1.2818
 9817TIP3   OH250865   1.097   3.596   3.379  0.1919 -0.0858  0.2430
 9817TIP3    H150866   1.008   3.624   3.357  0.8865  1.4887 -0.5848
 9817TIP3    H250867   1.095   3.585   3.474 -1.1082 -0.8432  0.1340
 9818TIP3   OH250868   4.634   2.894  16.985  0.5316 -0.2770  0.5083
 9818TIP3    H150869   4.716   2.916  17.030  0.2302  0.2471  0.7947
 9818TIP3    H250870   4.639   2.941  16.902 -0.2878  1.2048  1.2873
 9819TIP3   OH250871   4.762   1.889   5.705 -0.0921  0.1332 -0.2483
 9819TIP3    H150872   4.770   1.796   5.686  1.0689 -0.0211  0.9128
 9819TIP3    H250873   4.764   1.932   5.620  1.7492 -0.7399 -0.6557
 9820TIP3   OH250874   6.516   2.681   6.375  0.2748  0.2980 -0.0787
 9820TIP3    H150875   6.587   2.697   6.313  0.5308  0.6477  0.2957
 9820TIP3    H250876   6.512   2.586   6.384  0.4571  0.2624 -0.3816
 9821TIP3   OH250877   5.700   5.839  11.611  0.2476 -0.3118 -0.1511
 9821TIP3    H150878   5.639   5.792  11.554 -0.2325 -0.6747  0.6690
 9821TIP3    H250879   5.775   5.780  11.620  1.2082  0.5814 -2.0400
 9822TIP3   OH250880   4.564   6.772   3.877 -0.9675 -0.1076  0.1126
 9822TIP3    H150881   4.567   6.678   3.861 -0.6330 -0.3688  1.6414
 9822TIP3    H250882   4.502   6.806   3.812 -0.3525 -1.2393 -1.0799
 9823TIP3   OH250883   3.993   0.064  14.220 -0.1502 -0.1758  0.2023
 9823TIP3    H150884   3.954  -0.019  14.247 -3.2263  0.5426 -1.8328
 9823TIP3    H250885   4.040   0.095  14.298  0.7702 -3.6249  1.0754
 9824TIP3   OH250886   3.987   1.192  11.133 -0.1771 -0.1078  0.1030
 9824TIP3    H150887   4.013   1.175  11.224  0.5748 -0.2416 -0.1326
 9824TIP3    H250888   3.993   1.107  11.090 -0.5632 -0.0507 -0.0698
 9825TIP3   OH250889   2.086   2.806   2.709 -0.2710  0.2948  0.5523
 9825TIP3    H150890   2.050   2.721   2.683 -0.6405  0.2561  1.1739
 9825TIP3    H250891   2.117   2.792   2.799  1.4301  0.2897 -0.0200
 9826TIP3   OH250892   2.929   2.391  11.251 -0.1822 -0.1930  0.0892
 9826TIP3    H150893   2.905   2.412  11.161  2.7044 -2.0412 -1.1684
 9826TIP3    H250894   2.853   2.343  11.285  0.0610 -2.6078 -2.5609
 9827TIP3   OH250895   3.404   3.341   3.052  0.2931  0.0742 -0.3175
 9827TIP3    H150896   3.329   3.361   2.996 -1.4459  2.9245  2.8637
 9827TIP3    H250897   3.366   3.291   3.125  2.0287 -1.0759 -0.1812
 9828TIP3   OH250898   2.957   1.964   2.460  0.1926  0.3081 -0.1094
 9828TIP3    H150899   2.984   1.998   2.545 -0.9919  1.3600 -0.1324
 9828TIP3    H250900   3.039   1.954   2.411  0.7022  1.8817  0.3759
 9829TIP3   OH250901   5.973   5.686  16.321  0.1723  0.2938  0.0575
 9829TIP3    H150902   5.928   5.733  16.250  0.0323  1.8391  1.1488
 9829TIP3    H250903   5.903   5.652  16.376  0.2941 -0.4804 -0.2461
 9830TIP3   OH250904   1.293   6.588   1.049  0.4131 -0.7558  0.5166
 9830TIP3    H150905   1.364   6.551   0.997 -1.5657 -0.8945 -2.1461
 9830TIP3    H250906   1.289   6.680   1.024 -2.4877 -1.4653 -1.9613
 9831TIP3   OH250907   1.110   1.227  17.124 -0.7069  0.6176  0.2831
 9831TIP3    H150908   1.061   1.249  17.203 -0.0276  1.5066  0.4756
 9831TIP3    H250909   1.175   1.298  17.116 -0.5141  0.3262 -0.8463
 9832TIP3   OH250910   1.847   3.303   6.228  0.0395 -0.2557  0.0404
 9832TIP3    H150911   1.896   3.335   6.304  0.0859  0.7224 -0.4052
 9832TIP3    H250912   1.819   3.382   6.182 -0.5378 -0.8397 -0.6168
 9833TIP3   OH250913   0.494   0.859   5.511  0.2586  0.0418  0.2376
 9833TIP3    H150914   0.568   0.799   5.516  0.3034  0.0310 -0.4599
 9833TIP3    H250915   0.513   0.914   5.435  0.4928  1.3175  1.2177
 9834TIP3   OH250916   1.406   4.678  12.370 -0.2442  0.2454  0.2586
 9834TIP3    H150917   1.412   4.757  12.424 -0.9848  0.3434  0.1913
 9834TIP3    H250918   1.449   4.703  12.287 -0.8104  0.6949  0.0980
 9835TIP3   OH250919   4.699   0.710   3.089 -0.1302 -0.1410  0.3142
 9835TIP3    H150920   4.646   0.644   3.045  2.0318 -1.9075  0.2643
 9835TIP3    H250921   4.741   0.663   3.161  1.4405  1.1601  0.2729
 9836TIP3   OH250922   3.148   1.614  15.463 -0.2995  0.4750  0.3352
 9836TIP3    H150923   3.135   1.575  15.550 -1.8427 -0.3912 -0.2649
 9836TIP3    H250924   3.136   1.708  15.478 -1.8767  0.2137  0.8399
 9837TIP3   OH250925   6.187   4.607  15.530 -0.4260 -0.0194  0.0708
 9837TIP3    H150926   6.111   4.662  15.547 -0.2359  0.0818  0.5916
 9837TIP3    H250927   6.184   4.591  15.435 -0.1549  1.3592 -0.1748
 9838TIP3   OH250928   0.368   5.838   4.557  0.0660  0.7065  0.1926
 9838TIP3    H150929   0.398   5.790   4.480 -1.5288  0.3048 -0.1938
 9838TIP3    H250930   0.289   5.792   4.585 -0.6045  2.1595  0.7497
 9839TIP3   OH250931   5.300   4.075  15.335 -0.5420  0.2975  0.2080
 9839TIP3    H150932   5.375   4.134  15.344 -0.2890 -0.2984  2.3011
 9839TIP3    H250933   5.247   4.114  15.266  1.4830  0.9625 -1.0149
 9840TIP3   OH250934   4.468   5.934   6.135  0.2981  0.1961  0.2241
 9840TIP3    H150935   4.418   5.947   6.055 -1.0994 -1.3998  0.8203
 9840TIP3    H250936   4.430   5.856   6.176  1.4112  0.5946  2.1075
 9841TIP3   OH250937   4.424   0.346  11.778  0.1379 -0.0918 -0.1832
 9841TIP3    H150938   4.472   0.308  11.705  2.6193  3.1339 -0.3573
 9841TIP3    H250939   4.356   0.400  11.737  0.3465  0.2633 -0.0628
 9842TIP3   OH250940   3.665   6.579   6.304 -0.3795 -0.4834  0.2306
 9842TIP3    H150941   3.760   6.590   6.290 -0.6212  1.4783 -0.0530
 9842TIP3    H250942   3.659   6.530   6.385  0.8854  0.7103  1.0789
 9843TIP3   OH250943   0.660   3.573  10.568 -0.2544  0.6000  0.2908
 9843TIP3    H150944   0.740   3.555  10.619  0.9964  2.7799 -0.8258
 9843TIP3    H250945   0.683   3.546  10.479 -1.4848 -0.6304  0.3363
 9844TIP3   OH250946   2.042   1.767   4.958  0.6266 -0.1729 -0.1513
 9844TIP3    H150947   2.128   1.808   4.964  0.6599 -0.4194  1.5507
 9844TIP3    H250948   1.994   1.819   4.894  1.3078  1.3495  0.5545
 9845TIP3   OH250949   2.709   1.447   0.105 -0.3449 -0.3134  0.1173
 9845TIP3    H150950   2.627   1.443   0.055 -0.5718  0.8524  0.3768
 9845TIP3    H250951   2.684   1.488   0.188  0.6418  0.7589 -0.1038
 9846TIP3   OH250952   1.038   1.222   1.428  0.0508  0.3281  0.0888
 9846TIP3    H150953   1.066   1.277   1.502 -3.1290  0.5532  1.2003
 9846TIP3    H250954   0.975   1.276   1.381  1.2508 -0.2381 -2.2172
 9847TIP3   OH250955   3.141   0.504  14.554  0.5820  0.0829  0.3460
 9847TIP3    H150956   3.187   0.427  14.586 -0.8458 -1.0923 -0.3604
 9847TIP3    H250957   3.094   0.537  14.631  0.5835 -0.2094  0.4747
 9848TIP3   OH250958   1.676   1.630   5.294  0.0520 -0.2916  0.3122
 9848TIP3    H150959   1.728   1.565   5.341 -0.6247  0.6593  2.4569
 9848TIP3    H250960   1.740   1.681   5.245  0.7398 -1.5319 -0.0993
 9849TIP3   OH250961   1.747   5.641  12.785 -0.9701 -0.4734  0.1341
 9849TIP3    H150962   1.791   5.725  12.803 -3.0081  0.6355  0.0693
 9849TIP3    H250963   1.770   5.621  12.695  0.5745 -0.6447  0.5511
 9850TIP3   OH250964   0.767   6.069  13.878  0.4780 -0.0076 -0.2279
 9850TIP3    H150965   0.738   6.139  13.937  1.4715  0.6180 -0.4725
 9850TIP3    H250966   0.699   6.002  13.886  0.5407  0.1107  1.5605
 9851TIP3   OH250967   0.051   2.465   1.778  0.3255  0.2443  0.3917
 9851TIP3    H150968   0.032   2.437   1.868  0.5066 -1.2100 -0.0121
 9851TIP3    H250969   0.146   2.474   1.776  0.4057 -0.6670  0.0779
 9852TIP3   OH250970   5.814   0.404  12.631  0.2123 -0.6646  0.0151
 9852TIP3    H150971   5.791   0.328  12.684 -0.0318 -0.6419 -0.0621
 9852TIP3    H250972   5.910   0.405  12.633  0.2905 -2.2812 -1.8505
 9853TIP3   OH250973   1.856   4.323  12.773 -0.0056  0.2766  0.3144
 9853TIP3    H150974   1.840   4.371  12.855 -0.1225  0.5944  0.1055
 9853TIP3    H250975   1.905   4.245  12.800  0.7550  0.8400  0.5801
 9854TIP3   OH250976   3.750   3.819  10.110 -0.4439  0.3576 -0.0881
 9854TIP3    H150977   3.773   3.856  10.195 -0.5077  1.2128 -0.4388
 9854TIP3    H250978   3.711   3.734  10.131  0.2737  0.2120  0.6818
 9855TIP3   OH250979   1.285   1.979  13.840  0.4675 -0.3222  0.3108
 9855TIP3    H150980   1.288   2.070  13.809  2.7888 -0.6434 -0.4863
 9855TIP3    H250981   1.192   1.958  13.842 -0.1929  2.4883  1.7615
 9856TIP3   OH250982   6.612   0.425  16.534  0.2842 -0.1340 -0.0455
 9856TIP3    H150983   6.559   0.487  16.585 -1.2494 -0.9848 -0.5753
 9856TIP3    H250984   6.565   0.342  16.541  0.2606 -0.3559 -2.5283
 9857TIP3   OH250985   5.018   0.000  15.945  0.1159  0.2110 -0.5884
 9857TIP3    H150986   4.938   0.053  15.943 -0.9605 -1.4507 -2.5268
 9857TIP3    H250987   5.056   0.010  15.858  1.4726  0.1347 -0.0148
 9858TIP3   OH250988   0.975   2.812  11.042 -0.6709  0.0677  0.6469
 9858TIP3    H150989   0.951   2.896  11.080 -2.3906 -0.5291  0.9277
 9858TIP3    H250990   0.912   2.799  10.971  0.0217 -0.6550  0.1628
 9859TIP3   OH250991   3.897   5.715   0.995 -0.5060  0.1841  0.1744
 9859TIP3    H150992   3.876   5.630   0.956  1.1633  0.2453 -0.9050
 9859TIP3    H250993   3.942   5.694   1.077 -0.1387  0.0374 -0.0681
 9860TIP3   OH250994   6.190   5.921   5.084  0.3885 -0.4311  0.2622
 9860TIP3    H150995   6.148   5.892   5.003  1.0639 -0.2488 -0.1542
 9860TIP3    H250996   6.149   6.005   5.104 -0.3559 -0.8551  0.5506
 9861TIP3   OH250997   1.218   0.319   4.817  0.0177 -0.2764 -0.1412
 9861TIP3    H150998   1.283   0.313   4.887  0.5906  2.9490 -0.3251
 9861TIP3    H250999   1.134   0.324   4.862  0.3658  1.4937  0.3231
 9862TIP3   OH251000   4.229   1.051  15.122  0.0271 -0.4408 -0.1263
 9862TIP3    H151001   4.311   1.100  15.119  1.4668 -2.7742 -0.3178
 9862TIP3    H251002   4.256   0.959  15.122 -2.5575 -1.2511  1.1479
 9863TIP3   OH251003   3.211   5.424  16.246  0.2353 -0.1011  0.0695
 9863TIP3    H151004   3.141   5.398  16.186  1.8298 -1.6902 -1.1431
 9863TIP3    H251005   3.223   5.348  16.304 -0.4752  0.9698  1.6697
 9864TIP3   OH251006   1.327   2.397   4.761  0.0034  0.4815  0.7381
 9864TIP3    H151007   1.237   2.412   4.791  0.3660  0.2070  1.9748
 9864TIP3    H251008   1.336   2.302   4.760 -0.0400  0.4773 -0.3908
 9865TIP3   OH251009   5.473   2.759   3.467  0.3023 -0.2909 -0.2004
 9865TIP3    H151010   5.504   2.808   3.544 -2.0383  1.1226 -0.1112
 9865TIP3    H251011   5.462   2.669   3.499  0.7839 -0.0312  0.7235
 9866TIP3   OH251012   1.964   6.249   4.412 -0.2762  0.2050 -0.1734
 9866TIP3    H151013   2.040   6.203   4.377  0.0640  1.3341 -0.9497
 9866TIP3    H251014   2.000   6.322   4.462 -0.8099 -0.4190  1.1486
 9867TIP3   OH251015   0.807   3.172   1.418 -0.6095  0.8344  0.5609
 9867TIP3    H151016   0.869   3.184   1.346 -0.7582 -0.9983  0.0987
 9867TIP3    H251017   0.734   3.124   1.379 -1.2785  0.9536  1.6370
 9868TIP3   OH251018   2.701   6.293   3.249  0.8229 -0.1866  0.1344
 9868TIP3    H151019   2.704   6.217   3.191 -1.5019 -0.7384  0.6882
 9868TIP3    H251020   2.665   6.363   3.195 -0.5186 -0.4714  0.6363
 9869TIP3   OH251021   5.423   5.735  15.343 -0.2325 -0.3229  0.2239
 9869TIP3    H151022   5.467   5.674  15.284 -1.7745 -0.6145 -0.6362
 9869TIP3    H251023   5.486   5.806  15.356  1.6098 -2.0981  1.2849
 9870TIP3   OH251024   4.851   3.302  11.464  0.4047  0.3672 -0.1885
 9870TIP3    H151025   4.795   3.340  11.531  0.2134 -0.2960  0.0360
 9870TIP3    H251026   4.847   3.363  11.391  1.5722  1.7014  0.8474
 9871TIP3   OH251027   6.445   2.133   3.260 -0.8456 -0.1416  0.0029
 9871TIP3    H151028   6.375   2.068   3.268 -0.4801 -0.8928 -2.4571
 9871TIP3    H251029   6.399   2.217   3.258 -1.8761 -0.7133 -3.2592
 9872TIP3   OH251030   1.785   2.315  14.018  0.0398 -0.1663  0.6340
 9872TIP3    H151031   1.695   2.286  14.003  0.5822 -1.1568 -0.8976
 9872TIP3    H251032   1.835   2.275  13.947  1.5251  1.1834  0.8769
 9873TIP3   OH251033   4.400   4.741   3.357  0.0707  0.0925  0.2268
 9873TIP3    H151034   4.354   4.728   3.274  0.6387  1.7075 -0.3637
 9873TIP3    H251035   4.493   4.736   3.334  0.2221 -0.1689  0.8852
 9874TIP3   OH251036   3.729   3.657  14.607 -0.3693 -0.5340 -0.0031
 9874TIP3    H151037   3.806   3.712  14.594  0.7573 -1.6161  1.8267
 9874TIP3    H251038   3.743   3.581  14.550 -1.7021  0.7903 -2.1739
 9875TIP3   OH251039   1.693   1.561  12.073 -0.7830 -0.0073  0.0880
 9875TIP3    H151040   1.641   1.514  12.007 -0.8556 -0.2080  0.2898
 9875TIP3    H251041   1.661   1.529  12.157 -0.3909 -0.0678  0.2139
 9876TIP3   OH251042   4.686   0.675   0.169  0.1147 -0.4180  0.7065
 9876TIP3    H151043   4.725   0.641   0.088  0.6210  1.1838  0.2584
 9876TIP3    H251044   4.723   0.621   0.238 -0.2421 -1.7419 -0.1207
 9877TIP3   OH251045   1.643   2.739  12.086 -0.0704  0.0903 -0.5860
 9877TIP3    H151046   1.636   2.768  11.995 -1.5654 -0.2999 -0.6110
 9877TIP3    H251047   1.675   2.649  12.082  1.4174  0.6060 -0.6432
 9878TIP3   OH251048   1.398   3.310  14.679 -0.2571 -0.7329  0.5191
 9878TIP3    H151049   1.356   3.378  14.627 -1.4827  0.5269  3.0596
 9878TIP3    H251050   1.374   3.228  14.636 -2.1277  0.1983 -0.2662
 9879TIP3   OH251051   5.932   0.869  13.151  0.2580 -0.4101  0.2459
 9879TIP3    H151052   5.865   0.855  13.217  0.1343  1.8683  0.6448
 9879TIP3    H251053   5.991   0.794  13.160 -2.6176 -2.8600 -0.6393
 9880TIP3   OH251054   5.256   2.051   2.948 -0.0408 -0.1348 -0.5864
 9880TIP3    H151055   5.174   2.008   2.975 -1.3272  1.6968 -1.5126
 9880TIP3    H251056   5.270   2.020   2.859 -0.5990  0.8022 -1.0059
 9881TIP3   OH251057   4.038   5.181  12.319  0.5211  0.1271 -0.2068
 9881TIP3    H151058   4.077   5.257  12.363  0.2650 -0.4964  1.1108
 9881TIP3    H251059   4.101   5.111  12.333 -0.1573 -0.3926  0.2562
 9882TIP3   OH251060   1.403   6.139   4.683  0.5048  0.9098 -0.1752
 9882TIP3    H151061   1.328   6.079   4.680  2.2928 -1.5203  1.3123
 9882TIP3    H251062   1.369   6.219   4.722 -1.4649  0.0384 -0.0544
 9883TIP3   OH251063   1.157   5.784  15.105 -0.2235  0.1789 -0.1601
 9883TIP3    H151064   1.224   5.841  15.144 -0.4940  0.4170 -0.0349
 9883TIP3    H251065   1.202   5.701  15.089 -0.4274 -0.3671  1.8979
 9884TIP3   OH251066   0.580   1.833   6.712 -0.3263 -0.5845 -0.0435
 9884TIP3    H151067   0.520   1.908   6.709  0.0690 -0.2496  0.3734
 9884TIP3    H251068   0.664   1.869   6.683 -0.4207 -1.1513 -1.0700
 9885TIP3   OH251069   5.100   4.073   5.784  0.0949 -0.3364  0.2262
 9885TIP3    H151070   5.182   4.026   5.773  0.8620  1.0591 -0.0421
 9885TIP3    H251071   5.124   4.152   5.833 -0.9333  0.5291 -0.6512
 9886TIP3   OH251072   4.298   2.472   2.180  0.3810 -0.3348 -0.4098
 9886TIP3    H151073   4.331   2.542   2.236 -1.3083 -0.1342  0.3637
 9886TIP3    H251074   4.354   2.397   2.198  2.8626  1.0755 -1.9907
 9887TIP3   OH251075   2.604   0.999   3.430  0.5850  0.0875  0.1799
 9887TIP3    H151076   2.542   0.992   3.357 -0.1076  0.2744  0.7567
 9887TIP3    H251077   2.669   0.930   3.412  0.3611  0.0619 -0.5567
 9888TIP3   OH251078   3.381   2.607  14.802 -0.0377  0.5838  0.2191
 9888TIP3    H151079   3.366   2.535  14.740  1.3248  1.1572 -0.8185
 9888TIP3    H251080   3.356   2.571  14.887  0.5586 -1.1055 -0.2914
 9889TIP3   OH251081   3.362   3.514   5.398 -0.0506 -0.2119 -0.4370
 9889TIP3    H151082   3.376   3.422   5.420  1.3494 -0.3902 -1.9833
 9889TIP3    H251083   3.267   3.522   5.386 -0.1784 -1.4509 -0.2947
 9890TIP3   OH251084   3.663   1.119   1.170  0.7025  0.0944 -0.0314
 9890TIP3    H151085   3.660   1.029   1.140  1.0005 -0.0355  0.3147
 9890TIP3    H251086   3.703   1.167   1.098  0.5974 -0.0622 -0.1924
 9891TIP3   OH251087   2.385   2.128   4.112 -0.1909 -0.4245  0.2143
 9891TIP3    H151088   2.376   2.115   4.018 -0.2821 -1.9039  0.4174
 9891TIP3    H251089   2.350   2.048   4.151  0.1569  0.0324  1.4956
 9892TIP3   OH251090   0.384   1.447   1.586 -0.2422 -0.4109 -0.1963
 9892TIP3    H151091   0.473   1.478   1.571 -0.9657  1.5306 -0.6678
 9892TIP3    H251092   0.386   1.354   1.562  1.8507 -0.6092  0.6528
 9893TIP3   OH251093   3.115   4.487   5.806  0.0646 -0.2082 -0.0440
 9893TIP3    H151094   3.138   4.400   5.773  2.7624  0.2590  0.4386
 9893TIP3    H251095   3.160   4.493   5.890 -0.3068  1.5515  0.0521
 9894TIP3   OH251096   3.073   2.494  14.791  0.5010 -0.6893 -0.9214
 9894TIP3    H151097   3.153   2.499  14.739  1.2073  0.7446  0.2347
 9894TIP3    H251098   3.087   2.559  14.861 -1.2774 -1.0953 -0.1734
 9895TIP3   OH251099   6.192   3.839  13.764 -0.4905 -0.1612  0.5334
 9895TIP3    H151100   6.140   3.804  13.691 -0.8696  1.0249  0.2255
 9895TIP3    H251101   6.212   3.929  13.738  0.8048 -0.2658  1.1426
 9896TIP3   OH251102   3.301   6.673  11.685  0.3209 -0.2608 -0.0072
 9896TIP3    H151103   3.393   6.648  11.694  0.5760  0.5058 -0.4457
 9896TIP3    H251104   3.282   6.722  11.765 -0.4381 -2.5970  1.2846
 9897TIP3   OH251105   4.347   5.699   6.205 -0.4653 -0.2266 -0.4248
 9897TIP3    H151106   4.278   5.658   6.152 -0.5175  1.4219 -1.6817
 9897TIP3    H251107   4.362   5.637   6.277 -0.6670 -2.3323 -2.1395
 9898TIP3   OH251108   2.409   2.325  11.139 -0.2032  0.7025  0.1449
 9898TIP3    H151109   2.386   2.250  11.084 -0.2226  1.6815 -1.2192
 9898TIP3    H251110   2.484   2.365  11.094  0.2674  1.0805  1.2532
 9899TIP3   OH251111   2.699   4.265   0.615 -0.6004 -0.3213  0.2029
 9899TIP3    H151112   2.704   4.286   0.521  1.5852 -1.1231  0.1159
 9899TIP3    H251113   2.611   4.292   0.641 -0.8902  0.8077 -1.8675
 9900TIP3   OH251114   3.292   5.021  16.568 -0.0922  0.1751  0.2422
 9900TIP3    H151115   3.247   5.056  16.490 -2.1119  0.0192  1.2972
 9900TIP3    H251116   3.317   5.099  16.618  1.0370  0.2711 -0.4698
 9901TIP3   OH251117   5.805   0.148   1.329  0.1141 -0.0708  0.5551
 9901TIP3    H151118   5.867   0.193   1.272 -2.2824  0.4620 -1.7458
 9901TIP3    H251119   5.859   0.088   1.381  2.6373  1.0712 -0.6698
 9902TIP3   OH251120   4.774   1.494  13.070  0.2817 -0.4278 -0.4326
 9902TIP3    H151121   4.823   1.419  13.104 -0.0873 -0.8813 -0.8806
 9902TIP3    H251122   4.829   1.528  12.999  0.4533 -0.2706 -0.2240
 9903TIP3   OH251123   3.722   4.944  11.514  0.1292 -0.0642 -0.3650
 9903TIP3    H151124   3.643   4.984  11.551 -0.0830 -0.9634  0.1600
 9903TIP3    H251125   3.690   4.890  11.442  0.3058 -0.1330 -0.3903
 9904TIP3   OH251126   0.217   6.545   1.337  0.0225  0.1396 -0.1864
 9904TIP3    H151127   0.194   6.464   1.291  1.5190  0.4103 -1.4418
 9904TIP3    H251128   0.211   6.614   1.271 -1.7582  1.1566  1.0027
 9905TIP3   OH251129   4.856   0.417   1.943 -1.0525 -0.1119 -0.5456
 9905TIP3    H151130   4.888   0.507   1.955 -0.1511 -0.4536 -0.3142
 9905TIP3    H251131   4.859   0.380   2.031 -0.8081 -0.5628 -0.7439
 9906TIP3   OH251132   5.594   0.969   1.769 -0.3801  0.5595 -0.6193
 9906TIP3    H151133   5.600   1.064   1.762 -1.3378  0.5924 -0.9820
 9906TIP3    H251134   5.573   0.939   1.681 -0.0599  0.0045 -0.5110
 9907TIP3   OH251135   4.689   3.114   1.539  0.1500 -1.1983  0.3537
 9907TIP3    H151136   4.692   3.056   1.615  1.9168  0.5490  1.6453
 9907TIP3    H251137   4.735   3.193   1.566 -0.8091  0.2081 -1.9162
 9908TIP3   OH251138   6.273   2.415   1.758  0.2157  0.0661  0.1330
 9908TIP3    H151139   6.203   2.365   1.800 -0.0543 -0.5164 -0.9823
 9908TIP3    H251140   6.294   2.485   1.821 -0.0616 -0.8747  1.2909
 9909TIP3   OH251141   3.368   2.727  14.174 -0.1224  0.4144 -0.1583
 9909TIP3    H151142   3.364   2.754  14.266 -0.4764 -0.1809  0.0036
 9909TIP3    H251143   3.330   2.800  14.126 -0.3928  0.5182  0.2133
 9910TIP3   OH251144   0.097   1.676   4.167  0.1403 -0.4256 -0.4303
 9910TIP3    H151145   0.162   1.710   4.106 -0.6115  0.9080 -0.5166
 9910TIP3    H251146   0.013   1.707   4.132 -0.2337  1.0675  1.7299
 9911TIP3   OH251147   6.042   1.307   2.709  0.1356  0.1030 -0.2242
 9911TIP3    H151148   6.101   1.253   2.657 -0.2322  1.8070 -2.4806
 9911TIP3    H251149   5.959   1.303   2.662  0.2000  2.8867 -0.6049
 9912TIP3   OH251150   6.726   1.309  13.765  0.1818  0.7379 -0.0337
 9912TIP3    H151151   6.673   1.255  13.825  1.7092  0.8976  1.4820
 9912TIP3    H251152   6.671   1.385  13.747 -1.1251 -0.2793 -0.4950
 9913TIP3   OH251153   1.161   4.304  13.754 -0.1353 -0.0378 -0.4471
 9913TIP3    H151154   1.191   4.217  13.728 -1.1876 -0.2349 -1.0109
 9913TIP3    H251155   1.242   4.353  13.773  0.4235 -2.0956  3.0350
 9914TIP3   OH251156   4.663   4.945   6.258 -0.0627 -0.0765  0.3931
 9914TIP3    H151157   4.637   4.970   6.169 -2.6154  0.6292  1.2891
 9914TIP3    H251158   4.758   4.938   6.254 -0.0168  1.2945 -2.0532
 9915TIP3   OH251159   2.548   6.607  17.202  0.2389  0.0676 -0.1379
 9915TIP3    H151160   2.520   6.529  17.249 -1.6011  1.0146  0.3827
 9915TIP3    H251161   2.550   6.580  17.110  0.1179 -0.7291  0.0896
 9916TIP3   OH251162   2.457   3.378  14.524  0.0626  0.1773 -0.3608
 9916TIP3    H151163   2.406   3.304  14.558 -0.0428 -0.5770 -2.1100
 9916TIP3    H251164   2.420   3.394  14.437  0.7900  1.6061 -0.4139
 9917TIP3   OH251165   5.787   1.769   1.030  0.6290  0.1539 -0.1058
 9917TIP3    H151166   5.725   1.837   1.002 -2.1567 -2.0022  0.5852
 9917TIP3    H251167   5.800   1.716   0.952  1.2662  0.3501 -0.1304
 9918TIP3   OH251168   6.780   1.423  16.028  0.3627 -0.7516 -0.7392
 9918TIP3    H151169   6.711   1.357  16.027 -0.0899 -0.2733 -1.1189
 9918TIP3    H251170   6.734   1.507  16.028  0.9117 -0.4197  0.8365
 9919TIP3   OH251171   4.138   0.427  16.471  0.2042  0.3017  0.3135
 9919TIP3    H151172   4.052   0.385  16.464 -0.1993  0.9839  1.1052
 9919TIP3    H251173   4.154   0.433  16.566 -0.0488  2.5202  0.2469
 9920TIP3   OH251174   2.974   0.656  13.281  0.1106 -0.0871 -0.2530
 9920TIP3    H151175   2.914   0.692  13.216 -0.0057 -0.5400 -0.4010
 9920TIP3    H251176   2.936   0.681  13.365 -0.3800 -0.5161 -0.3418
 9921TIP3   OH251177   5.393   5.799   2.430 -0.1010 -0.0732  0.1842
 9921TIP3    H151178   5.343   5.721   2.455 -0.1492 -0.1699 -0.2087
 9921TIP3    H251179   5.340   5.841   2.362 -0.3092  0.5648  0.7319
 9922TIP3   OH251180   4.954   3.498   3.070 -0.4361  0.0259 -0.7928
 9922TIP3    H151181   4.905   3.547   3.004 -0.9368 -1.2916 -1.4090
 9922TIP3    H251182   4.900   3.501   3.149  0.5972  2.4142 -0.1285
 9923TIP3   OH251183   2.950   4.691  12.662  0.4677  0.5843  0.2218
 9923TIP3    H151184   3.012   4.750  12.704 -1.4371  1.2240  2.2565
 9923TIP3    H251185   2.866   4.737  12.668 -0.5304 -1.0595 -0.7841
 9924TIP3   OH251186   6.020   6.000  15.916 -0.3005 -0.2166  0.1967
 9924TIP3    H151187   5.972   5.959  15.987 -0.6570 -0.8357 -0.3912
 9924TIP3    H251188   5.973   5.974  15.837  1.1672 -1.1101 -0.4208
 9925TIP3   OH251189   1.098   1.253  14.394 -0.3450 -0.0738 -0.3167
 9925TIP3    H151190   1.072   1.312  14.465  1.2541  0.7467 -0.3950
 9925TIP3    H251191   1.025   1.256  14.332 -1.0253  0.4972  0.5026
 9926TIP3   OH251192   1.568   4.834  15.751 -0.0703  0.3926  0.4864
 9926TIP3    H151193   1.532   4.749  15.774  1.1670  0.2353  1.9014
 9926TIP3    H251194   1.661   4.818  15.736 -0.2017  1.1285 -1.3092
 9927TIP3   OH251195   3.973   4.654   0.321 -0.6137  0.2992  0.1792
 9927TIP3    H151196   4.007   4.726   0.374  0.2607  0.0862 -0.0742
 9927TIP3    H251197   4.044   4.589   0.321 -0.6771  0.2168 -1.0768
 9928TIP3   OH251198   6.605   2.362  17.120 -0.2148 -0.1064 -0.7529
 9928TIP3    H151199   6.651   2.411  17.188  1.1666  0.1204 -1.8043
 9928TIP3    H251200   6.675   2.317  17.072 -1.3655 -2.3092 -0.4419
 9929TIP3   OH251201   5.841   1.704   0.266 -0.3200 -0.1662  0.1888
 9929TIP3    H151202   5.890   1.670   0.191 -0.0636 -0.1238  0.3363
 9929TIP3    H251203   5.891   1.780   0.295 -0.7984  0.2335 -0.0323
 9930TIP3   OH251204   3.803   5.018  11.110 -0.4450 -0.5413  0.1798
 9930TIP3    H151205   3.735   4.954  11.090  0.8447 -2.0154  0.5086
 9930TIP3    H251206   3.822   5.059  11.026 -0.5107 -1.3441 -0.2301
 9931TIP3   OH251207   1.782   1.495  14.437 -0.1325  0.0783  0.7582
 9931TIP3    H151208   1.726   1.442  14.494 -2.2131  1.3468 -0.0257
 9931TIP3    H251209   1.838   1.432  14.392  0.0901 -1.1035  2.6500
 9932TIP3   OH251210   3.782   3.216   2.714 -0.3121  0.0838  0.0320
 9932TIP3    H151211   3.835   3.187   2.640 -0.8756 -0.4515 -0.1721
 9932TIP3    H251212   3.738   3.136   2.744 -0.4868  0.3968  0.6134
 9933TIP3   OH251213   4.695   2.494   2.306  0.5359  0.7982 -0.6506
 9933TIP3    H151214   4.689   2.570   2.363 -0.0497  0.4121 -0.1959
 9933TIP3    H251215   4.668   2.527   2.220 -0.0383  1.0370 -0.3876
 9934TIP3   OH251216   5.803   5.197   3.439 -0.1943 -0.0554 -0.2708
 9934TIP3    H151217   5.823   5.228   3.528  0.7006 -0.1811 -0.4228
 9934TIP3    H251218   5.806   5.276   3.385  2.1879 -0.3639 -0.6763
 9935TIP3   OH251219   5.923   0.346   2.694  0.2005  0.1116  1.3290
 9935TIP3    H151220   5.932   0.254   2.719 -1.6646 -0.7115 -0.8230
 9935TIP3    H251221   5.921   0.344   2.599  1.7242  2.5772  1.2144
 9936TIP3   OH251222   6.414   1.464  11.432  0.1281 -0.1642  0.3801
 9936TIP3    H151223   6.368   1.492  11.353 -2.7278  0.2233  2.1483
 9936TIP3    H251224   6.426   1.544  11.482 -0.7044 -0.8430  1.6789
 9937TIP3   OH251225   3.860   5.401   3.080  0.1094 -0.2343  0.4021
 9937TIP3    H151226   3.822   5.313   3.079 -1.6756  0.4949  1.0652
 9937TIP3    H251227   3.789   5.457   3.113  0.6827  1.6924 -1.5227
 9938TIP3   OH251228   2.959   1.751   1.295 -0.0121 -0.4444  0.1705
 9938TIP3    H151229   3.046   1.788   1.283 -0.0091 -0.8136 -0.9988
 9938TIP3    H251230   2.929   1.729   1.207 -0.9334 -1.1294  0.6357
 9939TIP3   OH251231   0.556   1.811  11.865 -0.4932  0.1290 -0.2594
 9939TIP3    H151232   0.520   1.893  11.899  0.4878  1.2699 -1.8944
 9939TIP3    H251233   0.635   1.838  11.816 -1.2693 -1.5323 -2.5135
 9940TIP3   OH251234   4.068   6.720   2.336 -0.3038 -0.0422 -0.0747
 9940TIP3    H151235   3.992   6.669   2.307 -0.8010  0.2906  0.6338
 9940TIP3    H251236   4.093   6.770   2.258 -1.3888  0.5434 -0.0549
 9941TIP3   OH251237   0.904   6.321   4.932  0.3238  0.3015  0.0071
 9941TIP3    H151238   0.979   6.351   4.881 -0.1164 -1.1479 -1.5381
 9941TIP3    H251239   0.911   6.226   4.931 -1.5501  0.1474 -0.1823
 9942TIP3   OH251240   4.264   3.026  10.753 -0.1811  0.5884  0.0537
 9942TIP3    H151241   4.290   3.084  10.681  0.7247  0.6854  0.4552
 9942TIP3    H251242   4.265   2.938  10.715 -2.3571  0.9107 -0.7758
 9943TIP3   OH251243   3.630   2.315  16.411 -0.0506 -0.0807 -0.3814
 9943TIP3    H151244   3.606   2.233  16.454 -0.8048 -0.0887 -0.8090
 9943TIP3    H251245   3.705   2.347  16.461  0.0905 -0.9018 -0.0582
 9944TIP3   OH251246   0.487   3.596  15.495  0.3337 -0.0889  0.0301
 9944TIP3    H151247   0.532   3.597  15.580 -1.2861  0.1348  0.9206
 9944TIP3    H251248   0.402   3.638  15.513  0.2239  0.5387 -1.8512
 9945TIP3   OH251249   1.021   6.775   1.831  0.3692  0.3521  0.2926
 9945TIP3    H151250   0.939   6.804   1.873  1.0300  0.8815  1.2467
 9945TIP3    H251251   1.081   6.760   1.904  1.0055 -0.4371 -0.3802
 9946TIP3   OH251252   3.913   4.028  16.028 -0.0865  0.6427  0.4249
 9946TIP3    H151253   3.944   3.983  15.950  0.3996  1.4989  0.1238
 9946TIP3    H251254   3.832   3.982  16.052 -1.5060  1.8411 -1.9376
 9947TIP3   OH251255   2.476   1.876  13.388  0.0359 -0.3097 -0.0956
 9947TIP3    H151256   2.422   1.950  13.359  1.5576  0.8075 -0.1515
 9947TIP3    H251257   2.543   1.915  13.444  0.0751 -1.8332  0.9471
 9948TIP3   OH251258   5.946   6.356  14.914  0.3772  0.1027  0.2337
 9948TIP3    H151259   5.962   6.449  14.896  1.9281 -0.4699 -1.4428
 9948TIP3    H251260   6.006   6.336  14.986  0.7924  0.1517 -0.0950
 9949TIP3   OH251261   1.375   1.659  13.309  0.2280 -0.2168  0.4001
 9949TIP3    H151262   1.418   1.589  13.357 -0.1443 -0.3587  0.5241
 9949TIP3    H251263   1.378   1.734  13.369  1.4402  0.1342 -0.0820
 9950TIP3   OH251264   0.465   2.955   0.812  0.0252  0.4248  0.0667
 9950TIP3    H151265   0.399   3.017   0.844 -0.5338  0.0883 -0.4140
 9950TIP3    H251266   0.537   2.963   0.873 -0.0835  1.4839  0.0666
 9951TIP3   OH251267   5.434   0.789   3.576  0.1285 -0.4585  0.1735
 9951TIP3    H151268   5.396   0.716   3.526  1.1772 -0.7290 -0.2376
 9951TIP3    H251269   5.459   0.853   3.509 -0.5490  0.1712  0.5180
 9952TIP3   OH251270   0.244   4.425  16.580 -0.3745  0.3207 -0.0220
 9952TIP3    H151271   0.194   4.458  16.506 -0.5577 -0.9626 -0.4677
 9952TIP3    H251272   0.306   4.363  16.542 -0.1401  0.0238  0.8359
 9953TIP3   OH251273   3.520   0.671  14.016  0.1933 -0.5327 -0.3908
 9953TIP3    H151274   3.528   0.750  13.963  1.0038 -0.7742 -0.6421
 9953TIP3    H251275   3.597   0.619  13.993 -1.2197 -2.1804 -1.5357
 9954TIP3   OH251276   5.669   5.358   1.573  0.6419 -0.0535 -0.1662
 9954TIP3    H151277   5.578   5.387   1.585  1.0751  2.1772 -1.8545
 9954TIP3    H251278   5.700   5.340   1.662 -1.3199 -0.4344  0.4659
 9955TIP3   OH251279   2.744   0.739   5.798  0.2477  0.5407  0.4487
 9955TIP3    H151280   2.652   0.741   5.826  0.1503 -0.5392  0.2269
 9955TIP3    H251281   2.759   0.825   5.759  0.1501  1.7933  3.0762
 9956TIP3   OH251282   0.684   2.816  11.849  0.6872  0.0688 -0.0541
 9956TIP3    H151283   0.701   2.860  11.933  2.0406 -1.0027  0.2568
 9956TIP3    H251284   0.725   2.730  11.859  1.2299  0.0869 -1.9807
 9957TIP3   OH251285   5.229   3.014   5.194 -0.2101  0.1671 -0.2339
 9957TIP3    H151286   5.223   3.109   5.200 -0.4468  0.2121 -1.0766
 9957TIP3    H251287   5.208   2.994   5.102  1.1423 -0.5975 -0.3982
 9958TIP3   OH251288   5.337   5.212   3.797  0.0986 -0.6326  0.2639
 9958TIP3    H151289   5.411   5.172   3.752 -0.1846 -0.2040 -0.5819
 9958TIP3    H251290   5.333   5.301   3.763 -2.5058 -1.4713 -1.7627
 9959TIP3   OH251291   4.869   0.737  12.282  0.0086  1.3330 -0.3281
 9959TIP3    H151292   4.824   0.710  12.202  1.1576 -1.5302 -0.0604
 9959TIP3    H251293   4.959   0.707  12.270  0.0161  0.1757  2.3505
 9960TIP3   OH251294   3.933   2.510   1.534 -0.1699  0.3435 -0.8885
 9960TIP3    H151295   4.028   2.502   1.526  0.1919  1.8854  1.3480
 9960TIP3    H251296   3.898   2.443   1.476  2.3032 -0.9860 -0.9073
 9961TIP3   OH251297   4.349   0.938  15.475  0.1564 -0.3922 -0.9256
 9961TIP3    H151298   4.282   0.919  15.409  0.0763 -0.3877 -0.8460
 9961TIP3    H251299   4.422   0.880  15.453 -0.7076 -1.9850  0.2931
 9962TIP3   OH251300   3.667   6.019   4.732 -0.0381 -0.0451 -0.4210
 9962TIP3    H151301   3.601   6.070   4.684 -2.0011 -0.7755  1.4309
 9962TIP3    H251302   3.715   5.973   4.663 -2.2405 -0.4204 -1.7843
 9963TIP3   OH251303   5.688   0.593  16.236 -0.2247  0.0949  0.2897
 9963TIP3    H151304   5.602   0.634  16.242  0.1668  0.9971 -0.1796
 9963TIP3    H251305   5.741   0.656  16.188 -0.0870 -1.7188 -2.0512
 9964TIP3   OH251306   0.615   6.140   1.651 -0.6356  0.3178 -0.5563
 9964TIP3    H151307   0.553   6.130   1.723 -0.0750 -0.2571 -0.1473
 9964TIP3    H251308   0.566   6.186   1.583 -0.5698  2.6809  0.9487
 9965TIP3   OH251309   1.406   0.655  12.283  0.0078 -0.1532 -0.3623
 9965TIP3    H151310   1.430   0.723  12.219  0.2786  0.2609  0.1726
 9965TIP3    H251311   1.378   0.704  12.360 -0.5348 -0.6521 -0.2403
 9966TIP3   OH251312   3.209   1.865   4.400  0.5196  0.2506  0.2140
 9966TIP3    H151313   3.258   1.812   4.337  0.3538  0.2197  0.1089
 9966TIP3    H251314   3.241   1.954   4.388 -1.7702  0.8183 -2.1818
 9967TIP3   OH251315   5.532   1.181   3.456  0.3760 -0.4240 -0.4814
 9967TIP3    H151316   5.555   1.251   3.395  0.8111 -0.1738 -0.0348
 9967TIP3    H251317   5.533   1.223   3.542  1.9327 -1.2575 -0.0583
 9968TIP3   OH251318   6.601   6.281  12.017  0.1221  0.3220  0.3892
 9968TIP3    H151319   6.685   6.324  12.032 -0.9842  2.4598  0.5874
 9968TIP3    H251320   6.605   6.252  11.925  0.9694  0.6052  0.3326
 9969TIP3   OH251321   4.000   0.350   4.389  0.3462  1.1978  0.0866
 9969TIP3    H151322   3.937   0.405   4.435  1.9832  2.0760  1.3504
 9969TIP3    H251323   4.078   0.351   4.445  0.3433 -2.6735  0.3111
 9970TIP3   OH251324   2.140   0.954  16.068  0.2420  0.8053 -0.7193
 9970TIP3    H151325   2.185   0.873  16.089  0.0280  0.3403 -2.0142
 9970TIP3    H251326   2.049   0.939  16.096 -0.2314 -0.1172 -2.6606
 9971TIP3   OH251327   4.233   3.537   4.383 -0.2134  0.0129  0.1813
 9971TIP3    H151328   4.159   3.483   4.413 -0.9063  0.0941 -1.3445
 9971TIP3    H251329   4.260   3.496   4.301  1.6403 -0.1808  0.8614
 9972TIP3   OH251330   5.005   5.033   5.853  0.4766 -0.1763  0.3054
 9972TIP3    H151331   4.990   4.995   5.766  1.7319  0.6217 -0.2712
 9972TIP3    H251332   4.968   4.969   5.914  0.4617 -1.2028 -0.7670
 9973TIP3   OH251333   5.253   1.099   4.174  0.3993  0.5344 -0.6566
 9973TIP3    H151334   5.326   1.143   4.218 -1.7149  0.3119  3.3048
 9973TIP3    H251335   5.265   1.006   4.194  0.2228  0.2252 -1.9184
 9974TIP3   OH251336   6.467   0.763   2.629 -0.0248  0.0772  0.2689
 9974TIP3    H151337   6.451   0.797   2.541  0.1630 -0.4984  0.0088
 9974TIP3    H251338   6.510   0.835   2.676  0.8158  0.0184 -0.4214
 9975TIP3   OH251339   4.087   1.889   3.568  0.4957 -0.1798  0.2589
 9975TIP3    H151340   4.096   1.971   3.615 -1.0645  0.1230  0.0506
 9975TIP3    H251341   3.993   1.873   3.565  0.8654 -3.0790  2.1729
 9976TIP3   OH251342   6.270   4.234  12.884 -0.5215  0.3463  0.1479
 9976TIP3    H151343   6.213   4.300  12.846 -1.8937 -0.6484  0.4302
 9976TIP3    H251344   6.228   4.150  12.864  0.6095 -0.3906  0.7332
 9977TIP3   OH251345   0.989   6.052   1.876  0.1667 -0.0531  0.1409
 9977TIP3    H151346   1.077   6.060   1.912  0.1211 -0.0169  0.2422
 9977TIP3    H251347   0.934   6.106   1.933 -0.1588 -1.1652  0.8992
 9978TIP3   OH251348   0.926   3.042  13.430 -0.2181 -0.8616 -0.1389
 9978TIP3    H151349   0.849   3.098  13.427  0.4014 -0.0499 -1.7194
 9978TIP3    H251350   0.925   2.995  13.346  0.1964 -1.9690  0.4553
 9979TIP3   OH251351   1.463   3.555  13.111  0.4995 -0.4673 -0.3329
 9979TIP3    H151352   1.546   3.603  13.111  0.1978  0.0560 -0.4001
 9979TIP3    H251353   1.402   3.613  13.156  0.2066 -0.9121 -0.1610
 9980TIP3   OH251354   5.143   2.150  10.587 -0.4425  0.1700 -0.0766
 9980TIP3    H151355   5.155   2.213  10.516  1.1642  0.9504  0.8554
 9980TIP3    H251356   5.070   2.186  10.638 -2.8569 -1.3610 -2.3087
 9981TIP3   OH251357   0.245   1.389   5.521  0.0185  0.3618  0.2841
 9981TIP3    H151358   0.208   1.322   5.465  0.9437 -0.4958  0.6661
 9981TIP3    H251359   0.173   1.418   5.577  0.1653 -2.1173  1.8240
 9982TIP3   OH251360   4.380   6.567  16.260  0.0346  0.2391 -0.1729
 9982TIP3    H151361   4.369   6.474  16.240  1.0987  0.4253 -1.6913
 9982TIP3    H251362   4.440   6.569  16.335  0.5539 -0.2715 -0.5751
 9983TIP3   OH251363   5.656   6.775  12.095 -1.0241 -0.0953 -0.3776
 9983TIP3    H151364   5.714   6.822  12.155 -0.9615 -0.0408 -0.4804
 9983TIP3    H251365   5.594   6.731  12.152 -1.5535  0.7268 -0.3045
 9984TIP3   OH251366   1.359   1.422   0.240 -0.4547 -0.0835  0.3515
 9984TIP3    H151367   1.376   1.438   0.333 -0.7724 -0.8143  0.5426
 9984TIP3    H251368   1.446   1.419   0.200 -0.2707 -0.5831  0.7738
 9985TIP3   OH251369   3.228   2.375   1.166  0.0488 -0.3489  0.2564
 9985TIP3    H151370   3.273   2.456   1.193 -0.1928 -0.4565  1.0080
 9985TIP3    H251371   3.297   2.310   1.160  0.3542  0.0830 -1.0817
 9986TIP3   OH251372   1.444   0.468  13.002  0.3812 -0.0534  0.6743
 9986TIP3    H151373   1.415   0.556  12.977 -0.5535 -0.3619  0.6377
 9986TIP3    H251374   1.530   0.459  12.962  0.1540  0.5601  0.0360
 9987TIP3   OH251375   0.200   0.836   3.368  0.0458  0.3422 -1.4947
 9987TIP3    H151376   0.166   0.875   3.288 -1.7105 -0.2864 -1.0708
 9987TIP3    H251377   0.166   0.891   3.439 -0.6137 -0.6399 -1.0346
 9988TIP3   OH251378   0.875   0.622  16.470 -0.3088  0.0227 -0.2335
 9988TIP3    H151379   0.808   0.613  16.538  1.0176 -1.2300  0.9470
 9988TIP3    H251380   0.885   0.717  16.459  0.0619  0.2663  1.9599
 9989TIP3   OH251381   1.080   3.275  16.983 -0.4846 -0.0130 -0.1846
 9989TIP3    H151382   1.016   3.346  16.974  0.6927  1.5759  3.2397
 9989TIP3    H251383   1.031   3.196  16.960 -3.2440  1.3584  0.7299
 9990TIP3   OH251384   3.110   0.830   0.642  0.6064 -0.0577  0.5447
 9990TIP3    H151385   3.101   0.758   0.705  3.6351  0.4533  1.6436
 9990TIP3    H251386   3.175   0.799   0.579  2.3698  1.8879  1.3496
 9991TIP3   OH251387   3.753   1.276   4.935  0.5884 -0.2074  0.0318
 9991TIP3    H151388   3.798   1.277   4.851  0.9197  0.2833  0.2084
 9991TIP3    H251389   3.747   1.369   4.960  3.2410 -0.4965  1.9876
 9992TIP3   OH251390   1.911   3.401  13.991  0.2856 -0.2470 -0.0464
 9992TIP3    H151391   2.005   3.392  13.980  0.3602  0.5426 -0.0562
 9992TIP3    H251392   1.882   3.445  13.911 -0.2661 -1.5814 -0.6037
 9993TIP3   OH251393   5.828   4.308  12.612  0.0532  0.3179 -0.3794
 9993TIP3    H151394   5.862   4.331  12.525 -0.8170  0.8142 -0.5935
 9993TIP3    H251395   5.754   4.250  12.594  0.0859  0.1464  0.0410
 9994TIP3   OH251396   6.257   6.104  12.382  0.0781 -0.2412  0.0025
 9994TIP3    H151397   6.263   6.042  12.310  0.9565  0.3503 -0.4473
 9994TIP3    H251398   6.336   6.158  12.374 -2.0175  2.7453 -1.3106
 9995TIP3   OH251399   4.232   5.402   2.174  0.1387 -0.1219  0.1753
 9995TIP3    H151400   4.137   5.409   2.165 -0.0701  0.3123  2.4388
 9995TIP3    H251401   4.259   5.487   2.210  1.3487 -0.3540 -0.1663
 9996TIP3   OH251402   0.541   3.766   2.410 -0.7621  0.3633  0.0079
 9996TIP3    H151403   0.521   3.847   2.458 -0.3556  0.6519 -0.3081
 9996TIP3    H251404   0.616   3.728   2.456  0.3579  1.2279 -1.0727
 9997TIP3   OH251405   0.139   2.119  14.830  0.6670 -0.2684 -0.6011
 9997TIP3    H151406   0.168   2.029  14.845  0.4460 -0.4636 -1.3431
 9997TIP3    H251407   0.106   2.119  14.740  0.5714  0.5298 -0.5669
 9998TIP3   OH251408   5.010   5.080   1.200 -0.2116  0.3676 -0.0585
 9998TIP3    H151409   5.050   4.992   1.206 -0.2537  0.2059 -1.8371
 9998TIP3    H251410   4.916   5.063   1.193 -0.2910  0.5974  0.4449
 9999TIP3   OH251411   6.628   4.578   3.469 -0.0520 -0.0342 -0.1074
 9999TIP3    H151412   6.710   4.560   3.513  0.7658  0.8762 -1.2138
 9999TIP3    H251413   6.647   4.654   3.413 -1.1340 -0.9525 -1.7686
10000TIP3   OH251414   5.200   2.669  10.660 -0.8161  0.0919 -0.3003
10000TIP3    H151415   5.124   2.723  10.644 -1.6580 -0.6173  1.1827
10000TIP3    H251416   5.218   2.679  10.754  0.3809 -0.4340 -0.4546
10001TIP3   OH251417   2.301   2.269   1.930  0.5898  0.0329 -0.3627
10001TIP3    H151418   2.256   2.258   1.846  0.1976  2.6924 -0.5318
10001TIP3    H251419   2.374   2.206   1.927 -0.1680 -0.7826 -2.1531
10002TIP3   OH251420   0.974   5.943   4.544  0.1411  0.3741 -0.4433
10002TIP3    H151421   1.058   5.928   4.588 -1.5196 -2.3922  2.0110
10002TIP3    H251422   0.943   6.027   4.579  1.5740  1.0919 -0.8836
10003TIP3   OH251423   2.348   3.872  10.876  0.1687  0.2739  0.2783
10003TIP3    H151424   2.438   3.890  10.904 -0.4564  1.0548  1.8956
10003TIP3    H251425   2.307   3.959  10.873 -1.0485 -0.2395  1.4726
10004TIP3   OH251426   1.488   0.339  15.733  0.2950 -0.4104  0.2853
10004TIP3    H151427   1.445   0.279  15.672 -0.3115  0.5878 -0.2924
10004TIP3    H251428   1.491   0.422  15.686 -0.5535  0.4883  1.7773
10005TIP3   OH251429   4.032   4.227   0.081 -0.1172 -0.2217 -0.2822
10005TIP3    H151430   3.985   4.295   0.129 -0.0027  0.2614 -0.8453
10005TIP3    H251431   4.113   4.215   0.130 -1.5431 -2.2657  1.6649
10006TIP3   OH251432   5.578   4.144   1.608  0.0860  0.0633  0.5147
10006TIP3    H151433   5.516   4.200   1.561  0.6279  1.6202  1.6122
10006TIP3    H251434   5.657   4.198   1.616  0.4153 -0.6307  2.1071
10007TIP3   OH251435   5.921   4.512  13.355  0.2012 -0.4067  0.4847
10007TIP3    H151436   5.880   4.597  13.340  0.9485  0.0680  1.0386
10007TIP3    H251437   5.980   4.500  13.280  1.5075  0.4544  1.3495
10008TIP3   OH251438   2.373   0.539  15.976  0.1864 -0.4326 -0.0802
10008TIP3    H151439   2.354   0.632  15.979  0.7222 -0.3475  0.7104
10008TIP3    H251440   2.469   0.534  15.978  0.1373 -1.0439  1.2204
10009TIP3   OH251441   1.881   2.851  14.879  0.5670  0.4491 -0.2078
10009TIP3    H151442   1.855   2.820  14.792 -0.3439 -1.5877  0.7691
10009TIP3    H251443   1.815   2.917  14.901  0.4896  0.5799 -0.8297
10010TIP3   OH251444   4.848   6.337   6.042  0.4938 -0.0090 -0.0766
10010TIP3    H151445   4.818   6.297   5.960 -1.1225  1.4471 -0.2330
10010TIP3    H251446   4.845   6.431   6.025 -0.2182  0.3234  1.7759
10011TIP3   OH251447   5.000   6.362  16.639 -0.1346 -0.2567  0.9334
10011TIP3    H151448   4.976   6.392  16.726  1.2468 -0.1780  1.3069
10011TIP3    H251449   5.096   6.354  16.642 -0.0012  0.4374 -0.7895
10012TIP3   OH251450   1.639   2.888  12.643 -0.0292  0.0716  0.3869
10012TIP3    H151451   1.701   2.907  12.713  0.9272  0.3964 -0.5285
10012TIP3    H251452   1.672   2.938  12.568 -0.4970 -1.0051 -0.5545
10013TIP3   OH251453   3.304   3.686  12.402 -0.5636  0.1321  0.5363
10013TIP3    H151454   3.291   3.674  12.307  1.3789 -1.5568  0.4660
10013TIP3    H251455   3.361   3.762  12.409 -0.5117  0.1111  0.3418
10014TIP3   OH251456   5.052   4.560  12.342  0.3340 -0.1810 -0.1715
10014TIP3    H151457   5.143   4.535  12.356  0.1938 -0.0767  0.9769
10014TIP3    H251458   5.055   4.654  12.324  0.6445 -0.5678 -2.2590
10015TIP3   OH251459   5.406   1.470  16.500 -0.7750 -0.2737  0.0532
10015TIP3    H151460   5.350   1.402  16.462  1.4817 -0.9633 -2.1642
10015TIP3    H251461   5.467   1.421  16.556  1.1232 -0.1720 -1.8782
10016TIP3   OH251462   6.699   4.559   5.238 -0.3622 -0.4582 -0.1167
10016TIP3    H151463   6.716   4.518   5.154 -1.3797  1.0203 -1.0738
10016TIP3    H251464   6.775   4.538   5.292  1.0058 -0.1423 -1.9065
10017TIP3   OH251465   6.637   5.377  15.664  0.2881  0.0942  1.0757
10017TIP3    H151466   6.543   5.383  15.685  0.2224  0.5145  0.6635
10017TIP3    H251467   6.645   5.297  15.612 -0.0692  0.8127 -0.1047
10018TIP3   OH251468   1.792   6.590   4.966 -0.0321 -0.3919  0.2955
10018TIP3    H151469   1.854   6.618   5.034 -0.5334  1.7603 -0.0801
10018TIP3    H251470   1.725   6.659   4.965 -2.4088 -2.6039  0.6225
10019TIP3   OH251471   5.402   6.394  16.237 -0.1177 -0.4639 -0.0740
10019TIP3    H151472   5.394   6.478  16.280  0.1439  0.2453 -1.3588
10019TIP3    H251473   5.418   6.416  16.145 -0.7956 -1.9184 -0.5567
10020TIP3   OH251474   4.442   1.444  15.301  0.0046  0.0857 -0.3395
10020TIP3    H151475   4.534   1.470  15.292  0.1527 -0.1568  0.5144
10020TIP3    H251476   4.443   1.374  15.366 -0.9361  0.9340  0.5988
10021TIP3   OH251477   4.591   2.216   6.116  0.0324  0.0965  0.0104
10021TIP3    H151478   4.591   2.135   6.065 -0.3519  0.3424 -0.3817
10021TIP3    H251479   4.683   2.231   6.138  0.2395  0.1691 -0.8957
10022TIP3   OH251480   2.562   4.604   0.668  0.0160  0.2514  0.0600
10022TIP3    H151481   2.478   4.647   0.684 -0.1142  0.5007 -1.2318
10022TIP3    H251482   2.542   4.511   0.671  0.6229  0.1235  4.6710
10023TIP3   OH251483   6.229   3.394   4.655  0.4816 -0.5644 -0.4952
10023TIP3    H151484   6.289   3.464   4.682  0.0796  0.1295 -1.3930
10023TIP3    H251485   6.168   3.385   4.728 -0.4220  1.1085 -1.0305
10024TIP3   OH251486   4.308   4.893   4.359  0.1357 -1.1574  0.1577
10024TIP3    H151487   4.352   4.819   4.316 -0.0452 -1.3723  0.3353
10024TIP3    H251488   4.286   4.860   4.446  0.7068 -0.6437  0.4995
10025TIP3   OH251489   4.175   1.279   6.604 -0.1698 -0.0240 -1.0250
10025TIP3    H151490   4.221   1.318   6.530  0.2892 -0.0973 -0.7786
10025TIP3    H251491   4.211   1.323   6.681 -1.2462  0.6617 -0.8971
10026TIP3   OH251492   6.672   2.046   3.097 -0.3641 -0.4158 -0.5477
10026TIP3    H151493   6.625   2.077   3.174 -0.5740 -0.1240 -0.7908
10026TIP3    H251494   6.609   2.053   3.025  0.9580  2.9785 -1.5029
10027TIP3   OH251495   2.648   5.721  15.325 -0.2099 -0.0677  0.0924
10027TIP3    H151496   2.679   5.735  15.236  1.0609 -0.5816  0.4398
10027TIP3    H251497   2.554   5.739  15.321 -0.0116  0.7515 -1.1588
10028TIP3   OH251498   5.898   5.054   4.674  0.1382 -0.5994 -0.0223
10028TIP3    H151499   5.874   4.979   4.620  0.6909 -0.7196 -0.1022
10028TIP3    H251500   5.816   5.103   4.685 -0.7029 -2.3585  1.8492
10029TIP3   OH251501   6.027   4.186  15.763  0.2916  0.8811  0.4140
10029TIP3    H151502   6.034   4.252  15.694  2.0213  0.6381  0.3328
10029TIP3    H251503   6.008   4.104  15.716 -2.1014  1.3461  0.5354
10030TIP3   OH251504   2.889   3.596  10.590 -0.1130  0.5564  0.4720
10030TIP3    H151505   2.977   3.565  10.614  0.3246  0.4651 -1.2453
10030TIP3    H251506   2.853   3.526  10.535  0.1944  2.2520 -1.9498
10031TIP3   OH251507   0.846   2.176   3.546  0.4393 -0.0216 -0.1313
10031TIP3    H151508   0.796   2.096   3.529 -0.8018  1.0020 -1.3770
10031TIP3    H251509   0.782   2.237   3.583  1.5278  0.1989  1.4594
10032TIP3   OH251510   5.021   6.348   2.367 -0.5734  0.5080 -0.6221
10032TIP3    H151511   5.042   6.436   2.335 -1.3520 -0.1005 -2.8732
10032TIP3    H251512   5.060   6.289   2.304 -1.8909 -0.7423 -0.3072
10033TIP3   OH251513   3.600   2.263   2.962  0.4147 -0.4620  0.1436
10033TIP3    H151514   3.526   2.317   2.990  0.6351 -0.4433  0.6904
10033TIP3    H251515   3.674   2.293   3.015  0.8889 -0.2751 -0.6108
10034TIP3   OH251516   2.031   5.358   1.983  0.2634 -0.2565  0.2439
10034TIP3    H151517   2.050   5.267   1.959  0.4284  0.4313 -2.4058
10034TIP3    H251518   2.117   5.397   1.997  0.3362  0.1425 -1.2302
10035TIP3   OH251519   2.105   1.773  13.896  0.6256  0.1896  0.0286
10035TIP3    H151520   2.195   1.773  13.930  0.0757 -1.4662  1.5271
10035TIP3    H251521   2.064   1.696  13.935 -0.8701 -0.2024 -2.2252
10036TIP3   OH251522   1.928   5.666   1.911 -0.2438  0.2392 -0.4652
10036TIP3    H151523   1.914   5.571   1.909  0.9845  0.0109  0.8014
10036TIP3    H251524   1.979   5.681   1.991 -1.0597  2.0537 -0.2522
10037TIP3   OH251525   0.651   1.140   2.510  0.2356 -0.1445  0.8681
10037TIP3    H151526   0.716   1.074   2.487 -1.3200 -1.2305 -0.4938
10037TIP3    H251527   0.668   1.212   2.449 -1.4960 -1.5110 -1.2949
10038TIP3   OH251528   0.187   4.488   5.275 -0.2357 -0.3095  0.0004
10038TIP3    H151529   0.163   4.562   5.219 -3.3366 -1.2740 -0.0218
10038TIP3    H251530   0.253   4.441   5.225  1.4425  2.1456 -0.1959
10039TIP3   OH251531   2.577   1.042   0.426  0.1207  0.0473 -0.3040
10039TIP3    H151532   2.583   1.136   0.412 -0.7480 -0.0294 -1.3170
10039TIP3    H251533   2.483   1.025   0.432  0.3085 -0.6178  0.9132
10040TIP3   OH251534   2.701   6.356  16.729  0.3109 -0.0513 -0.1265
10040TIP3    H151535   2.665   6.402  16.654  1.2073  2.0247  0.6715
10040TIP3    H251536   2.625   6.315  16.771 -0.7046  1.7509 -0.1618
10041TIP3   OH251537   1.521   2.287   1.667  0.2564 -0.2950 -0.4893
10041TIP3    H151538   1.592   2.266   1.727  0.5499  1.4145 -0.2311
10041TIP3    H251539   1.441   2.267   1.716  0.5063  0.5438  0.2764
10042TIP3   OH251540   2.277   1.969   0.900 -0.0161 -0.5554 -0.0841
10042TIP3    H151541   2.186   1.992   0.878  0.6124 -0.3157 -2.5033
10042TIP3    H251542   2.268   1.911   0.975 -2.2164 -0.9291 -0.5776
10043TIP3   OH251543   5.890   4.608   6.425 -0.4590 -0.2424 -0.5519
10043TIP3    H151544   5.890   4.646   6.513 -1.4164  0.1894 -0.7287
10043TIP3    H251545   5.925   4.520   6.437  3.3322  1.1896 -0.3639
10044TIP3   OH251546   5.938   4.773  11.476 -0.1519 -0.2886  0.6010
10044TIP3    H151547   5.877   4.776  11.549  1.5437 -0.9441  2.0829
10044TIP3    H251548   6.024   4.761  11.516  1.0804  1.3955 -1.3874
10045TIP3   OH251549   4.214   5.520  15.442 -0.0900 -0.2998 -0.5348
10045TIP3    H151550   4.263   5.519  15.524  0.7642 -3.1316 -1.0250
10045TIP3    H251551   4.134   5.471  15.462  0.4977 -1.7103 -1.5906
10046TIP3   OH251552   6.591   0.811   1.936  0.2971  0.1039  0.3501
10046TIP3    H151553   6.501   0.786   1.917  0.7527 -0.9195 -0.4721
10046TIP3    H251554   6.623   0.742   1.994  0.4269  0.6938  0.9942
10047TIP3   OH251555   3.662   4.378  16.043  0.5254 -0.0904  0.2089
10047TIP3    H151556   3.677   4.454  16.099  0.9037 -0.0876  0.1071
10047TIP3    H251557   3.738   4.321  16.058 -0.8176 -1.4613  1.9250
10048TIP3   OH251558   3.550   1.121   4.726  0.3555 -0.1732  0.1247
10048TIP3    H151559   3.572   1.033   4.697 -0.6181  0.2271 -1.9237
10048TIP3    H251560   3.578   1.178   4.654 -2.0261  0.8743 -0.0234
10049TIP3   OH251561   3.433   3.782   5.325 -0.3641  0.1501 -0.2468
10049TIP3    H151562   3.513   3.812   5.368 -0.4168  0.4217 -0.3373
10049TIP3    H251563   3.427   3.689   5.347 -1.0410  0.5609  1.3499
10050TIP3   OH251564   6.325   2.713  16.376  0.5324  0.6260  0.3326
10050TIP3    H151565   6.398   2.679  16.324  1.5863  1.8474  0.9933
10050TIP3    H251566   6.321   2.656  16.453  0.7746  0.5332  0.2741
10051TIP3   OH251567   4.008   4.172   3.360  0.2972 -0.1075  0.2173
10051TIP3    H151568   4.087   4.221   3.384  1.3159  0.1741 -3.4021
10051TIP3    H251569   3.953   4.236   3.315  0.2083 -1.4587 -1.6552
10052TIP3   OH251570   6.766   4.943   2.775  0.1960  0.3362  0.1269
10052TIP3    H151571   6.819   4.863   2.772 -0.4062 -0.0404 -0.7742
10052TIP3    H251572   6.711   4.938   2.696  0.4085  1.8101 -0.1287
10053TIP3   OH251573   0.833   6.041   3.792 -0.6158 -0.4085 -0.3036
10053TIP3    H151574   0.820   6.061   3.885  0.1718 -0.6707 -0.1358
10053TIP3    H251575   0.899   6.104   3.763  0.1239 -1.2125 -0.3585
10054TIP3   OH251576   5.942   2.222  14.185 -0.3843 -0.0486 -0.0998
10054TIP3    H151577   5.904   2.225  14.098  0.1179  0.5804 -0.3031
10054TIP3    H251578   6.014   2.160  14.178 -0.6280 -0.3391 -0.0191
10055TIP3   OH251579   0.368   3.287   2.893  0.0723  0.0949  0.4176
10055TIP3    H151580   0.405   3.202   2.917 -2.6711 -1.1555  0.4062
10055TIP3    H251581   0.298   3.265   2.831  0.1918  2.4685 -0.5882
10056TIP3   OH251582   2.898   6.440   5.860  0.4701 -0.4954  0.3766
10056TIP3    H151583   2.899   6.533   5.882  3.4336 -0.4975  0.4447
10056TIP3    H251584   2.906   6.395   5.945  1.4245 -0.7207  0.1837
10057TIP3   OH251585   4.508   6.473   1.134 -0.4769  0.1724 -0.0072
10057TIP3    H151586   4.600   6.469   1.159 -0.6559  2.2506  1.0786
10057TIP3    H251587   4.507   6.530   1.057 -0.8376  0.0498 -0.0922
10058TIP3   OH251588   2.899   3.985   0.472 -0.0370 -0.6077  0.2403
10058TIP3    H151589   2.896   4.033   0.555 -3.1119  0.8535 -0.6414
10058TIP3    H251590   2.963   4.033   0.419 -1.6476  1.3956  0.0666
10059TIP3   OH251591   3.787   1.407  12.968 -0.0297  0.0807  0.0960
10059TIP3    H151592   3.787   1.360  12.885 -3.6130 -3.6804  2.0243
10059TIP3    H251593   3.707   1.461  12.966  0.6120  1.0729  0.5418
10060TIP3   OH251594   0.567   3.246   5.003 -0.4876 -0.3379 -0.6162
10060TIP3    H151595   0.584   3.244   5.097  0.3717  0.2008 -0.7605
10060TIP3    H251596   0.496   3.183   4.991  1.3132 -2.5498 -0.0074
10061TIP3   OH251597   6.556   3.197   1.003  0.2747 -0.1464 -0.0833
10061TIP3    H151598   6.494   3.131   1.034  1.0155 -0.8138 -0.0094
10061TIP3    H251599   6.506   3.278   1.002 -0.1969 -0.4010  1.3957
10062TIP3   OH251600   5.074   0.882   0.942 -0.3871 -0.3282  0.1798
10062TIP3    H151601   4.986   0.855   0.918  0.1767 -0.7114 -1.5262
10062TIP3    H251602   5.121   0.800   0.960 -0.2013 -0.1662  0.4476
10063TIP3   OH251603   6.248   6.028  13.486 -0.4339 -0.0237  0.0770
10063TIP3    H151604   6.156   6.039  13.461 -1.2403 -1.2386  2.3698
10063TIP3    H251605   6.289   5.989  13.409 -2.1542 -0.7758 -0.4931
10064TIP3   OH251606   1.336   2.520   4.160  0.0469 -0.3679  0.5237
10064TIP3    H151607   1.393   2.555   4.092  0.5699 -1.6263  0.3077
10064TIP3    H251608   1.248   2.540   4.130  0.1792 -2.7096 -1.5428
10065TIP3   OH251609   0.018   4.100  11.545 -0.7334 -0.2225 -0.0062
10065TIP3    H151610  -0.062   4.113  11.494  0.0264 -0.0234 -1.1840
10065TIP3    H251611   0.067   4.182  11.534  0.0345 -0.6743 -0.0497
10066TIP3   OH251612   3.689   5.466  12.071 -0.0841 -0.1683  0.0383
10066TIP3    H151613   3.675   5.524  11.996 -0.0650 -2.1569 -1.5417
10066TIP3    H251614   3.650   5.513  12.145 -0.4860  1.6387 -1.2780
10067TIP3   OH251615   6.195   6.416   1.874  0.2628  0.3607  0.3194
10067TIP3    H151616   6.287   6.397   1.891  0.0065 -1.7054 -0.4730
10067TIP3    H251617   6.162   6.451   1.956  1.7782  1.1984  0.5833
10068TIP3   OH251618   4.374   3.529  12.060  0.2910 -0.3824 -0.2561
10068TIP3    H151619   4.350   3.546  11.969  0.3528  1.6403  0.0872
10068TIP3    H251620   4.461   3.490  12.055  0.2016 -0.4787 -1.0734
10069TIP3   OH251621   3.222   6.748   3.884 -1.0952 -0.4477  0.4096
10069TIP3    H151622   3.161   6.746   3.958 -1.5712  0.9214  0.0741
10069TIP3    H251623   3.187   6.816   3.826  0.9831  0.6596  0.4122
10070TIP3   OH251624   2.685   5.703   3.225  0.2477 -0.4378 -0.1530
10070TIP3    H151625   2.606   5.651   3.241 -0.0740 -0.0333 -0.3848
10070TIP3    H251626   2.709   5.737   3.311 -0.6477  0.5742 -0.2867
10071TIP3   OH251627   1.530   4.316   6.489  0.0203  0.1000 -0.0908
10071TIP3    H151628   1.508   4.338   6.398  0.8434 -0.6218 -0.4622
10071TIP3    H251629   1.615   4.356   6.504 -0.2744  0.5202  0.4796
10072TIP3   OH251630   5.534   3.157  16.170 -0.0776  0.2638  0.0958
10072TIP3    H151631   5.458   3.209  16.196  0.6696  1.1134  0.6177
10072TIP3    H251632   5.509   3.067  16.191 -0.2775  0.7226  1.9169
10073TIP3   OH251633   3.611   3.094  10.509  0.3080  0.7145  0.3758
10073TIP3    H151634   3.653   3.158  10.453 -2.4557  1.1017 -1.3501
10073TIP3    H251635   3.576   3.145  10.582  0.3861  0.7736  0.3716
10074TIP3   OH251636   1.189   2.685   1.765  1.3356 -0.4729 -0.0218
10074TIP3    H151637   1.213   2.628   1.692  1.0365  0.9102 -1.2494
10074TIP3    H251638   1.267   2.738   1.781 -0.0488  2.4931 -2.5401
10075TIP3   OH251639   2.192   6.325   3.045  0.5857  0.3829 -0.1737
10075TIP3    H151640   2.201   6.413   3.080  0.9440  0.2816 -0.0098
10075TIP3    H251641   2.267   6.277   3.079  0.8891  0.2573 -0.9922
10076TIP3   OH251642   3.210   5.446  11.248  0.2461  0.0027  0.4777
10076TIP3    H151643   3.251   5.374  11.297 -0.1538 -0.2745  0.4047
10076TIP3    H251644   3.116   5.439  11.268  0.4970  2.2730  2.8265
10077TIP3   OH251645   4.411   4.395   2.917 -0.2769 -0.4147  0.0133
10077TIP3    H151646   4.374   4.307   2.927 -0.4879 -0.3990 -0.5717
10077TIP3    H251647   4.399   4.415   2.824 -1.6229  0.8408  0.4403
10078TIP3   OH251648   3.861   2.442  16.579 -0.5027  0.2263 -0.0928
10078TIP3    H151649   3.785   2.498  16.566  0.3307  1.4203  0.0698
10078TIP3    H251650   3.895   2.466  16.665 -0.0494 -0.4421 -0.0781
10079TIP3   OH251651   0.994   0.702   3.117 -0.1193 -1.1485 -0.0334
10079TIP3    H151652   1.009   0.721   3.024 -2.5874  0.8028 -0.0828
10079TIP3    H251653   1.065   0.748   3.162 -0.7602  0.6009 -0.7698
10080TIP3   OH251654   6.611   0.427  13.699  0.2956 -0.4243 -0.3312
10080TIP3    H151655   6.641   0.387  13.780  0.8851  0.0391 -0.3178
10080TIP3    H251656   6.574   0.355  13.649 -0.4221 -0.6506  0.5084
10081TIP3   OH251657   2.600   2.389  16.400  0.3192 -0.5208  0.4205
10081TIP3    H151658   2.534   2.457  16.407  0.3839 -0.5884  1.8033
10081TIP3    H251659   2.655   2.416  16.325 -0.7198 -0.0063 -0.1609
10082TIP3   OH251660   5.844   4.172   5.030  0.4339 -0.3678  0.0804
10082TIP3    H151661   5.808   4.259   5.009  2.8130  0.7672  0.5118
10082TIP3    H251662   5.840   4.167   5.125 -0.3210 -1.0342  0.0194
10083TIP3   OH251663   2.116   5.959  11.880 -0.5545 -0.0584  0.2205
10083TIP3    H151664   2.070   5.999  11.954  0.7252  2.2902 -0.2051
10083TIP3    H251665   2.110   6.024  11.810  1.0394 -0.8794 -0.7153
10084TIP3   OH251666   2.339   2.416  13.851  0.7398 -0.0829 -0.3400
10084TIP3    H151667   2.340   2.344  13.788 -1.1547  0.9859 -1.6413
10084TIP3    H251668   2.399   2.481  13.816  1.6809 -0.5737  0.3231
10085TIP3   OH251669   2.709   0.131   1.461  0.0249  0.4155 -0.2080
10085TIP3    H151670   2.738   0.117   1.551  0.2464  0.9170 -0.2007
10085TIP3    H251671   2.660   0.214   1.464 -0.5936  0.0597 -0.4046
10086TIP3   OH251672   4.858   2.781   5.254  0.6675 -0.0340 -0.8296
10086TIP3    H151673   4.943   2.821   5.273  1.5286  0.3940 -5.0185
10086TIP3    H251674   4.795   2.840   5.294  2.2620  0.5866  0.8519
10087TIP3   OH251675   2.223   4.349   3.068  0.2124 -0.1859  0.0906
10087TIP3    H151676   2.316   4.331   3.060 -0.1451 -1.5234 -1.1884
10087TIP3    H251677   2.206   4.348   3.162  1.5484  0.4564  0.3525
10088TIP3   OH251678   5.554   3.385  16.477 -0.1010  0.0728 -0.7250
10088TIP3    H151679   5.494   3.426  16.416 -1.3057  1.3267  1.2260
10088TIP3    H251680   5.628   3.446  16.482 -1.2073  1.3284  1.0287
10089TIP3   OH251681   5.238   1.374  16.771  0.0545  0.0347  0.4603
10089TIP3    H151682   5.280   1.344  16.691 -2.1378  0.4930 -0.9104
10089TIP3    H251683   5.239   1.297  16.829 -1.1989 -1.2974 -1.2268
10090TIP3   OH251684   3.607   0.364  10.821 -0.1297  0.1602 -0.4289
10090TIP3    H151685   3.650   0.436  10.775  2.5527  1.3040  3.5685
10090TIP3    H251686   3.521   0.399  10.845 -1.1437 -0.0865 -3.4317
10091TIP3   OH251687   6.219   6.686   0.337  0.1014  0.0140 -0.4486
10091TIP3    H151688   6.261   6.660   0.255 -1.2539 -2.6838 -0.3522
10091TIP3    H251689   6.164   6.761   0.313  0.8332  0.1652 -1.7051
10092TIP3   OH251690   3.532   5.504   1.470  0.4270  0.0773 -0.0961
10092TIP3    H151691   3.477   5.474   1.543 -0.6516  0.4254 -0.7515
10092TIP3    H251692   3.547   5.597   1.488 -0.7752  0.4394 -0.8784
10093TIP3   OH251693   6.764   0.916   0.768 -0.4795  0.0939 -0.3944
10093TIP3    H151694   6.791   0.825   0.756 -1.3662 -0.0571 -1.2378
10093TIP3    H251695   6.670   0.911   0.785 -0.3218  0.7665  0.7002
10094TIP3   OH251696   3.425   3.494   0.712 -0.4993  0.1892  0.0331
10094TIP3    H151697   3.457   3.566   0.766  1.3554 -0.1610 -0.5769
10094TIP3    H251698   3.481   3.420   0.734 -0.5513 -0.3044 -1.4225
10095TIP3   OH251699   0.593   0.117   3.165 -0.1994 -0.3388 -0.3584
10095TIP3    H151700   0.569   0.030   3.198  2.8961 -0.4032  2.0051
10095TIP3    H251701   0.599   0.171   3.244  0.8491  1.2534 -1.4968
10096TIP3   OH251702   2.477   1.400  16.362 -0.2091 -0.4095  0.4516
10096TIP3    H151703   2.416   1.470  16.339 -0.5563 -0.4046  1.3534
10096TIP3    H251704   2.522   1.432  16.441  1.0460 -0.3619 -0.2632
10097TIP3   OH251705   3.583   0.904   0.988 -0.0457  0.4574  0.6743
10097TIP3    H151706   3.591   0.898   0.892  1.2590 -0.8227  0.8417
10097TIP3    H251707   3.492   0.877   1.005  0.0313 -0.3805 -0.1398
10098TIP3   OH251708   3.328   4.667   0.444 -0.0607  0.6619  0.2836
10098TIP3    H151709   3.265   4.700   0.380 -0.5549  0.8846  0.8799
10098TIP3    H251710   3.396   4.625   0.391  0.0980  1.8047 -0.4331
10099TIP3   OH251711   3.518   2.972  14.561 -0.1575 -0.0266  0.1473
10099TIP3    H151712   3.444   3.010  14.513 -1.1667 -0.7215  1.1338
10099TIP3    H251713   3.559   2.913  14.497 -2.6814 -2.4660  0.6832
10100TIP3   OH251714   4.544   1.275   3.062  0.4787  0.1523  0.4175
10100TIP3    H151715   4.545   1.212   3.134 -0.2528  1.9022  2.0125
10100TIP3    H251716   4.466   1.328   3.077 -0.0037  0.1982 -2.0187
10101TIP3   OH251717   0.751   6.048   4.904 -0.1051  0.0787 -0.3606
10101TIP3    H151718   0.728   6.097   4.983 -1.3946 -3.2336  1.3722
10101TIP3    H251719   0.682   6.071   4.841 -0.8120  0.3064  0.4918
10102TIP3   OH251720   4.433   2.238  14.428  0.0238 -0.4813 -0.1443
10102TIP3    H151721   4.522   2.256  14.396 -0.6119 -0.4626 -1.9553
10102TIP3    H251722   4.434   2.145  14.450  0.8169 -0.2254  0.9359
10103TIP3   OH251723   0.802   6.763  14.000 -0.2434 -0.1319 -0.4264
10103TIP3    H151724   0.792   6.793  13.910  0.9301  1.2383 -0.1043
10103TIP3    H251725   0.889   6.724  14.003  0.2497  1.0288  0.4497
10104TIP3   OH251726   5.612   2.543   0.105  0.1520  0.0063 -0.1478
10104TIP3    H151727   5.571   2.598   0.037 -0.7617 -2.4580 -1.6672
10104TIP3    H251728   5.686   2.501   0.061 -0.7417 -2.0033  0.1937
10105TIP3   OH251729   0.921   6.389  12.810  0.2605 -0.0825 -0.0987
10105TIP3    H151730   0.998   6.333  12.811  1.1482  1.0976 -0.6561
10105TIP3    H251731   0.925   6.434  12.725  0.0028  1.3866  0.6384
10106TIP3   OH251732   0.457   0.890  14.262 -0.1347  0.3989 -0.8218
10106TIP3    H151733   0.479   0.945  14.187  1.0363  1.6310  0.3985
10106TIP3    H251734   0.425   0.951  14.328 -1.2449 -0.6803 -0.3370
10107TIP3   OH251735   4.112   6.196   4.187  0.4305 -0.1125  0.0859
10107TIP3    H151736   4.106   6.190   4.092 -0.4239  0.1338  0.1218
10107TIP3    H251737   4.110   6.105   4.217  0.3664 -0.1762 -0.1096
10108TIP3   OH251738   6.086   0.377  16.388 -0.3376  0.3037 -0.0683
10108TIP3    H151739   5.991   0.373  16.392 -0.2993  0.0479  0.8003
10108TIP3    H251740   6.106   0.469  16.373 -0.7434  0.2177 -1.1391
10109TIP3   OH251741   5.684   3.580   4.543 -0.0393  0.0725  0.1644
10109TIP3    H151742   5.705   3.613   4.456  0.2238 -0.9460 -0.1592
10109TIP3    H251743   5.617   3.513   4.528 -0.5459  0.4211  0.8133
10110TIP3   OH251744   4.211   1.184   2.605  0.3683 -0.3509  0.0153
10110TIP3    H151745   4.250   1.106   2.565  0.3276  1.0619 -2.9147
10110TIP3    H251746   4.119   1.181   2.578  0.4621  0.9036 -0.4829
10111TIP3   OH251747   1.677   3.373   0.937  0.6777 -1.4328 -0.2601
10111TIP3    H151748   1.748   3.436   0.922  0.7985 -2.1262 -2.7342
10111TIP3    H251749   1.636   3.362   0.852 -3.5576  0.2425  1.4666
10112TIP3   OH251750   0.015   0.817  15.852 -0.3259  0.7024  0.2027
10112TIP3    H151751  -0.018   0.798  15.940  0.3644  0.4049  0.3963
10112TIP3    H251752   0.091   0.873  15.865  1.1295 -1.1509 -0.0812
10113TIP3   OH251753   3.951   2.936  12.377 -0.1925  0.2370 -0.2342
10113TIP3    H151754   3.944   2.903  12.467 -0.5877  1.1788  0.0788
10113TIP3    H251755   3.989   3.023  12.386  1.4622 -0.3802 -1.1153
10114TIP3   OH251756   6.778   0.959  15.290 -0.2982 -1.0560  0.4549
10114TIP3    H151757   6.743   1.048  15.287  0.4764 -0.7359  0.7471
10114TIP3    H251758   6.867   0.967  15.256 -0.0816 -1.6468  0.8811
10115TIP3   OH251759   4.790   1.519  15.593  0.1813  0.0177  0.1369
10115TIP3    H151760   4.875   1.512  15.550 -0.4605 -1.8805 -0.8769
10115TIP3    H251761   4.773   1.431  15.626 -1.7703  0.1916 -0.3855
10116TIP3   OH251762   6.259   4.754  14.837  0.0435 -0.0387  1.0560
10116TIP3    H151763   6.263   4.796  14.923  1.6727 -2.3297  2.1197
10116TIP3    H251764   6.235   4.664  14.854  1.8130 -0.9064 -0.7596
10117TIP3   OH251765   2.414   1.656   2.887  0.1927  0.2710  0.3686
10117TIP3    H151766   2.322   1.659   2.912 -0.1245 -0.3427 -0.6761
10117TIP3    H251767   2.429   1.738   2.840 -0.1220 -0.1243 -0.4343
10118TIP3   OH251768   0.868   4.734  12.082  0.1201 -0.7246 -0.2385
10118TIP3    H151769   0.938   4.799  12.093 -0.8224  0.3876 -0.6452
10118TIP3    H251770   0.837   4.717  12.170 -0.0798 -0.0909 -0.1797
10119TIP3   OH251771   0.930   1.806  12.072  0.2197  0.1075 -0.3871
10119TIP3    H151772   0.883   1.889  12.070  1.6655  0.9318 -1.0191
10119TIP3    H251773   1.010   1.822  12.022  0.1506 -1.9015 -1.1861
10120TIP3   OH251774   6.581   6.682   1.059 -0.2280  0.8301  0.9203
10120TIP3    H151775   6.570   6.682   0.964 -2.0145  0.3921  1.1107
10120TIP3    H251776   6.540   6.601   1.088  0.1316  1.0546  2.0906
10121TIP3   OH251777   5.701   4.383  12.871 -0.4235  0.3943 -0.0780
10121TIP3    H151778   5.718   4.361  12.780  0.7208  0.5128  0.0980
10121TIP3    H251779   5.619   4.338  12.892  0.8453 -2.1285 -0.2843
10122TIP3   OH251780   2.606   3.623   4.259  0.3983 -0.5584 -0.0056
10122TIP3    H151781   2.515   3.651   4.246  0.4637 -1.0308 -1.5318
10122TIP3    H251782   2.649   3.700   4.296 -0.5534 -0.2283  0.4231
10123TIP3   OH251783   1.202   4.205  16.812 -0.3967  0.4327  0.2207
10123TIP3    H151784   1.136   4.199  16.744  0.6645  2.5967 -1.0310
10123TIP3    H251785   1.163   4.160  16.887 -2.2741 -0.4517 -1.2487
10124TIP3   OH251786   5.634   5.744   4.943 -0.1087  0.4790  0.5464
10124TIP3    H151787   5.555   5.778   4.901 -0.5445 -0.5197  0.5524
10124TIP3    H251788   5.603   5.682   5.008  0.6561  0.5250  0.9650
10125TIP3   OH251789   5.710   1.402   6.392 -0.0310  0.3397 -0.6257
10125TIP3    H151790   5.783   1.452   6.428  0.4087 -0.3525 -0.5519
10125TIP3    H251791   5.668   1.362   6.469  0.0301  0.0471 -0.7419
10126TIP3   OH251792   3.388   5.539  16.554 -0.3040  0.3842 -0.3212
10126TIP3    H151793   3.403   5.601  16.625 -0.0513  0.1387 -0.1571
10126TIP3    H251794   3.297   5.512  16.565 -0.7362  1.5197 -1.0370
10127TIP3   OH251795   1.898   6.647  13.816 -0.2613 -0.0591 -1.0946
10127TIP3    H151796   1.808   6.669  13.791 -0.4722  0.6834  0.2484
10127TIP3    H251797   1.947   6.648  13.734 -1.5656 -0.8870 -1.8952
10128TIP3   OH251798   5.803   3.555  12.797  0.2115 -0.3232 -0.6002
10128TIP3    H151799   5.844   3.634  12.761  2.1600 -0.4636  1.2004
10128TIP3    H251800   5.726   3.588  12.844  1.9012  0.7465  1.4994
10129TIP3   OH251801   6.470   0.716  17.016 -0.9481  0.6438  0.0579
10129TIP3    H151802   6.398   0.680  16.965 -2.6475  0.9631  2.1579
10129TIP3    H251803   6.538   0.648  17.014 -0.5126  1.0869 -3.4629
10130TIP3   OH251804   1.739   3.636  12.613 -0.3575 -0.2750  0.2200
10130TIP3    H151805   1.760   3.668  12.701 -0.2790 -0.3262  0.2197
10130TIP3    H251806   1.733   3.716  12.560  0.4495 -0.2919  0.0878
10131TIP3   OH251807   3.072   6.654  15.115  0.0754  0.3210  0.1426
10131TIP3    H151808   2.979   6.644  15.136  0.4329  0.0363  1.6780
10131TIP3    H251809   3.087   6.749  15.115  0.3516  0.3124  2.6180
10132TIP3   OH251810   2.169   6.510  11.249  0.2151 -0.1367 -0.0312
10132TIP3    H151811   2.199   6.435  11.300 -0.4297 -0.6049 -0.3336
10132TIP3    H251812   2.247   6.542  11.204  0.5186 -0.5320  0.2218
10133TIP3   OH251813   1.797   3.508  17.016  0.8032 -0.0993  0.4752
10133TIP3    H151814   1.714   3.464  17.035  0.8697 -0.2322  0.4602
10133TIP3    H251815   1.773   3.584  16.964  0.7618 -0.5359 -0.1443
10134TIP3   OH251816   2.551   4.168   1.898 -0.4202 -0.8385 -0.0582
10134TIP3    H151817   2.490   4.242   1.891  2.3200  1.5285  0.3017
10134TIP3    H251818   2.611   4.179   1.824 -0.2104 -2.9960 -0.2620
10135TIP3   OH251819   1.192   1.202  13.981 -0.9237 -0.0460  0.3766
10135TIP3    H151820   1.239   1.183  14.063  1.8976  1.7785 -0.7153
10135TIP3    H251821   1.131   1.272  14.005 -1.8063 -1.1494  1.4157
10136TIP3   OH251822   6.607   3.447   2.461 -0.1112 -0.3914  0.3571
10136TIP3    H151823   6.593   3.429   2.368 -0.5928  0.1075  0.3297
10136TIP3    H251824   6.524   3.427   2.503 -0.5358  1.3385  0.3811
10137TIP3   OH251825   1.572   2.225  15.619  0.1781  0.8162  0.0436
10137TIP3    H151826   1.571   2.320  15.602 -1.4069  0.9081  0.5470
10137TIP3    H251827   1.548   2.217  15.711 -0.8291 -0.1274 -0.2912
10138TIP3   OH251828   6.679   6.698  17.203 -0.2644  0.3796 -0.0282
10138TIP3    H151829   6.638   6.734  17.125  0.5257 -0.5431 -0.8908
10138TIP3    H251830   6.633   6.615  17.218 -1.3695  1.2086  1.3288
10139TIP3   OH251831   3.513   3.848  15.141 -0.2865  1.1038  0.0381
10139TIP3    H151832   3.600   3.857  15.102 -0.3097 -1.4684 -0.6699
10139TIP3    H251833   3.459   3.914  15.095  0.9260  1.7030 -0.5451
10140TIP3   OH251834   1.497   5.967  15.448 -0.1027 -0.0883  0.5160
10140TIP3    H151835   1.533   5.915  15.519  0.4505 -1.4165 -0.7271
10140TIP3    H251836   1.440   6.030  15.492  1.6972  0.3685  2.2960
10141TIP3   OH251837   2.014   3.469   2.604 -0.4747  0.1757 -0.5340
10141TIP3    H151838   1.922   3.443   2.610 -0.8302  1.6694  0.9094
10141TIP3    H251839   2.060   3.408   2.660 -0.4836 -0.9889 -1.7751
10142TIP3   OH251840   2.792   6.615   4.690 -0.6976 -0.5188  0.1938
10142TIP3    H151841   2.818   6.693   4.738  1.3030 -1.3971  0.6004
10142TIP3    H251842   2.825   6.630   4.601 -0.9550 -0.5826  0.0873
10143TIP3   OH251843   1.633   1.884  14.538 -0.0667 -0.0204 -0.2601
10143TIP3    H151844   1.728   1.876  14.542 -0.0610  0.1973  0.0704
10143TIP3    H251845   1.618   1.977  14.521 -0.2666  0.3760  1.8678
10144TIP3   OH251846   2.076   1.064   6.245  0.0498  0.0710  0.1028
10144TIP3    H151847   2.089   1.129   6.175 -1.5149  1.6445  1.2356
10144TIP3    H251848   2.034   0.990   6.201  0.6783  0.3414 -0.9684
10145TIP3   OH251849   6.008   3.501   0.402 -0.3217  0.7356 -0.3477
10145TIP3    H151850   6.009   3.424   0.346 -2.2259  1.5920 -1.6081
10145TIP3    H251851   5.939   3.483   0.466 -0.4365  1.1799 -0.3451
10146TIP3   OH251852   5.181   0.159   3.634 -0.8506  0.1802  0.2074
10146TIP3    H151853   5.118   0.087   3.628 -3.1384  2.0105  1.6346
10146TIP3    H251854   5.266   0.116   3.625 -2.2604 -2.3228 -2.0573
10147TIP3   OH251855   3.184   6.655   5.862 -0.0305  0.4074 -0.5155
10147TIP3    H151856   3.139   6.685   5.941 -1.8910 -0.1575 -1.3281
10147TIP3    H251857   3.268   6.701   5.864 -0.8294  1.8798  0.7977
10148TIP3   OH251858   2.488   6.650  15.690 -0.1092 -0.3888  0.1958
10148TIP3    H151859   2.442   6.725  15.653 -1.8147 -1.2117  0.6223
10148TIP3    H251860   2.515   6.678  15.778  1.7368  0.6815 -0.6746
10149TIP3   OH251861   0.941   4.983  14.233 -0.7635  0.4060 -0.2574
10149TIP3    H151862   0.887   5.062  14.225 -0.0924  0.9676  0.6493
10149TIP3    H251863   0.945   4.965  14.327  0.7052  0.4453 -0.2937
10150TIP3   OH251864   3.553   6.529  15.731  0.0335 -0.3266 -0.1090
10150TIP3    H151865   3.519   6.478  15.804 -0.0690 -0.1957 -0.0651
10150TIP3    H251866   3.601   6.466  15.677 -1.0742 -0.7093 -0.6770
10151TIP3   OH251867   0.968   5.116   2.949 -0.2294 -0.0566  0.4978
10151TIP3    H151868   1.051   5.159   2.972  0.4309 -0.4906 -1.0079
10151TIP3    H251869   0.980   5.090   2.857 -0.8038 -3.0185  1.2303
10152TIP3   OH251870   1.712   5.166   3.533  0.0479  0.2144  0.0621
10152TIP3    H151871   1.801   5.197   3.516  0.3493 -0.4760  0.3233
10152TIP3    H251872   1.703   5.089   3.476 -0.2638  0.0901  0.2806
10153TIP3   OH251873   1.783   6.507  11.803 -0.2707  0.2076  0.2721
10153TIP3    H151874   1.867   6.549  11.822 -0.0536 -0.0676 -0.0726
10153TIP3    H251875   1.802   6.448  11.730 -0.9011  0.6219 -0.2380
10154TIP3   OH251876   3.690   5.342   1.307  0.2457  0.2992  0.1974
10154TIP3    H151877   3.633   5.379   1.375  0.9322  3.4461 -0.8551
10154TIP3    H251878   3.702   5.251   1.333 -2.5441  0.4390  2.2528
10155TIP3   OH251879   1.463   0.276  12.135 -0.9720  0.1938 -0.4027
10155TIP3    H151880   1.503   0.233  12.060  0.7286  1.2859 -0.1443
10155TIP3    H251881   1.530   0.336  12.167 -1.5506 -0.4584  2.1641
10156TIP3   OH251882   0.054   1.622   0.852  0.5606  0.0398  0.6734
10156TIP3    H151883   0.073   1.550   0.913 -0.9963 -0.6594  0.3622
10156TIP3    H251884   0.020   1.692   0.908 -1.7126 -0.9215  0.5389
10157TIP3   OH251885   5.732   3.554  12.090  0.2115 -0.2071 -0.6062
10157TIP3    H151886   5.816   3.578  12.129  0.5460  0.3103 -1.6388
10157TIP3    H251887   5.677   3.531  12.165  0.5162  1.8528  0.2818
10158TIP3   OH251888   0.638   0.071   3.462 -0.4949 -0.0826 -0.8842
10158TIP3    H151889   0.731   0.053   3.450 -0.5254 -0.8273 -0.0369
10158TIP3    H251890   0.635   0.153   3.511 -0.3040  0.5685 -1.9581
10159TIP3   OH251891   5.718   1.504  12.927  0.1827  0.1589  0.0499
10159TIP3    H151892   5.750   1.531  13.013 -0.2581  1.3229 -0.1393
10159TIP3    H251893   5.730   1.581  12.871  0.6557 -0.6530 -0.9839
10160TIP3   OH251894   1.058   5.984   6.295  0.0158 -0.0674 -0.5348
10160TIP3    H151895   1.116   5.914   6.266 -0.3489 -0.6413  0.1083
10160TIP3    H251896   0.973   5.963   6.257 -0.6650 -1.2581  1.5461
10161TIP3   OH251897   4.100   5.357  11.956 -0.7981 -0.4415 -0.0183
10161TIP3    H151898   4.152   5.426  11.913 -0.0969 -0.1490  1.2607
10161TIP3    H251899   4.164   5.288  11.975 -1.3420 -1.0922 -0.5339
10162TIP3   OH251900   4.503   3.866  15.003 -0.3939 -0.4505 -0.5479
10162TIP3    H151901   4.538   3.947  14.967 -1.4652  0.0032 -0.5776
10162TIP3    H251902   4.504   3.804  14.930  1.9979 -0.9893 -0.1157
10163TIP3   OH251903   3.711   1.701   3.895 -0.0542 -0.4771  0.3169
10163TIP3    H151904   3.734   1.727   3.984 -0.6009  0.8852  0.0664
10163TIP3    H251905   3.677   1.781   3.854  2.1935 -0.5292 -1.7975
10164TIP3   OH251906   0.863   5.792   3.664  0.5102 -0.5036  0.0891
10164TIP3    H151907   0.920   5.799   3.587  0.0321 -0.5040 -0.2664
10164TIP3    H251908   0.841   5.882   3.686  0.8144 -0.4933  0.3519
10165TIP3   OH251909   4.639   5.274   0.294 -0.0012 -0.3203  0.3238
10165TIP3    H151910   4.711   5.326   0.258  0.8320 -1.4345  0.3571
10165TIP3    H251911   4.682   5.202   0.339 -1.1189 -0.4230  1.2496
10166TIP3   OH251912   5.465   1.294   4.271 -0.5850  1.1421 -0.2896
10166TIP3    H151913   5.481   1.388   4.263 -1.4392  1.4092  0.9574
10166TIP3    H251914   5.521   1.266   4.343  0.5554  0.4556 -1.4247
10167TIP3   OH251915   0.035   4.281   4.130  0.2630  0.3009 -0.1984
10167TIP3    H151916   0.035   4.225   4.208  0.8786 -1.1252 -1.2015
10167TIP3    H251917  -0.045   4.258   4.083  0.3362  0.5248 -0.4347
10168TIP3   OH251918   0.557   1.098   6.508 -0.1255  0.2778 -0.3311
10168TIP3    H151919   0.608   1.019   6.523 -0.0511  0.6082  1.2676
10168TIP3    H251920   0.499   1.077   6.435 -0.8002 -1.5873  0.7073
10169TIP3   OH251921   4.736   2.118   0.496 -0.4062 -0.4494  0.2216
10169TIP3    H151922   4.804   2.120   0.564 -1.1363  0.3788  0.9466
10169TIP3    H251923   4.672   2.055   0.527 -0.9726  0.2710  0.5441
10170TIP3   OH251924   5.934   5.662  12.135  0.4339 -0.5413  0.1203
10170TIP3    H151925   5.861   5.647  12.075  1.2120  1.6887 -1.4204
10170TIP3    H251926   6.009   5.621  12.093  0.9026  0.6903 -0.2380
10171TIP3   OH251927   5.877   3.716   1.534  0.0217  0.5716 -0.1778
10171TIP3    H151928   5.959   3.673   1.558  0.3023  2.3343  2.1988
10171TIP3    H251929   5.900   3.771   1.459  1.4391  2.1671  1.3588
10172TIP3   OH251930   4.139   3.223  13.065  0.5685 -0.3727 -0.7570
10172TIP3    H151931   4.085   3.289  13.021 -1.3913  0.8756  3.3390
10172TIP3    H251932   4.228   3.260  13.063  0.1101  0.7058 -1.6680
10173TIP3   OH251933   4.353   1.581  11.870  0.3475 -0.4101  0.2135
10173TIP3    H151934   4.372   1.669  11.839 -0.2783  0.0572  1.1203
10173TIP3    H251935   4.436   1.533  11.862  0.3378 -0.1422 -1.5965
10174TIP3   OH251936   1.383   3.152  14.067  0.1764  0.0182 -0.3784
10174TIP3    H151937   1.304   3.202  14.046  0.3560 -0.0185 -1.1260
10174TIP3    H251938   1.445   3.219  14.097 -0.5589 -0.0922  1.4955
10175TIP3   OH251939   6.768   5.055  12.108  0.2609  0.5206 -0.2179
10175TIP3    H151940   6.687   5.106  12.106  0.1578  0.4446  1.1035
10175TIP3    H251941   6.827   5.108  12.162  0.4406 -0.3407  0.4436
10176TIP3   OH251942   4.904   2.023   2.441 -0.8431  0.2698 -0.0185
10176TIP3    H151943   4.869   2.013   2.530 -2.0780 -0.6481 -0.5902
10176TIP3    H251944   4.828   2.008   2.384  0.3502 -1.1173 -1.2893
10177TIP3   OH251945   4.739   0.229   0.401 -0.5631  0.3832  0.3757
10177TIP3    H151946   4.786   0.306   0.433 -1.3995  1.2380 -0.4093
10177TIP3    H251947   4.700   0.258   0.319  2.3168 -2.0306 -1.9276
10178TIP3   OH251948   6.205   3.999  15.113  0.1554  0.3540 -0.2372
10178TIP3    H151949   6.136   3.933  15.106  0.4398  0.1529 -1.2536
10178TIP3    H251950   6.183   4.048  15.192 -0.8576 -0.0454 -0.2595
10179TIP3   OH251951   2.801   2.897  15.471  0.1847  0.1022 -0.3481
10179TIP3    H151952   2.824   2.817  15.423 -0.2312  0.4346 -1.1179
10179TIP3    H251953   2.716   2.879  15.510 -1.0383  0.9932 -2.5078
10180TIP3   OH251954   3.811   6.475  16.611 -0.3510  0.4168  0.0941
10180TIP3    H151955   3.904   6.464  16.594 -0.8787 -1.4560 -1.8610
10180TIP3    H251956   3.805   6.553  16.666  2.2757  1.0695 -0.5010
10181TIP3   OH251957   2.401   5.202  14.687  0.2377 -0.0672  0.2183
10181TIP3    H151958   2.489   5.209  14.649 -0.3092  2.6190 -0.7170
10181TIP3    H251959   2.413   5.228  14.779  0.5695 -0.6087  0.3301
10182TIP3   OH251960   1.135   2.467   1.289 -0.4850  0.7762  0.4911
10182TIP3    H151961   1.186   2.387   1.304  2.3860  2.3095 -0.7298
10182TIP3    H251962   1.157   2.523   1.364 -0.3405  1.4522 -0.0507
10183TIP3   OH251963   6.608   3.706   1.813 -0.1777 -0.4484  0.6915
10183TIP3    H151964   6.619   3.784   1.866 -1.2338 -0.1078  0.4152
10183TIP3    H251965   6.632   3.734   1.724  0.0970 -0.6155  0.7124
10184TIP3   OH251966   5.262   5.466   4.753  0.2218  0.0569 -0.1992
10184TIP3    H151967   5.179   5.462   4.706 -0.0872 -1.2308  0.4223
10184TIP3    H251968   5.238   5.472   4.845  0.8206  1.1657 -0.1155
10185TIP3   OH251969   2.363   4.996  12.250 -0.6488  0.1255 -0.2619
10185TIP3    H151970   2.280   5.000  12.299 -0.2388 -0.3136  0.4859
10185TIP3    H251971   2.342   4.946  12.171 -1.3563  0.9698 -0.6097
10186TIP3   OH251972   2.149   0.739   2.049  0.0499 -0.3173  0.5695
10186TIP3    H151973   2.123   0.828   2.072 -0.4784 -0.7743  1.7573
10186TIP3    H251974   2.090   0.715   1.977 -0.5567 -0.1095  0.9888
10187TIP3   OH251975   5.955   4.092   2.249 -0.1565 -0.4021  0.0036
10187TIP3    H151976   6.028   4.041   2.212 -0.5153 -1.5078  0.8075
10187TIP3    H251977   5.911   4.032   2.309 -1.8459  0.2065 -0.5926
10188TIP3   OH251978   5.969   0.354   5.454 -0.2216  0.5938 -0.4665
10188TIP3    H151979   6.010   0.271   5.431 -0.5091  0.0871  0.8277
10188TIP3    H251980   6.041   0.417   5.456  0.3036 -0.0413  0.5716
10189TIP3   OH251981   1.667   3.153  15.191  0.6039 -0.7856  0.1238
10189TIP3    H151982   1.691   3.188  15.277 -1.2294 -1.0202  0.7424
10189TIP3    H251983   1.680   3.058  15.200  1.7740 -0.6846 -0.3255
10190TIP3   OH251984   5.323   1.216   1.009  0.6309 -0.0490  0.1672
10190TIP3    H151985   5.330   1.282   0.940  2.0745 -0.5946 -0.2270
10190TIP3    H251986   5.411   1.180   1.017  0.3956 -0.2576  2.0487
10191TIP3   OH251987   3.962   6.297   0.908 -0.2781  0.3018 -0.1560
10191TIP3    H151988   3.880   6.247   0.903 -0.7520  0.6952  2.8165
10191TIP3    H251989   4.024   6.238   0.951  1.0140  0.0483 -2.2988
10192TIP3   OH251990   4.290   2.244  15.642  0.3281 -0.1873  0.2764
10192TIP3    H151991   4.358   2.208  15.585 -0.7407  0.7415 -1.6514
10192TIP3    H251992   4.221   2.177  15.643 -0.3992  0.5029 -0.9732
10193TIP3   OH251993   0.725   4.819  12.846  0.4668  0.2703 -0.3017
10193TIP3    H151994   0.724   4.792  12.754 -1.4329 -0.8212  0.0259
10193TIP3    H251995   0.636   4.806  12.877  0.9741  1.0386  1.5950
10194TIP3   OH251996   4.492   5.625  13.535  0.0602  0.6224 -0.6188
10194TIP3    H151997   4.448   5.629  13.619  3.9938 -1.4911  1.7183
10194TIP3    H251998   4.459   5.544  13.495  0.2670  0.1096  0.2231
10195TIP3   OH251999   5.121   3.158   0.478 -0.3142 -0.1412  0.0222
10195TIP3    H152000   5.070   3.174   0.557 -0.6463  0.3961 -0.2959
10195TIP3    H252001   5.211   3.149   0.509 -0.2080  1.6687  0.3119
10196TIP3   OH252002   6.447   1.630   5.667 -0.3144  0.4076  0.0722
10196TIP3    H152003   6.464   1.537   5.654 -1.0134 -0.0105  2.0334
10196TIP3    H252004   6.436   1.640   5.761 -1.3478  2.2785 -0.2173
10197TIP3   OH252005   1.141   4.147   6.183  0.4031  0.2730  0.0744
10197TIP3    H152006   1.051   4.126   6.210 -0.0033 -0.2162 -1.5522
10197TIP3    H252007   1.137   4.239   6.159  0.4411  0.3667  0.4312
10198TIP3   OH252008   2.423   1.626  13.771  0.1311 -0.6182 -0.0044
10198TIP3    H152009   2.397   1.694  13.709  1.1395 -0.7857 -0.6236
10198TIP3    H252010   2.518   1.616  13.758 -0.1897 -3.0484 -0.8614
10199TIP3   OH252011   5.809   5.294   5.602  0.0699 -0.2524  0.6692
10199TIP3    H152012   5.752   5.250   5.665  0.6348  0.0018  1.3654
10199TIP3    H252013   5.800   5.387   5.622 -0.2982 -0.1161 -0.0994
10200TIP3   OH252014   0.610   1.592   3.704  0.3008  0.4309  0.0236
10200TIP3    H152015   0.612   1.532   3.778  0.0718 -0.3915 -0.6380
10200TIP3    H252016   0.658   1.547   3.635  1.1347  1.4926 -0.1149
10201TIP3   OH252017   0.563   3.204   3.890 -0.2423 -0.5299 -0.0756
10201TIP3    H152018   0.601   3.141   3.828  1.6378  0.5502 -0.0504
10201TIP3    H252019   0.577   3.289   3.849 -0.0095  0.0982  1.3057
10202TIP3   OH252020   0.921   1.596   4.511 -0.0598 -0.0459 -0.1401
10202TIP3    H152021   0.910   1.676   4.563 -2.8560 -0.0385 -0.7004
10202TIP3    H252022   0.858   1.604   4.440  0.3814 -2.2611 -0.8246
10203TIP3   OH252023   5.944   0.350  11.295  0.1349 -0.4057  0.0338
10203TIP3    H152024   5.961   0.423  11.235  0.0487 -0.8106 -0.4883
10203TIP3    H252025   5.862   0.373  11.339 -0.4782 -0.7127 -0.9456
10204TIP3   OH252026   1.126   3.236  10.727 -0.4237 -0.7907  0.5043
10204TIP3    H152027   1.189   3.308  10.729 -0.4898 -0.5824 -2.2909
10204TIP3    H252028   1.080   3.241  10.811  1.3857  0.7721  1.4285
10205TIP3   OH252029   2.903   0.740  10.899 -0.6463  0.2845 -0.2437
10205TIP3    H152030   2.897   0.800  10.825 -1.1171 -1.4952 -1.6871
10205TIP3    H252031   2.903   0.652  10.860  1.1421 -0.6676  1.7226
10206TIP3   OH252032   2.105   0.568  10.628  0.0033 -0.1726 -0.0835
10206TIP3    H152033   2.086   0.656  10.661  1.1750 -0.0123  0.1635
10206TIP3    H252034   2.019   0.530  10.610 -0.5114  0.9427  0.0273
10207TIP3   OH252035   3.345   1.312   4.415  0.4028  0.1745  0.2970
10207TIP3    H152036   3.335   1.232   4.364  2.9082 -1.1926  1.7989
10207TIP3    H252037   3.435   1.307   4.448 -0.7543  1.5719  3.8277
10208TIP3   OH252038   1.831   6.337  11.577 -0.4815 -0.4254 -0.5111
10208TIP3    H152039   1.738   6.350  11.562 -0.5789 -2.1671 -1.6217
10208TIP3    H252040   1.855   6.266  11.517  1.9543  1.2411 -1.5689
10209TIP3   OH252041   2.244   4.576  12.656  0.0182 -0.2597 -0.0374
10209TIP3    H152042   2.261   4.615  12.742  1.6825  0.5662 -0.7363
10209TIP3    H252043   2.255   4.648  12.594 -0.0199 -1.1170 -1.0522
10210TIP3   OH252044   4.445   3.132   3.708 -0.1404  0.1206  0.4400
10210TIP3    H152045   4.481   3.178   3.784 -0.5183  0.3310  0.4934
10210TIP3    H252046   4.378   3.191   3.673  0.7863  0.5147 -0.7163
10211TIP3   OH252047   0.134   2.362   2.475  0.0091  0.4891  0.1211
10211TIP3    H152048   0.179   2.430   2.525  1.2019  0.7783 -1.3230
10211TIP3    H252049   0.162   2.280   2.517  0.7293  0.7434  0.1534
10212TIP3   OH252050   0.309   1.953  13.359  0.1488 -0.0536  0.1037
10212TIP3    H152051   0.304   1.881  13.422 -0.6021 -1.3429 -1.3834
10212TIP3    H252052   0.287   1.912  13.275 -0.5585  1.9804 -0.7248
10213TIP3   OH252053   3.365   4.411   3.908  0.5944 -0.3888  0.3502
10213TIP3    H152054   3.405   4.353   3.842  0.7954  0.1447 -0.0008
10213TIP3    H252055   3.304   4.465   3.858  0.6649 -0.0561  0.6237
10214TIP3   OH252056   1.573   2.668   6.140 -0.0521 -0.5906  0.1387
10214TIP3    H152057   1.512   2.679   6.067  0.4927 -0.3951 -0.2850
10214TIP3    H252058   1.532   2.715   6.212 -0.8834 -1.2841  0.1309
10215TIP3   OH252059   4.355   2.413   4.893 -0.0392 -0.3679  0.1240
10215TIP3    H152060   4.281   2.428   4.952  0.4953  0.7088  0.5376
10215TIP3    H252061   4.340   2.474   4.821 -0.3584 -1.2347 -0.5477
10216TIP3   OH252062   2.139   4.801  11.235 -0.4751 -0.6346 -0.0457
10216TIP3    H152063   2.195   4.846  11.299  1.2265  1.0366 -2.6377
10216TIP3    H252064   2.170   4.711  11.235  1.8739  0.1422 -1.0066
10217TIP3   OH252065   2.398   6.392   3.663 -0.3299  0.0602 -0.9713
10217TIP3    H152066   2.375   6.343   3.583  0.7884  0.1364 -1.3587
10217TIP3    H252067   2.350   6.474   3.656 -1.2024 -0.4386 -0.9573
10218TIP3   OH252068   3.040   3.413  12.299  0.6861  0.3135 -0.1749
10218TIP3    H152069   2.991   3.366  12.232  0.5114  0.0926  0.1099
10218TIP3    H252070   3.119   3.361  12.313  1.5967  1.2880 -1.4961
10219TIP3   OH252071   2.011   3.089   5.623 -0.0533  0.4528  0.2166
10219TIP3    H152072   1.997   2.994   5.626  1.4147  0.2712  1.8452
10219TIP3    H252073   2.080   3.101   5.558 -0.2430  0.4128  0.0061
10220TIP3   OH252074   4.179   5.567  11.802  0.2327  0.3219  0.1036
10220TIP3    H152075   4.273   5.555  11.819  0.3917 -1.6153 -1.8583
10220TIP3    H252076   4.171   5.558  11.707 -1.8924  0.9428  0.2054
10221TIP3   OH252077   6.766   3.974  16.875 -0.2063 -0.7865  0.7786
10221TIP3    H152078   6.760   3.946  16.966 -0.0074  1.7735  1.6283
10221TIP3    H252079   6.684   4.021  16.859  0.2008 -0.3468 -0.0374
10222TIP3   OH252080   4.950   2.221  15.390  0.2641 -0.2005  0.7077
10222TIP3    H152081   4.954   2.303  15.439 -0.4130 -1.2918  2.6296
10222TIP3    H252082   5.037   2.182  15.401  0.2844 -0.1823  0.6068
10223TIP3   OH252083   1.432   5.097   1.089 -0.2182  0.4066 -0.2981
10223TIP3    H152084   1.423   5.053   1.174 -1.0241  0.0576 -0.5667
10223TIP3    H252085   1.404   5.032   1.025 -3.4193  1.9819 -0.5611
10224TIP3   OH252086   1.575   0.527   1.295  0.2278 -0.1113  0.8738
10224TIP3    H152087   1.566   0.485   1.210 -0.0152 -1.0524  1.3607
10224TIP3    H252088   1.488   0.564   1.313  0.4028  0.4776  0.5099
10225TIP3   OH252089   2.035   3.923   2.074  0.5726  0.0718 -0.3185
10225TIP3    H152090   2.103   3.979   2.111 -0.7169  0.6221  1.3354
10225TIP3    H252091   1.993   3.978   2.007 -0.6825  1.1342  1.2914
10226TIP3   OH252092   0.377   0.975  17.118  0.0409  0.1440 -0.2547
10226TIP3    H152093   0.403   0.941  17.203 -1.1386  1.6829  0.7330
10226TIP3    H252094   0.361   1.068  17.132  5.0412  1.6224 -3.3222
10227TIP3   OH252095   6.667   3.016   0.469  0.0645  0.1994  0.1491
10227TIP3    H152096   6.605   3.051   0.534  0.0746  0.6685 -0.0889
10227TIP3    H252097   6.723   2.957   0.519 -0.4259 -0.0461  0.4148
10228TIP3   OH252098   4.018   6.171  16.072 -0.1559 -0.5395  0.5805
10228TIP3    H152099   4.017   6.157  16.167 -0.1925 -0.6541  0.5640
10228TIP3    H252100   4.009   6.083  16.035 -1.0464 -0.4081  0.4728
10229TIP3   OH252101   2.783   5.532  14.366 -0.1586  0.0191  0.0165
10229TIP3    H152102   2.706   5.545  14.310  1.1632  0.7378 -1.6933
10229TIP3    H252103   2.791   5.437  14.374  0.3780 -0.1428 -2.1286
10230TIP3   OH252104   5.133   2.815   5.362  0.2643  0.1615  0.2037
10230TIP3    H152105   5.088   2.873   5.422 -2.2633  2.0280 -3.3315
10230TIP3    H252106   5.168   2.873   5.294 -1.5880 -2.2543 -2.9744
10231TIP3   OH252107   4.070   0.113  13.533  0.1205  0.0476 -0.7976
10231TIP3    H152108   3.976   0.109  13.516  0.3315 -1.2188 -1.6724
10231TIP3    H252109   4.088   0.038  13.590  0.6369  0.1569 -0.8104
10232TIP3   OH252110   6.556   2.213   2.413 -0.1332  0.3360  0.6104
10232TIP3    H152111   6.546   2.308   2.402  4.2962  0.9623  1.0988
10232TIP3    H252112   6.611   2.203   2.490  0.3578 -2.6041 -0.0639
10233TIP3   OH252113   3.947   3.130   2.514 -0.2715  0.3714 -0.0030
10233TIP3    H152114   3.959   3.069   2.441  1.3147  0.5566  0.0735
10233TIP3    H252115   4.018   3.108   2.575 -1.1079  0.7408  1.1132
10234TIP3   OH252116   3.679   5.751  13.778 -0.2578 -0.1754 -0.2905
10234TIP3    H152117   3.615   5.754  13.706 -0.0352 -1.5785 -0.5616
10234TIP3    H252118   3.671   5.662  13.814 -0.2041  0.4399  1.2766
10235TIP3   OH252119   1.612   4.841   1.062  0.2397  0.3589  0.3914
10235TIP3    H152120   1.688   4.805   1.015 -0.0806  0.7930 -0.4834
10235TIP3    H252121   1.556   4.876   0.992 -0.9523 -0.3040  0.9982
10236TIP3   OH252122   2.553   4.359  15.816  0.0133 -0.6419 -0.0514
10236TIP3    H152123   2.516   4.286  15.864  1.8843 -1.4739  0.1831
10236TIP3    H252124   2.591   4.415  15.883 -0.6901  0.1315 -0.2925
10237TIP3   OH252125   4.824   1.287   2.383 -0.7275  1.0416  0.3695
10237TIP3    H152126   4.884   1.248   2.447 -0.6132  1.7099  0.6782
10237TIP3    H252127   4.833   1.381   2.397 -1.9990  1.1365  0.5456
10238TIP3   OH252128   4.079   4.627   5.628 -0.0728  0.5272  0.0138
10238TIP3    H152129   4.026   4.652   5.704  0.1015 -1.1347  0.7018
10238TIP3    H252130   4.020   4.640   5.553 -1.6018 -1.5874  0.7970
10239TIP3   OH252131   0.023   5.866   3.630  0.1770  0.3328 -0.5001
10239TIP3    H152132   0.117   5.882   3.640  0.2751 -0.5090 -0.0356
10239TIP3    H252133  -0.014   5.881   3.717  0.3402 -2.3486  0.0548
10240TIP3   OH252134   3.220   4.853   1.976  0.0408  0.2412 -0.3918
10240TIP3    H152135   3.128   4.859   1.949 -0.5777 -0.6040  1.4603
10240TIP3    H252136   3.245   4.943   1.997 -0.4270  0.4362 -0.6638
10241TIP3   OH252137   4.992   2.671   4.671  0.5263  0.0175  0.0621
10241TIP3    H152138   5.009   2.739   4.606 -1.7106  0.0442 -0.5401
10241TIP3    H252139   5.029   2.706   4.752 -0.0214  1.6685 -0.3769
10242TIP3   OH252140   3.204   5.042   0.519  0.0845 -0.7601  0.1578
10242TIP3    H152141   3.258   5.107   0.563 -1.8349  0.5246  0.6372
10242TIP3    H252142   3.136   5.092   0.474 -0.4365 -2.3167 -0.8377
10243TIP3   OH252143   6.292   3.767  11.891 -0.1578 -0.0968  0.1278
10243TIP3    H152144   6.210   3.717  11.887 -1.1728  1.6367 -2.1387
10243TIP3    H252145   6.266   3.854  11.922  0.9738  0.1725  0.3503
10244TIP3   OH252146   2.491   2.634  14.424 -0.3886  0.0596  0.0441
10244TIP3    H152147   2.556   2.698  14.394 -1.4225  0.7367 -0.7797
10244TIP3    H252148   2.543   2.557  14.445  0.7290  0.6853 -0.3103
10245TIP3   OH252149   1.453   2.821   2.284 -0.8273  0.2031  0.4119
10245TIP3    H152150   1.454   2.872   2.202 -0.1715  0.3558  0.5138
10245TIP3    H252151   1.449   2.730   2.255 -2.0028  0.2951  0.2289
10246TIP3   OH252152   3.707   2.413   2.615  0.2640  0.2509 -0.4500
10246TIP3    H152153   3.657   2.336   2.642 -1.6083  1.5477 -0.0830
10246TIP3    H252154   3.788   2.409   2.665 -0.5105 -0.6269  0.7457
10247TIP3   OH252155   2.663   1.728  16.684  0.1549  0.6411 -0.2570
10247TIP3    H152156   2.646   1.668  16.757  1.5247 -1.0215 -1.2641
10247TIP3    H252157   2.603   1.699  16.615  0.8522  0.3919 -0.7631
10248TIP3   OH252158   6.667   0.367   4.522  0.3258 -0.2570 -0.0621
10248TIP3    H152159   6.694   0.275   4.511 -2.2337 -1.1254  0.5244
10248TIP3    H252160   6.726   0.416   4.466 -0.0744 -2.5655 -2.6087
10249TIP3   OH252161   5.210   1.836   2.089  0.4500 -0.0278  0.2702
10249TIP3    H152162   5.271   1.816   2.160  0.4376 -0.7059  0.0896
10249TIP3    H252163   5.166   1.753   2.071  0.2166  0.2191 -0.3110
10250TIP3   OH252164   3.860   0.535  15.151 -0.3315 -0.2265  0.4402
10250TIP3    H152165   3.914   0.608  15.122  0.4709 -0.4712  1.2947
10250TIP3    H252166   3.800   0.519  15.078 -2.2490  2.9231  1.2688
10251TIP3   OH252167   2.395   1.314   1.802 -0.6684 -0.6553 -0.1281
10251TIP3    H152168   2.304   1.340   1.817 -0.4795  1.2498 -1.9329
10251TIP3    H252169   2.446   1.374   1.857 -0.3720  0.9048 -2.0223
10252TIP3   OH252170   3.641   1.631  15.012  0.2069 -0.2566  0.5443
10252TIP3    H152171   3.661   1.595  15.098 -0.4858 -0.7470  0.4987
10252TIP3    H252172   3.656   1.725  15.022  0.2849 -0.3310  1.1540
10253TIP3   OH252173   4.474   1.837   1.246 -0.1022  0.4743 -0.5057
10253TIP3    H152174   4.568   1.826   1.257  0.1119  1.4299 -1.3510
10253TIP3    H252175   4.451   1.911   1.302  0.2469  2.4790 -2.9322
10254TIP3   OH252176   3.293   5.535   0.725  0.0799  0.6585  0.6036
10254TIP3    H152177   3.386   5.560   0.720  0.3382 -0.1968  1.1126
10254TIP3    H252178   3.248   5.617   0.745  0.8740  0.8368  1.7514
10255TIP3   OH252179   6.048   4.143  14.768  0.1359 -0.1338 -0.1943
10255TIP3    H152180   6.124   4.105  14.810  1.3189  1.7349 -0.5606
10255TIP3    H252181   6.030   4.085  14.694  0.3743 -1.3233  0.6668
10256TIP3   OH252182   5.075   3.636   1.805 -0.1074 -0.5086 -0.5609
10256TIP3    H152183   5.036   3.704   1.861 -0.4507 -1.3956  0.2850
10256TIP3    H252184   5.032   3.555   1.832  0.1448 -1.0352 -1.7267
10257TIP3   OH252185   1.956   1.435   6.199  0.0800 -0.7335 -0.8341
10257TIP3    H152186   2.047   1.419   6.224 -0.2291 -0.1426  0.6744
10257TIP3    H252187   1.905   1.417   6.277 -1.0777 -0.7278 -1.5708
10258TIP3   OH252188   0.239   2.539   4.623  0.2614  0.0294  0.3338
10258TIP3    H152189   0.185   2.580   4.690 -0.2868  2.0480 -1.2790
10258TIP3    H252190   0.179   2.482   4.575  0.0182  0.6660 -0.1306
10259TIP3   OH252191   1.059   1.086  14.898 -0.2546  0.1199 -0.7200
10259TIP3    H152192   1.043   1.181  14.899  2.1991  0.5533 -0.6873
10259TIP3    H252193   0.977   1.049  14.865 -1.8494  2.1143  0.8976
10260TIP3   OH252194   0.815   5.167   5.346 -0.0898  0.3538 -0.4350
10260TIP3    H152195   0.759   5.199   5.275 -1.7774 -0.9635  0.2926
10260TIP3    H252196   0.779   5.082   5.370  2.5216 -0.7653 -0.2698
10261TIP3   OH252197   2.492   3.252   0.937 -0.2054  0.3835  0.3480
10261TIP3    H152198   2.438   3.206   1.002  1.0753 -0.2211  1.0027
10261TIP3    H252199   2.489   3.344   0.963 -0.6861  0.3121  0.5491
10262TIP3   OH252200   3.752   2.363  14.008 -0.5528 -0.1351 -0.2656
10262TIP3    H152201   3.815   2.344  14.078 -0.9928 -2.2635 -0.4158
10262TIP3    H252202   3.694   2.430  14.045  0.7787  0.6481  0.4554
10263TIP3   OH252203   4.224   1.531  12.133 -0.3927  0.4228  0.0282
10263TIP3    H152204   4.213   1.626  12.133 -1.8277  0.2746  0.9537
10263TIP3    H252205   4.188   1.503  12.049 -2.5206  0.4643  0.8781
10264TIP3   OH252206   0.316   6.216   0.946 -0.0561  0.4014 -0.1156
10264TIP3    H152207   0.376   6.192   0.875 -0.2686  0.4234 -0.3047
10264TIP3    H252208   0.229   6.205   0.908 -0.2028 -0.8292  0.5508
10265TIP3   OH252209   0.460   0.600   1.915 -0.2622 -0.2784  0.5662
10265TIP3    H152210   0.481   0.520   1.868 -1.6477 -0.7421  0.7404
10265TIP3    H252211   0.505   0.669   1.866 -1.1753 -0.8339 -1.0669
10266TIP3   OH252212   5.232   6.746  13.230 -0.6647  0.4859  0.4941
10266TIP3    H152213   5.143   6.748  13.196 -0.1866  0.7272 -0.7867
10266TIP3    H252214   5.280   6.692  13.167  0.7042  2.6316 -0.3323
10267TIP3   OH252215   6.439   1.438  15.710  0.4114 -0.1415  0.3564
10267TIP3    H152216   6.459   1.464  15.620  1.3595  2.0504  1.1878
10267TIP3    H252217   6.492   1.359  15.723  1.1890  0.1954 -0.6166
10268TIP3   OH252218   3.186   6.256  13.785  0.0665  0.4584  0.1090
10268TIP3    H152219   3.225   6.297  13.709  2.5105  0.2654  1.2106
10268TIP3    H252220   3.194   6.321  13.855 -2.4280  0.7611  0.1658
10269TIP3   OH252221   4.190   3.919  12.692  0.7002 -0.3619 -0.3976
10269TIP3    H152222   4.108   3.874  12.710  0.3031  0.8367  0.8062
10269TIP3    H252223   4.251   3.848  12.669 -0.5586 -1.2861 -0.9656
10270TIP3   OH252224   5.758   0.827  15.286  0.1850  0.7696  0.3758
10270TIP3    H152225   5.769   0.887  15.212  0.0112 -0.1728 -0.4174
10270TIP3    H252226   5.800   0.746  15.258 -0.8656  0.0401  0.8764
10271TIP3   OH252227   5.975   6.561   4.872 -0.3119  0.4514  0.4441
10271TIP3    H152228   5.935   6.495   4.815  0.0214  0.5165  0.1284
10271TIP3    H252229   5.916   6.636   4.868  0.3206  0.8980 -0.7794
10272TIP3   OH252230   4.355   4.072   3.995  0.0579 -0.3206 -0.2715
10272TIP3    H152231   4.352   4.148   4.054 -0.2081 -0.7023  0.2076
10272TIP3    H252232   4.273   4.076   3.946 -1.0802 -1.6982  1.5041
10273TIP3   OH252233   4.636   4.463   5.165 -0.4096 -0.7852  0.0685
10273TIP3    H152234   4.606   4.375   5.143  0.3303 -0.9403 -0.3328
10273TIP3    H252235   4.731   4.455   5.172 -0.3826 -0.1178  0.4912
10274TIP3   OH252236   3.491   2.817   6.128  0.4551  0.2596  0.7418
10274TIP3    H152237   3.406   2.853   6.152 -0.0555 -1.5576  1.7208
10274TIP3    H252238   3.530   2.883   6.071 -2.2274  0.4704 -0.9302
10275TIP3   OH252239   0.002   3.664   5.417 -0.5176 -0.1542 -0.0227
10275TIP3    H152240   0.013   3.633   5.507 -0.7031  0.2713  0.1491
10275TIP3    H252241   0.079   3.719   5.401 -0.6069 -0.0303 -0.0345
10276TIP3   OH252242   3.738   2.013  12.860 -0.8198 -0.5416  0.9107
10276TIP3    H152243   3.800   2.049  12.796 -3.0193  0.7185 -0.5897
10276TIP3    H252244   3.715   1.927  12.826 -0.4702 -0.7003  1.0729
10277TIP3   OH252245   6.383   6.584  14.645 -0.3534  0.3603 -0.3409
10277TIP3    H152246   6.408   6.660  14.697  0.4144 -0.3281  0.3042
10277TIP3    H252247   6.315   6.541  14.697 -1.3612  1.0522 -1.0870
10278TIP3   OH252248   5.521   3.483   5.025  0.0704  0.6214  0.1216
10278TIP3    H152249   5.438   3.493   5.072  0.0663 -0.1826  0.2972
10278TIP3    H252250   5.497   3.492   4.933 -0.5061 -1.2765  0.0558
10279TIP3   OH252251   6.608   5.432   0.324  0.3692  0.3736  0.3540
10279TIP3    H152252   6.592   5.359   0.263  1.9265 -0.2542  0.6613
10279TIP3    H252253   6.622   5.389   0.409  1.4698  1.0323  0.5031
10280TIP3   OH252254   0.385   5.891   5.762 -0.2261 -0.0270  0.1211
10280TIP3    H152255   0.403   5.971   5.713 -0.4969  0.3164  0.5707
10280TIP3    H252256   0.289   5.890   5.771 -0.1737 -0.0578  0.6789
10281TIP3   OH252257   1.281   0.836  14.708  0.0185 -0.5491  0.5211
10281TIP3    H152258   1.267   0.930  14.701 -0.5594 -0.8126 -2.3212
10281TIP3    H252259   1.201   0.803  14.750 -1.4502 -0.1993 -1.9128
10282TIP3   OH252260   5.340   0.238   0.804  0.1890  0.1534  0.0609
10282TIP3    H152261   5.355   0.272   0.716 -1.5564  2.0694  0.4432
10282TIP3    H252262   5.362   0.311   0.862 -0.1063 -0.5884  1.1228
10283TIP3   OH252263   6.093   0.937  11.285  0.6452 -0.2523 -0.1512
10283TIP3    H152264   6.073   0.975  11.200  1.8563  0.3517 -0.1705
10283TIP3    H252265   6.025   0.970  11.343  0.9575  0.9142 -0.4480
10284TIP3   OH252266   6.757   6.278   6.391 -0.1493 -0.1643  0.1355
10284TIP3    H152267   6.822   6.342   6.362  0.7487 -0.7817  0.7734
10284TIP3    H252268   6.763   6.280   6.487  0.4111 -1.7576  0.1379
10285TIP3   OH252269   2.285   6.245   0.259  0.3029  0.2625  0.7679
10285TIP3    H152270   2.210   6.303   0.251 -0.3482 -0.6807 -0.0567
10285TIP3    H252271   2.294   6.231   0.354 -0.1819  0.8556  0.9031
10286TIP3   OH252272   0.347   1.694   4.666  0.1447 -0.0463  0.7047
10286TIP3    H152273   0.432   1.712   4.708 -0.8186  4.6291  0.9370
10286TIP3    H252274   0.368   1.684   4.573  1.2287 -1.2729  1.0743
10287TIP3   OH252275   3.714   5.883   1.181  0.1496  0.3108 -0.1442
10287TIP3    H152276   3.650   5.882   1.109 -1.8228  0.6415  1.5585
10287TIP3    H252277   3.740   5.791   1.191 -1.0990 -0.0251  0.0512
10288TIP3   OH252278   5.563   6.138  13.751  0.5315 -0.5030 -0.5758
10288TIP3    H152279   5.547   6.147  13.657  1.0679  2.2694 -0.4655
10288TIP3    H252280   5.531   6.220  13.788  1.2816 -1.1249  1.5215
10289TIP3   OH252281   6.379   1.741  15.229  0.3339 -0.2342  0.1793
10289TIP3    H152282   6.331   1.673  15.276 -2.0339  0.3731 -1.2899
10289TIP3    H252283   6.420   1.794  15.298 -2.0870 -0.0698  1.5341
10290TIP3   OH252284   0.058   5.392  10.775 -0.1698  0.3356 -0.7141
10290TIP3    H152285   0.153   5.377  10.778 -0.3845 -0.8882 -0.0093
10290TIP3    H252286   0.025   5.328  10.713 -0.5312  0.8157 -1.0178
10291TIP3   OH252287   5.582   5.782   3.271  0.5291  0.1530 -0.2227
10291TIP3    H152288   5.670   5.776   3.308  1.3742  0.7726 -2.0742
10291TIP3    H252289   5.595   5.819   3.183 -1.6219  0.7768 -0.3192
10292TIP3   OH252290   3.402   4.352   4.668 -0.2303 -0.0597 -0.1777
10292TIP3    H152291   3.453   4.364   4.748  0.1830  0.3742 -0.5053
10292TIP3    H252292   3.317   4.320   4.698  0.0020 -0.1191  0.4156
10293TIP3   OH252293   3.013   6.752   3.568 -0.4151  0.1351 -0.0111
10293TIP3    H152294   3.006   6.829   3.624 -0.3377 -0.9131  1.4602
10293TIP3    H252295   2.940   6.759   3.507 -0.3812  1.3862  0.0872
10294TIP3   OH252296   6.333   3.719   2.486  0.1417  0.3840 -0.3317
10294TIP3    H152297   6.282   3.699   2.408  0.4740  4.3846 -1.7318
10294TIP3    H252298   6.417   3.753   2.453  0.3630  1.9851  1.6907
10295TIP3   OH252299   1.455   6.095   1.403  0.7735 -0.3568 -1.1114
10295TIP3    H152300   1.379   6.115   1.457  1.2145 -2.4435  0.3030
10295TIP3    H252301   1.450   6.001   1.388  2.0958 -0.2146 -2.5252
10296TIP3   OH252302   4.757   2.173   5.481 -0.9676 -0.2035  0.0792
10296TIP3    H152303   4.708   2.121   5.418  0.1097 -1.3154  0.1529
10296TIP3    H252304   4.840   2.127   5.492 -0.2771  1.1435  0.6758
10297TIP3   OH252305   6.548   2.042  15.284 -0.2061 -0.1022 -0.0304
10297TIP3    H152306   6.585   2.114  15.333 -0.9157  1.2704 -1.4708
10297TIP3    H252307   6.612   2.024  15.214  0.1709 -1.1536  0.5731
10298TIP3   OH252308   5.876   4.540  11.977 -1.0953  0.0135 -0.7238
10298TIP3    H152309   5.860   4.581  12.063 -0.2131  0.7198 -0.8912
10298TIP3    H252310   5.802   4.569  11.923 -1.1079  0.4020 -0.4993
10299TIP3   OH252311   0.036   6.176   4.699  0.0629  0.1186  0.1536
10299TIP3    H152312   0.075   6.115   4.762  0.5531  0.1121 -0.1497
10299TIP3    H252313  -0.057   6.156   4.701  0.5004 -2.2182 -1.6281
10300TIP3   OH252314   5.856   3.458  16.175  0.0988  0.6069 -0.0223
10300TIP3    H152315   5.842   3.379  16.228 -0.5159  1.0716  0.5020
10300TIP3    H252316   5.950   3.474  16.182  0.2020  0.0150  0.0006
10301TIP3   OH252317   0.111   0.813  13.938 -0.2963 -0.0267 -0.4671
10301TIP3    H152318   0.086   0.758  13.863 -1.2455 -0.1362 -0.0822
10301TIP3    H252319   0.173   0.759  13.987 -2.2626 -1.3733  0.6589
10302TIP3   OH252320   0.276   1.985   0.771  0.0293  0.2689 -0.7587
10302TIP3    H152321   0.294   1.908   0.717  0.5683 -0.0651 -0.1121
10302TIP3    H252322   0.290   2.060   0.712 -0.0823 -0.1093 -1.2715
10303TIP3   OH252323   6.456   3.139   6.365 -0.3977  0.3640  0.2167
10303TIP3    H152324   6.464   3.200   6.438 -1.0046 -1.7031  2.0654
10303TIP3    H252325   6.393   3.073   6.396  1.4577 -2.0906 -1.0691
10304TIP3   OH252326   5.881   5.197  14.444 -0.4544 -0.2242 -0.1628
10304TIP3    H152327   5.910   5.210  14.354 -0.6491 -3.0839 -0.6979
10304TIP3    H252328   5.937   5.254  14.496  0.9855 -0.0147 -1.9057
10305TIP3   OH252329   0.785   0.057   1.957 -0.4897  0.1680  0.3253
10305TIP3    H152330   0.711   0.020   1.910 -0.8050  1.9443 -0.6282
10305TIP3    H252331   0.753   0.142   1.988  0.6088  0.2143  1.3636
10306TIP3   OH252332   5.873   3.247  14.407  0.8302 -0.0828 -0.0520
10306TIP3    H152333   5.795   3.209  14.367  0.1669  0.8040  0.3970
10306TIP3    H252334   5.852   3.254  14.500  1.5472 -0.0825  0.1179
10307TIP3   OH252335   3.790   1.932  13.305  0.4995  0.0693 -0.0267
10307TIP3    H152336   3.747   1.885  13.376  3.0462  0.0362  1.5844
10307TIP3    H252337   3.747   2.017  13.302 -0.0274 -0.1384  1.2161
10308TIP3   OH252338   0.875   3.897   2.348  0.2207 -0.3390  0.2781
10308TIP3    H152339   0.959   3.915   2.391 -0.1084  2.0193  0.0330
10308TIP3    H252340   0.820   3.860   2.417  0.6465  0.5896  1.1350
10309TIP3   OH252341   3.372   0.110  14.480  0.1467  0.2559  0.1206
10309TIP3    H152342   3.455   0.078  14.443  0.1668 -0.3379  0.6656
10309TIP3    H252343   3.353   0.048  14.550 -1.0614  0.0528 -0.3849
10310TIP3   OH252344   0.350   5.294   3.091 -0.1943  0.0667 -0.1949
10310TIP3    H152345   0.404   5.243   3.151  2.3028  2.8003  0.0054
10310TIP3    H252346   0.286   5.337   3.147 -1.1307 -1.3276 -0.1544
10311TIP3   OH252347   1.648   1.133  12.659 -0.2681  0.1371 -0.1221
10311TIP3    H152348   1.659   1.060  12.599  0.4396  0.7075 -0.6926
10311TIP3    H252349   1.601   1.199  12.609  1.3425  1.0641 -0.4286
10312TIP3   OH252350   5.555   1.319   6.197 -0.5443 -0.3622 -0.0460
10312TIP3    H152351   5.472   1.364   6.211 -1.2813 -2.1975  1.7962
10312TIP3    H252352   5.615   1.361   6.260 -0.3285  0.2891 -0.6789
10313TIP3   OH252353   0.378   5.793  12.235  0.4592 -0.3930  0.1864
10313TIP3    H152354   0.394   5.777  12.328  0.1827  0.4559  0.3880
10313TIP3    H252355   0.465   5.795  12.195  0.6284  0.2030  0.5886
10314TIP3   OH252356   4.660   5.309  10.998 -0.0270  0.0069  0.4842
10314TIP3    H152357   4.603   5.293  10.924  1.7022 -1.1533 -0.6397
10314TIP3    H252358   4.647   5.401  11.020 -1.1010  0.1619 -0.7808
10315TIP3   OH252359   3.126   6.598  12.148  0.4293  0.7326  0.1283
10315TIP3    H152360   3.221   6.590  12.135  0.1580 -0.7730 -1.0432
10315TIP3    H252361   3.092   6.510  12.131 -1.0412  0.9323  1.8781
10316TIP3   OH252362   3.371   5.344   4.024 -0.1620  0.2172  0.9391
10316TIP3    H152363   3.310   5.373   4.091 -0.9194  2.4086 -0.6311
10316TIP3    H252364   3.457   5.369   4.057 -0.4805  0.7922  1.3426
10317TIP3   OH252365   1.907   6.672  14.748 -0.3098 -0.2279 -0.2566
10317TIP3    H152366   1.949   6.742  14.699 -2.7569  1.1050 -0.5097
10317TIP3    H252367   1.909   6.701  14.839 -1.1710  0.1024 -0.3394
10318TIP3   OH252368   6.112   5.498  14.025 -0.1603  0.4904  0.2955
10318TIP3    H152369   6.200   5.523  13.997 -1.2182  0.3977 -3.4113
10318TIP3    H252370   6.108   5.404  14.011 -0.7337  0.4312  0.8398
10319TIP3   OH252371   3.737   6.088   4.204  0.1082 -0.1143 -0.1192
10319TIP3    H152372   3.657   6.078   4.152 -0.0260  0.6777 -0.0732
10319TIP3    H252373   3.804   6.114   4.141  0.3076 -0.6855 -0.1425
10320TIP3   OH252374   6.314   0.804  15.284  0.1374  0.0713 -0.3279
10320TIP3    H152375   6.336   0.831  15.196  1.1438  0.0976 -0.0716
10320TIP3    H252376   6.390   0.828  15.337 -0.3002 -0.2756  0.4770
10321TIP3   OH252377   5.905   6.465  16.150 -0.1685 -0.1139 -0.4077
10321TIP3    H152378   5.919   6.390  16.094  0.4927 -0.9791  0.8925
10321TIP3    H252379   5.869   6.533  16.092  0.5422 -0.9660 -1.8542
10322TIP3   OH252380   4.284   0.775   0.253 -0.5273  0.6870  0.2151
10322TIP3    H152381   4.271   0.869   0.239 -0.3152  0.4132 -1.9491
10322TIP3    H252382   4.196   0.738   0.251 -0.3849  0.3770 -2.7289
10323TIP3   OH252383   0.171   4.833  15.078 -0.4669 -0.0147  0.4074
10323TIP3    H152384   0.078   4.810  15.070 -0.1676 -0.7838 -1.0983
10323TIP3    H252385   0.171   4.926  15.099 -1.5772  0.5197 -1.7551
10324TIP3   OH252386   6.758   6.497   4.353  0.2019  0.3314 -0.0722
10324TIP3    H152387   6.673   6.526   4.318  0.2328  2.5838  1.5866
10324TIP3    H252388   6.778   6.560   4.422  2.9222 -0.5740  0.0309
10325TIP3   OH252389   6.246   3.323  13.219  0.3030  0.2201  0.4887
10325TIP3    H152390   6.167   3.268  13.226  1.0586 -0.6662  2.2269
10325TIP3    H252391   6.215   3.404  13.178 -1.3528 -0.4276  0.4121
10326TIP3   OH252392   6.084   5.564   3.170 -0.4779  0.6101 -0.5265
10326TIP3    H152393   6.005   5.530   3.128 -1.2659  1.2564  0.3843
10326TIP3    H252394   6.099   5.505   3.244 -0.4415  0.8123 -0.3702
10327TIP3   OH252395   2.456   5.135   3.142  0.5702  1.1231  0.0334
10327TIP3    H152396   2.550   5.119   3.137  0.5656  1.3975 -1.2465
10327TIP3    H252397   2.433   5.119   3.233  1.4842 -1.0456 -0.0847
10328TIP3   OH252398   3.592   3.447   2.672  0.1263  0.4221  0.6786
10328TIP3    H152399   3.619   3.355   2.672 -0.1219  0.3357 -0.4030
10328TIP3    H252400   3.572   3.467   2.763  1.1227 -0.3188  1.0639
10329TIP3   OH252401   4.580   5.281   3.689 -0.1608 -0.0578  0.1259
10329TIP3    H152402   4.605   5.191   3.709  0.4782 -0.2384 -1.4318
10329TIP3    H252403   4.634   5.305   3.614  1.1572  2.3394  1.7601
10330TIP3   OH252404   3.920   5.170  10.910  0.1016  0.7639 -0.2115
10330TIP3    H152405   4.001   5.214  10.935  0.2430  0.1241  0.4712
10330TIP3    H252406   3.948   5.103  10.847 -0.0630  1.3893 -0.9524
10331TIP3   OH252407   1.267   3.341  12.025  0.7015 -1.0005  1.0572
10331TIP3    H152408   1.202   3.324  11.956  2.7614  0.1840 -1.2305
10331TIP3    H252409   1.314   3.258  12.034  0.3260 -1.2056  1.1442
10332TIP3   OH252410   1.174   1.001  13.800 -0.2040 -0.3468 -0.1749
10332TIP3    H152411   1.208   1.036  13.882 -1.9209 -2.6405  1.5871
10332TIP3    H252412   1.158   1.078  13.745 -0.5898  1.3528  2.2644
10333TIP3   OH252413   4.925   0.634   5.696 -0.3478  0.1045  0.2442
10333TIP3    H152414   4.856   0.687   5.657 -1.9373 -2.4996 -0.5876
10333TIP3    H252415   4.998   0.694   5.707 -2.1185  2.4704 -0.5819
10334TIP3   OH252416   5.882   1.908   0.005  0.2207  0.3640  0.1893
10334TIP3    H152417   5.917   1.996   0.019  0.2131  0.4031 -0.0439
10334TIP3    H252418   5.791   1.922  -0.019 -0.2231  0.2203  1.7407
10335TIP3   OH252419   4.524   6.785  11.524 -0.4610  0.5293  0.5596
10335TIP3    H152420   4.574   6.703  11.528  0.1907  0.9922  2.2703
10335TIP3    H252421   4.442   6.761  11.480  1.3486 -0.1647 -2.6363
10336TIP3   OH252422   6.685   6.162  16.334  0.2036  0.0554 -0.2174
10336TIP3    H152423   6.728   6.082  16.301  1.7345 -0.0537  1.9282
10336TIP3    H252424   6.662   6.211  16.255  3.2369 -0.4668 -1.5074
10337TIP3   OH252425   2.031   2.801  15.838  0.6808  0.7012 -0.4225
10337TIP3    H152426   1.981   2.723  15.813 -1.4580  1.8020  0.3931
10337TIP3    H252427   1.970   2.874  15.828  1.4857  1.8419  2.4689
10338TIP3   OH252428   1.997   0.287   0.492  0.0280  0.4485 -0.3873
10338TIP3    H152429   1.967   0.311   0.404  0.7812  2.0630 -0.2160
10338TIP3    H252430   1.955   0.350   0.549  1.2587  0.7556  0.1852
10339TIP3   OH252431   3.599   4.174   3.171 -0.3059 -0.2643  0.4199
10339TIP3    H152432   3.548   4.103   3.131 -0.6039 -1.0348  2.1265
10339TIP3    H252433   3.608   4.148   3.262  1.4778  0.8447  0.5699
10340TIP3   OH252434   0.766   6.479  15.701 -0.5260  0.0014  0.2280
10340TIP3    H152435   0.714   6.435  15.768  0.2345  1.1718  1.5947
10340TIP3    H252436   0.813   6.408  15.657 -1.2214 -0.7918  0.7502
10341TIP3   OH252437   6.486   4.736   4.376 -0.6679  1.0141  0.1383
10341TIP3    H152438   6.559   4.684   4.341  0.6160  1.5306  1.9887
10341TIP3    H252439   6.431   4.754   4.299 -0.0411 -1.2689 -0.9012
10342TIP3   OH252440   3.444   1.114   1.842  0.5447 -0.3193 -0.1060
10342TIP3    H152441   3.409   1.180   1.782  1.1221 -0.6927 -0.8661
10342TIP3    H252442   3.485   1.164   1.912 -0.1444  0.1245 -0.0168
10343TIP3   OH252443   3.829   5.672   1.468 -0.0372  0.6829  0.1774
10343TIP3    H152444   3.780   5.671   1.385  2.7613 -1.1335 -1.5088
10343TIP3    H252445   3.918   5.647   1.444  0.9793  0.7203  3.6752
10344TIP3   OH252446   3.607   0.232  11.480 -0.5019  0.2364  0.2529
10344TIP3    H152447   3.549   0.189  11.418 -0.1286  0.5582 -0.3275
10344TIP3    H252448   3.551   0.252  11.556 -1.4105  1.4942 -0.7202
10345TIP3   OH252449   4.624   3.793  12.039  0.6528 -0.1137  0.1623
10345TIP3    H152450   4.697   3.848  12.068  0.5705 -0.3790  0.8926
10345TIP3    H252451   4.623   3.720  12.101  1.3670 -1.4612 -1.3683
10346TIP3   OH252452   2.096   4.461   3.540 -0.0918 -0.2056  0.2773
10346TIP3    H152453   2.154   4.395   3.579  2.0109  0.9840 -0.8180
10346TIP3    H252454   2.112   4.540   3.591 -0.4829  0.2481 -0.3061
10347TIP3   OH252455   6.460   3.795  17.132 -0.2739  0.3142  0.0896
10347TIP3    H152456   6.411   3.829  17.057 -1.1055 -1.2978 -0.1283
10347TIP3    H252457   6.403   3.728  17.170  0.7154  0.1537  1.3406
10348TIP3   OH252458   3.890   3.851   4.872 -0.2985  0.3142 -0.2787
10348TIP3    H152459   3.922   3.829   4.960  0.1642  0.8606 -0.3112
10348TIP3    H252460   3.795   3.838   4.878 -0.0103 -2.0709 -0.4115
10349TIP3   OH252461   5.178   0.572  12.515 -0.0103 -0.0541  0.4041
10349TIP3    H152462   5.191   0.521  12.435  0.7544  0.3347  0.2793
10349TIP3    H252463   5.221   0.656  12.498 -0.3391  0.2453  1.0119
10350TIP3   OH252464   3.088   1.152  14.212 -0.0794  0.4917  0.5646
10350TIP3    H152465   3.044   1.114  14.288 -0.5430 -0.3930 -0.1369
10350TIP3    H252466   3.079   1.246  14.223  0.6969  0.4011  2.0969
10351TIP3   OH252467   3.710   3.761  13.427 -0.7253 -0.3416 -0.1287
10351TIP3    H152468   3.638   3.785  13.368 -0.0425 -0.2905 -0.9525
10351TIP3    H252469   3.731   3.670  13.403 -0.3994 -0.2988 -0.0097
10352TIP3   OH252470   1.191   3.965   1.502 -0.2268  0.0612  0.6909
10352TIP3    H152471   1.133   3.938   1.572  0.8824 -1.8454  0.9025
10352TIP3    H252472   1.278   3.967   1.542  0.1781  0.6758 -0.1880
10353TIP3   OH252473   6.574   1.552   4.920  0.4676 -0.3916 -0.1239
10353TIP3    H152474   6.530   1.636   4.901  0.5421 -0.6948 -1.7351
10353TIP3    H252475   6.624   1.533   4.841  0.6539 -1.8452  0.3292
10354TIP3   OH252476   4.852   2.789   0.900 -0.1521 -0.7070 -0.0887
10354TIP3    H152477   4.813   2.873   0.875 -0.0564 -0.8721 -0.7876
10354TIP3    H252478   4.800   2.761   0.976  0.1814  0.2537  0.5002
10355TIP3   OH252479   5.040   3.044   0.732  0.0854  0.2073 -0.1015
10355TIP3    H152480   5.096   2.966   0.731  1.2786  1.0545 -2.5704
10355TIP3    H252481   5.013   3.052   0.824 -0.0085 -3.0395  0.2251
10356TIP3   OH252482   6.220   6.417   4.844  0.3153 -0.1717  0.3494
10356TIP3    H152483   6.192   6.359   4.774  2.1637  1.8417 -2.1408
10356TIP3    H252484   6.143   6.470   4.864 -0.2777 -0.8981  0.0012
10357TIP3   OH252485   4.381   3.456   1.297 -0.4850 -0.0559  0.3235
10357TIP3    H152486   4.452   3.511   1.264 -0.7020  0.2969  0.4415
10357TIP3    H252487   4.355   3.497   1.380 -0.1856 -0.7278  0.7570
10358TIP3   OH252488   1.990   1.207   1.567 -0.4726 -0.5683 -0.2818
10358TIP3    H152489   2.084   1.219   1.581 -0.5974 -0.3859  0.4014
10358TIP3    H252490   1.981   1.115   1.543  0.1531 -0.0374 -2.6915
10359TIP3   OH252491   2.920   2.491  15.039 -0.0723  0.3516  0.0448
10359TIP3    H152492   2.986   2.469  14.973 -0.2814  0.9766 -0.3696
10359TIP3    H252493   2.837   2.463  15.001 -0.2192  0.9148 -0.0544
10360TIP3   OH252494   3.846   1.755   3.342  0.1672  0.0592  0.2703
10360TIP3    H152495   3.755   1.744   3.312  0.0996 -1.5350  1.0377
10360TIP3    H252496   3.839   1.814   3.417  0.0972  2.2246 -1.3614
10361TIP3   OH252497   1.053   6.761  12.458 -0.1890  0.4270  0.9703
10361TIP3    H152498   0.989   6.691  12.442 -1.5076  0.9997  3.5474
10361TIP3    H252499   1.096   6.737  12.540 -0.3237  2.3874  1.6414
10362TIP3   OH252500   3.229   2.413   2.339 -0.0283 -0.2918  0.0184
10362TIP3    H152501   3.277   2.488   2.302 -0.0301 -0.8071 -1.0540
10362TIP3    H252502   3.294   2.365   2.390  0.3050 -0.2993 -0.4058
10363TIP3   OH252503   5.323   2.061  12.741 -0.0247 -0.0632  0.4615
10363TIP3    H152504   5.388   2.127  12.718 -0.4936  0.4759  0.6788
10363TIP3    H252505   5.243   2.111  12.758  0.0777 -0.5223  2.3576
10364TIP3   OH252506   2.734   1.056   4.075 -0.3462  0.3277 -0.2615
10364TIP3    H152507   2.817   1.099   4.051 -0.1311  0.9767  1.5081
10364TIP3    H252508   2.673   1.080   4.005  0.7407  0.5415 -1.1481
10365TIP3   OH252509   0.467   4.479  14.789  0.6742 -0.2805 -0.7094
10365TIP3    H152510   0.450   4.555  14.844 -0.0122 -0.2636 -0.9407
10365TIP3    H252511   0.542   4.435  14.830 -1.2746 -1.5774  1.5925
10366TIP3   OH252512   5.234   2.776  12.374 -0.9217  0.3126  0.2425
10366TIP3    H152513   5.165   2.756  12.310 -2.4133  0.1365  1.8725
10366TIP3    H252514   5.261   2.866  12.353  0.0490 -0.4411 -1.9005
10367TIP3   OH252515   6.214   4.134  11.126  0.6007  0.0146 -0.3964
10367TIP3    H152516   6.128   4.123  11.087  1.1746 -2.5156 -1.1051
10367TIP3    H252517   6.249   4.214  11.086 -1.1308  0.6822 -0.6115
10368TIP3   OH252518   5.792   3.934   1.826  0.6140  0.7146 -0.7175
10368TIP3    H152519   5.868   3.983   1.796  1.0150 -0.9816 -2.6209
10368TIP3    H252520   5.745   3.912   1.745 -1.8029  1.5768  0.4168
10369TIP3   OH252521   6.401   1.967   2.498 -0.4401  0.7247  0.5922
10369TIP3    H152522   6.404   1.930   2.410  0.0079 -0.9017  1.2815
10369TIP3    H252523   6.434   2.056   2.487  0.7910  0.1365 -0.6934
10370TIP3   OH252524   4.946   6.660   4.443 -0.6376 -0.0928  0.2065
10370TIP3    H152525   5.027   6.699   4.410 -0.1313 -0.9677  0.3911
10370TIP3    H252526   4.975   6.604   4.515 -1.3936 -0.5446  0.1555
10371TIP3   OH252527   4.114   3.065  15.708 -0.2440  0.0521 -0.2728
10371TIP3    H152528   4.058   3.140  15.689 -1.3703 -0.5414  0.6634
10371TIP3    H252529   4.056   3.001  15.750  1.2984 -0.2411  1.4955
10372TIP3   OH252530   0.292   0.718   0.488  0.2946  0.0579  0.0511
10372TIP3    H152531   0.317   0.708   0.396  1.1263  0.1493  0.2689
10372TIP3    H252532   0.273   0.811   0.498 -1.1673 -0.1842 -0.3731
10373TIP3   OH252533   2.557   1.769   5.244 -0.4042 -0.1526  0.3546
10373TIP3    H152534   2.532   1.731   5.160 -2.2554  1.1840  0.2821
10373TIP3    H252535   2.617   1.840   5.220 -0.7684  0.0977  0.1890
10374TIP3   OH252536   4.174   2.622  16.077  0.4925 -0.0209 -0.0034
10374TIP3    H152537   4.080   2.607  16.064  0.6284 -0.9284  0.0047
10374TIP3    H252538   4.207   2.640  15.990  0.7080 -2.0830 -0.3789
10375TIP3   OH252539   5.292   0.164   2.972 -0.1387  0.3125 -0.6557
10375TIP3    H152540   5.291   0.259   2.958 -0.2733  0.4539  0.2635
10375TIP3    H252541   5.380   0.137   2.944  0.6857  1.0448  1.1347
10376TIP3   OH252542   4.686   3.857  12.968 -0.1610  0.4443  0.2469
10376TIP3    H152543   4.707   3.876  13.060 -0.1484 -0.8581  0.5294
10376TIP3    H252544   4.616   3.791  12.973  2.0529 -2.0717 -0.6445
10377TIP3   OH252545   6.079   3.830  14.320 -0.4717  0.1955  0.4826
10377TIP3    H152546   6.008   3.859  14.262  0.1996  1.3174  0.1982
10377TIP3    H252547   6.151   3.809  14.260 -0.2605 -0.0392  0.8245
10378TIP3   OH252548   3.852   5.713   3.390 -0.5973  0.3661 -0.7586
10378TIP3    H152549   3.775   5.703   3.334 -2.0408 -1.8115  1.5085
10378TIP3    H252550   3.915   5.648   3.357 -0.7649  0.2954 -0.9360
10379TIP3   OH252551   3.405   2.406   2.022 -0.1075  0.3920 -0.5597
10379TIP3    H152552   3.323   2.455   2.018  0.6599  1.6335 -1.9619
10379TIP3    H252553   3.471   2.473   2.039  0.7566 -0.4210 -0.6793
10380TIP3   OH252554   1.639   0.622   4.892 -0.2760 -0.1906  0.1947
10380TIP3    H152555   1.684   0.542   4.919  1.8388  0.2409 -1.8796
10380TIP3    H252556   1.699   0.693   4.916 -0.2688  0.4680 -1.6914
10381TIP3   OH252557   0.152   1.026  13.560 -0.1179  0.4112 -0.5479
10381TIP3    H152558   0.148   1.000  13.468 -2.4860 -0.0963 -0.3353
10381TIP3    H252559   0.102   1.108  13.563 -1.4445 -0.4286  0.5578
10382TIP3   OH252560   5.508   3.737   5.460 -0.2514  0.4312  0.4049
10382TIP3    H152561   5.545   3.805   5.404 -0.5905 -0.1095 -0.4789
10382TIP3    H252562   5.420   3.724   5.427 -0.4301  0.0618  1.0259
10383TIP3   OH252563   0.790   4.091  16.994  0.2971  0.7915 -0.2762
10383TIP3    H152564   0.709   4.125  17.031 -0.2362 -0.0595 -0.6421
10383TIP3    H252565   0.790   3.998  17.018  0.8031  0.6280 -0.8868
10384TIP3   OH252566   0.539   4.187   1.137 -0.1878  0.2706  0.4284
10384TIP3    H152567   0.508   4.277   1.140 -1.2280  0.0872 -3.0032
10384TIP3    H252568   0.459   4.134   1.126  0.7369 -0.6746 -2.1880
10385TIP3   OH252569   1.783   2.887   4.881  0.5917 -0.5147  0.3230
10385TIP3    H152570   1.741   2.801   4.874 -0.3622 -0.1876  1.9540
10385TIP3    H252571   1.822   2.901   4.794  0.1955 -2.2899 -0.1662
10386TIP3   OH252572   5.700   5.368   0.267 -0.2133 -0.0139 -0.2083
10386TIP3    H152573   5.619   5.345   0.313  0.6997  1.8878  2.4712
10386TIP3    H252574   5.752   5.287   0.269 -0.0056  0.1215  2.6436
10387TIP3   OH252575   0.462   6.567   1.817 -0.4705  0.0203 -0.5001
10387TIP3    H152576   0.471   6.559   1.722  2.0037  0.9132 -0.3896
10387TIP3    H252577   0.510   6.492   1.852  0.9994  1.2037  0.0713
10388TIP3   OH252578   2.702   3.064  14.198  0.6964 -0.0608  0.9518
10388TIP3    H152579   2.778   3.079  14.254  0.3680 -0.7935  1.6033
10388TIP3    H252580   2.700   2.969  14.185  0.3911  0.0416  0.2236
10389TIP3   OH252581   2.262   5.007   4.736  0.6853  0.0932  0.1694
10389TIP3    H152582   2.351   5.041   4.740  0.5369  0.5895 -0.6310
10389TIP3    H252583   2.249   4.962   4.820  2.0013 -0.7444 -0.0658
10390TIP3   OH252584   4.947   3.881   2.765  0.5553 -0.0958  0.0855
10390TIP3    H152585   4.962   3.865   2.858  2.2364 -1.7858 -0.4574
10390TIP3    H252586   4.855   3.908   2.760  0.5800  0.4680  2.2730
10391TIP3   OH252587   6.072   1.226   5.408  0.1413 -0.3809  0.4441
10391TIP3    H152588   6.119   1.143   5.399  2.3756  1.0288 -1.8990
10391TIP3    H252589   6.111   1.268   5.484 -1.3844 -1.6819  1.9742
10392TIP3   OH252590   3.394   0.692   1.037 -0.3987  0.5314  0.1968
10392TIP3    H152591   3.354   0.633   1.102 -0.7703  0.6851  0.1098
10392TIP3    H252592   3.487   0.669   1.038 -0.7706 -1.0722 -0.8862
10393TIP3   OH252593   4.590   2.558  10.773 -0.3207 -0.1101 -0.2160
10393TIP3    H152594   4.605   2.489  10.709  1.7025  0.2691 -0.1938
10393TIP3    H252595   4.671   2.609  10.772 -1.2117  1.3642  0.8564
10394TIP3   OH252596   4.593   4.079   5.447 -0.2416 -0.0749 -0.2293
10394TIP3    H152597   4.546   4.084   5.364 -1.1946  1.4897  0.3799
10394TIP3    H252598   4.684   4.096   5.425  0.0106 -2.5561 -1.3421
10395TIP3   OH252599   5.735   2.970  15.902  0.0450  0.1894  0.2832
10395TIP3    H152600   5.779   2.997  15.982 -0.2417  0.3369  0.3918
10395TIP3    H252601   5.802   2.924  15.851 -0.2354 -1.5316  1.4215
10396TIP3   OH252602   0.265   5.839  15.955  0.2518 -0.6524 -0.7090
10396TIP3    H152603   0.181   5.881  15.940  0.1830 -1.5484 -2.9940
10396TIP3    H252604   0.322   5.910  15.986 -1.0383  0.1714 -0.1851
10397TIP3   OH252605   2.265   5.171   0.738  0.6938 -0.2373  0.4772
10397TIP3    H152606   2.316   5.218   0.804  1.3154  0.3577 -0.4130
10397TIP3    H252607   2.210   5.239   0.698  0.5924 -0.5186  0.1332
10398TIP3   OH252608   3.194   5.362  12.844  0.9181  0.8415 -0.3665
10398TIP3    H152609   3.249   5.382  12.920  0.0286  0.1740  0.4659
10398TIP3    H252610   3.255   5.362  12.770  1.5305  3.0585  0.0993
10399TIP3   OH252611   3.887   6.157   5.186 -0.8370 -0.3752  0.1292
10399TIP3    H152612   3.826   6.179   5.115 -0.6294  0.6661  0.2659
10399TIP3    H252613   3.855   6.206   5.262  0.1768  0.2093  0.1959
10400TIP3   OH252614   4.412   0.419   1.912  0.0791  0.6250  0.5166
10400TIP3    H152615   4.435   0.490   1.972  1.9257 -0.8526  1.6243
10400TIP3    H252616   4.320   0.403   1.928 -0.7284  3.6722 -0.7391
10401TIP3   OH252617   4.881   1.519   2.879 -0.8529 -0.0800  0.1130
10401TIP3    H152618   4.867   1.507   2.973  0.0097 -0.2478  0.2251
10401TIP3    H252619   4.905   1.432   2.847 -1.2792 -0.0505 -0.2897
10402TIP3   OH252620   0.839   2.288  11.094  0.7695  0.4112  0.2887
10402TIP3    H152621   0.907   2.239  11.047  1.5660 -0.7076  2.5749
10402TIP3    H252622   0.757   2.261  11.051  1.3068 -2.0226  0.6872
10403TIP3   OH252623   5.490   4.182   5.485 -0.5479 -0.2490 -0.0098
10403TIP3    H152624   5.570   4.153   5.530 -1.4725  0.8145  2.3682
10403TIP3    H252625   5.520   4.253   5.428  0.6486 -1.6825 -1.2386
10404TIP3   OH252626   2.033   2.575   4.917  0.8147 -0.4331 -0.1710
10404TIP3    H152627   1.944   2.564   4.882  0.5253  0.4129  0.3059
10404TIP3    H252628   2.087   2.590   4.840  0.6019 -1.2879 -0.4966
10405TIP3   OH252629   6.669   6.417  15.714 -0.2633  0.0630 -0.5398
10405TIP3    H152630   6.613   6.341  15.699 -1.4278  0.4103  1.7467
10405TIP3    H252631   6.639   6.481  15.649  1.5782 -1.8038 -3.3176
10406TIP3   OH252632   1.528   3.010  13.587  0.4667 -0.2571 -0.3487
10406TIP3    H152633   1.549   2.954  13.661  1.9794 -1.1544 -1.4380
10406TIP3    H252634   1.525   3.098  13.623  0.1660 -0.7929  0.9623
10407TIP3   OH252635   2.631   0.030   3.110 -0.0063  0.9506 -0.4115
10407TIP3    H152636   2.556   0.032   3.050  0.5419  2.3020 -1.0846
10407TIP3    H252637   2.591   0.035   3.197 -0.8059 -0.9599 -0.6530
10408TIP3   OH252638   0.094   1.059  14.954  0.2521  0.3756  0.2664
10408TIP3    H152639   0.133   1.028  15.036 -1.2226 -0.4741  0.6819
10408TIP3    H252640   0.048   0.982  14.920 -1.9377  1.6173  0.3540
10409TIP3   OH252641   4.719   4.821   1.780  0.1406  0.7353 -0.0618
10409TIP3    H152642   4.665   4.834   1.857 -1.4092 -1.7600 -0.6520
10409TIP3    H252643   4.659   4.835   1.706  0.2357 -2.0536 -0.7268
10410TIP3   OH252644   1.133   4.935  15.552  0.1790 -0.5966  0.0466
10410TIP3    H152645   1.039   4.931  15.534  0.1858  0.6935 -0.2958
10410TIP3    H252646   1.145   5.016  15.601  1.1993 -0.4498 -0.4257
10411TIP3   OH252647   5.329   0.926   0.120 -0.2971 -0.3093  0.4111
10411TIP3    H152648   5.377   0.975   0.053 -3.1317 -0.8950 -2.1418
10411TIP3    H252649   5.324   0.986   0.195  1.1745  1.1206 -0.6046
10412TIP3   OH252650   2.580   1.820   1.433  0.1171  0.5356  0.1012
10412TIP3    H152651   2.547   1.732   1.449  1.7992 -0.0746  0.3794
10412TIP3    H252652   2.503   1.872   1.412 -0.9834 -0.8334  0.7057
10413TIP3   OH252653   3.172   3.101   0.614  0.1050  0.5327 -0.2389
10413TIP3    H152654   3.205   3.048   0.542  1.6486  1.1068  0.0400
10413TIP3    H252655   3.223   3.182   0.610 -1.0897  1.3342  0.3570
10414TIP3   OH252656   6.321   2.504  12.015  0.1412  0.4142  0.2875
10414TIP3    H152657   6.383   2.463  12.076 -0.1557 -0.6302 -0.0993
10414TIP3    H252658   6.301   2.435  11.952  1.6381  1.9330 -1.9344
10415TIP3   OH252659   3.125   5.626  10.665 -0.0610 -0.7093  0.2020
10415TIP3    H152660   3.175   5.575  10.600  0.0123  0.0857 -0.3738
10415TIP3    H252661   3.164   5.603  10.749  0.2397 -1.2950 -0.0936
10416TIP3   OH252662   0.326   0.056   4.952  0.7569  0.2414  0.0614
10416TIP3    H152663   0.362   0.124   4.894  0.1626  1.3237  0.9313
10416TIP3    H252664   0.385   0.055   5.026  0.4246  0.2412  0.3283
10417TIP3   OH252665   3.412   5.066   2.576  0.0434  0.3028  0.4148
10417TIP3    H152666   3.482   5.015   2.534  0.0234  1.9312 -1.7027
10417TIP3    H252667   3.452   5.152   2.593 -0.6483  0.3848  1.6518
10418TIP3   OH252668   5.699   2.847  15.083  0.2111 -0.4186 -0.0885
10418TIP3    H152669   5.770   2.818  15.140  0.1433  0.6428  0.5663
10418TIP3    H252670   5.701   2.943  15.091 -1.2824 -0.3825 -0.0693
10419TIP3   OH252671   4.923   1.318   6.289 -0.1862 -0.3373 -0.3217
10419TIP3    H152672   4.895   1.409   6.293 -0.0075 -0.2035 -1.8927
10419TIP3    H252673   4.972   1.304   6.370 -0.0011  1.0243 -0.1969
10420TIP3   OH252674   1.498   2.697   0.461  0.4058 -0.3003 -0.2770
10420TIP3    H152675   1.574   2.687   0.405 -0.3472  0.4760 -1.4532
10420TIP3    H252676   1.425   2.714   0.401 -0.1614  1.9907  0.9833
10421TIP3   OH252677   2.370   3.903  10.032 -0.3693 -0.5173  0.1779
10421TIP3    H152678   2.332   3.823   9.996  0.3131 -0.0686 -1.6229
10421TIP3    H252679   2.301   3.969  10.021 -0.5795 -0.6422  0.7564
10422TIP3   OH252680   1.337   5.453   5.686  0.1355 -0.1334 -0.2574
10422TIP3    H152681   1.355   5.546   5.695  0.6948 -0.1068 -1.6304
10422TIP3    H252682   1.245   5.449   5.659 -0.0561 -0.0208  0.3495
10423TIP3   OH252683   4.758   4.180   1.574 -0.5195 -0.1459  0.4752
10423TIP3    H152684   4.719   4.137   1.651 -2.4158  2.6457  1.1278
10423TIP3    H252685   4.781   4.268   1.605  1.5719  0.0020 -1.3586
10424TIP3   OH252686   0.856   6.069   1.024  0.1284 -1.0405  0.3276
10424TIP3    H152687   0.820   6.150   1.058 -0.3251 -1.0058 -0.2196
10424TIP3    H252688   0.784   6.006   1.031  0.3478 -1.2841  0.3743
10425TIP3   OH252689   6.124   1.119  12.574 -0.0272  0.5197 -0.4797
10425TIP3    H152690   6.071   1.067  12.514 -0.3992  1.3135 -0.8419
10425TIP3    H252691   6.197   1.061  12.598 -0.4387 -0.1661 -0.8689
10426TIP3   OH252692   1.804   0.978   0.101  0.2997 -0.3936 -0.3594
10426TIP3    H152693   1.858   0.915   0.148  0.3483 -0.6918 -0.8093
10426TIP3    H252694   1.781   1.044   0.166  2.2762  0.4245 -0.4554
10427TIP3   OH252695   4.534   5.453  16.352  0.6674 -0.6114  0.2265
10427TIP3    H152696   4.506   5.527  16.405 -0.1059 -1.2243  0.6890
10427TIP3    H252697   4.610   5.417  16.399 -0.1531 -1.2883  1.0367
10428TIP3   OH252698   3.719   1.504   5.062  0.4454  0.1224 -0.1022
10428TIP3    H152699   3.697   1.577   5.120  0.5953  0.1050 -0.0243
10428TIP3    H252700   3.774   1.446   5.115 -2.9681 -2.1023  1.1906
10429TIP3   OH252701   5.967   3.339  11.960 -0.4083  0.2553 -1.3501
10429TIP3    H152702   5.930   3.421  11.992  2.5089  0.3964  1.9532
10429TIP3    H252703   5.919   3.270  12.007  3.2867  0.4422  3.1000
10430TIP3   OH252704   2.942   1.998  13.246  0.0093 -0.0829  0.3003
10430TIP3    H152705   3.031   1.965  13.254  0.3168  0.3710 -1.1006
10430TIP3    H252706   2.889   1.938  13.298  0.7294 -2.0950 -1.2460
10431TIP3   OH252707   1.621   2.735   1.729 -0.1343 -0.0826 -0.1189
10431TIP3    H152708   1.694   2.754   1.787  0.4555 -0.7431 -0.6333
10431TIP3    H252709   1.557   2.803   1.748 -0.3969 -0.8770  2.0686
10432TIP3   OH252710   3.511   1.416   3.232 -0.2840 -0.0069 -0.4262
10432TIP3    H152711   3.509   1.373   3.317 -1.5027  0.5219 -0.1773
10432TIP3    H252712   3.549   1.503   3.249  2.5329 -1.0552 -0.9910
10433TIP3   OH252713   0.158   5.539   0.724 -0.4587  0.6599 -0.3303
10433TIP3    H152714   0.225   5.590   0.678 -1.7970  1.9884 -0.8625
10433TIP3    H252715   0.146   5.461   0.670  0.7788  0.3247 -0.1346
10434TIP3   OH252716   2.073   3.325   1.796  0.0249  0.5512  0.5173
10434TIP3    H152717   1.990   3.311   1.749  0.8061  0.9148 -1.0077
10434TIP3    H252718   2.048   3.376   1.873 -0.8032  3.0262 -1.3485
10435TIP3   OH252719   5.539   2.239   5.114 -0.0113 -0.1199 -0.5780
10435TIP3    H152720   5.482   2.230   5.190  1.7887  1.4604  1.0262
10435TIP3    H252721   5.572   2.150   5.099 -0.9533 -0.5809  0.0287
10436TIP3   OH252722   5.526   4.462   2.804 -0.1948 -0.4625 -0.2724
10436TIP3    H152723   5.487   4.387   2.849 -1.1096  0.5264  0.6072
10436TIP3    H252724   5.618   4.438   2.794 -0.3500 -1.4538  0.5369
10437TIP3   OH252725   2.106   0.886   0.602  0.2534  0.1805  0.1934
10437TIP3    H152726   2.045   0.821   0.569  0.4855  0.2306 -0.3476
10437TIP3    H252727   2.179   0.835   0.637  0.9642  0.1606 -1.2721
10438TIP3   OH252728   6.050   5.757  15.112  0.0123  0.0736 -0.2790
10438TIP3    H152729   6.008   5.841  15.090 -0.3391  0.3245  1.3195
10438TIP3    H252730   6.116   5.780  15.177  1.2724 -0.6164 -1.3058
10439TIP3   OH252731   5.335   1.562  14.959 -0.0831  0.2269  0.0781
10439TIP3    H152732   5.306   1.549  15.049 -1.7718  2.0430 -0.1871
10439TIP3    H252733   5.383   1.644  14.961 -1.0318  0.8059 -0.8828
10440TIP3   OH252734   6.270   6.717   1.825  0.2474  0.1480  0.2818
10440TIP3    H152735   6.281   6.735   1.918  0.9689 -1.2362  0.4606
10440TIP3    H252736   6.255   6.804   1.786  0.7169  0.8127  1.5636
10441TIP3   OH252737   4.067   2.567   2.082  0.2944  0.5637  0.7733
10441TIP3    H152738   4.046   2.524   2.000 -0.9842  0.7125  1.0107
10441TIP3    H252739   4.152   2.532   2.107  0.2621 -0.1701 -0.1391
10442TIP3   OH252740   4.129   4.579   3.975 -0.5260 -0.4107  0.6949
10442TIP3    H152741   4.116   4.512   3.908  0.8193 -0.3228  0.3322
10442TIP3    H252742   4.048   4.579   4.026 -0.2038 -2.9683  1.2655
10443TIP3   OH252743   1.678   4.446   5.509 -0.4413 -0.0826 -0.0445
10443TIP3    H152744   1.719   4.530   5.528  0.7204 -0.1931 -1.9246
10443TIP3    H252745   1.687   4.396   5.589  0.7165  0.8603  0.4250
10444TIP3   OH252746   2.115   4.213   4.731  0.1201  0.1571 -0.0741
10444TIP3    H152747   2.078   4.239   4.647 -0.9472 -0.4345  0.2025
10444TIP3    H252748   2.095   4.119   4.738  0.6461  0.0897  0.6066
10445TIP3   OH252749   6.718   2.717  13.280  0.8662 -0.3617 -0.4991
10445TIP3    H152750   6.783   2.787  13.271 -0.7361  1.3233  0.6148
10445TIP3    H252751   6.736   2.677  13.365  1.8120 -1.3839 -1.1565
10446TIP3   OH252752   1.577   0.258  16.816 -0.1975 -0.0012  0.4362
10446TIP3    H152753   1.584   0.241  16.722  0.7826  0.3464  0.4393
10446TIP3    H252754   1.648   0.207  16.855 -1.3845 -1.1534  1.1279
10447TIP3   OH252755   2.954   5.009  16.296  0.8859  0.2900  0.2315
10447TIP3    H152756   2.909   5.050  16.222  1.8305  2.2339  0.6856
10447TIP3    H252757   2.893   5.018  16.370 -0.3876 -2.3512 -0.4258
10448TIP3   OH252758   1.198   0.145  11.226 -0.9891 -0.3199 -0.3549
10448TIP3    H152759   1.151   0.225  11.200  0.0327  0.6881  0.8493
10448TIP3    H252760   1.241   0.168  11.308  1.2566 -1.3792 -1.2083
10449TIP3   OH252761   4.535   2.195  13.249 -0.2334 -0.1249 -1.4060
10449TIP3    H152762   4.512   2.134  13.320  0.7194  0.5812 -0.4674
10449TIP3    H252763   4.471   2.266  13.256  1.3479  1.1851  0.3681
10450TIP3   OH252764   0.058   2.743  16.803 -0.0646 -0.1722  0.4107
10450TIP3    H152765   0.073   2.765  16.895  1.1649  0.5709  0.0487
10450TIP3    H252766   0.013   2.658  16.806 -2.0220  0.8718  1.7492
10451TIP3   OH252767   0.463   2.214  13.426 -0.3105 -0.0139  0.8234
10451TIP3    H152768   0.385   2.173  13.389 -0.8749  0.8406  1.0452
10451TIP3    H252769   0.464   2.185  13.518  0.2385 -0.8901  0.5491
10452TIP3   OH252770   5.507   2.515  15.680  0.3323  0.0217  0.1122
10452TIP3    H152771   5.526   2.478  15.766 -1.0239 -0.1703  0.3444
10452TIP3    H252772   5.488   2.607  15.697  0.2582  0.0283 -0.0072
10453TIP3   OH252773   2.667   4.171   4.386  0.2625  0.7534 -0.4419
10453TIP3    H152774   2.694   4.135   4.471  1.0612 -0.4120 -1.1721
10453TIP3    H252775   2.603   4.109   4.352  1.7791 -0.1028 -1.7912
10454TIP3   OH252776   1.942   0.988  12.941  0.0779 -0.2740  0.1016
10454TIP3    H152777   1.980   0.977  13.028 -0.0148  2.7274  0.5906
10454TIP3    H252778   1.868   1.047  12.954 -0.0760  0.0429 -1.9810
10455TIP3   OH252779   5.349   6.106  11.969 -0.3871  0.1947  0.1348
10455TIP3    H152780   5.264   6.068  11.991 -1.4605  1.2125 -2.0784
10455TIP3    H252781   5.398   6.033  11.929 -0.3156 -0.2975  1.0898
10456TIP3   OH252782   6.617   5.976   4.625 -0.5805 -0.3435 -0.4522
10456TIP3    H152783   6.542   6.024   4.662  0.9722  1.1674  0.8144
10456TIP3    H252784   6.645   5.918   4.696  0.7272  0.6049 -0.1779
10457TIP3   OH252785   0.820   0.351  15.019 -0.2205 -0.1089  0.0441
10457TIP3    H152786   0.900   0.401  15.003  0.7512 -1.3495  0.9114
10457TIP3    H252787   0.804   0.305  14.937 -0.2622  0.4525 -0.2604
10458TIP3   OH252788   2.123   1.668  15.204  0.4679 -0.1771 -0.0091
10458TIP3    H152789   2.156   1.596  15.258  0.0498 -1.6202 -1.6282
10458TIP3    H252790   2.145   1.643  15.115 -2.3985  0.2424 -0.8703
10459TIP3   OH252791   6.309   2.112   4.278  0.5558  0.3294  0.5009
10459TIP3    H152792   6.279   2.048   4.213  2.0667 -0.4292  0.5259
10459TIP3    H252793   6.405   2.108   4.273  0.6744  1.2780  1.7946
10460TIP3   OH252794   0.746   3.497   0.423  0.2604  0.0235  0.1196
10460TIP3    H152795   0.652   3.490   0.407 -0.0528  0.4953  1.6352
10460TIP3    H252796   0.758   3.461   0.511  1.2852  1.2512  0.4995
10461TIP3   OH252797   5.899   6.274  17.069 -0.9535 -0.0429  0.0284
10461TIP3    H152798   5.857   6.226  17.140 -1.4342  3.2715  2.0751
10461TIP3    H252799   5.973   6.318  17.110 -0.5615  1.0309 -1.7711
10462TIP3   OH252800   5.956   3.117   2.436  0.2698 -0.3427  0.1295
10462TIP3    H152801   5.878   3.115   2.380  2.0852 -0.4154 -2.5053
10462TIP3    H252802   6.004   3.194   2.407  1.1675 -0.2974  1.7267
10463TIP3   OH252803   4.605   5.680  15.229 -0.0936 -0.0937  0.4053
10463TIP3    H152804   4.563   5.724  15.155 -1.5363 -1.4382  0.4022
10463TIP3    H252805   4.626   5.751  15.290 -1.2619  0.7342 -0.1337
10464TIP3   OH252806   4.430   1.408  12.632 -0.3499  0.1154 -0.1628
10464TIP3    H152807   4.344   1.408  12.676  0.1167 -1.5312  0.7740
10464TIP3    H252808   4.493   1.420  12.703  0.2230  1.1451 -0.8307
10465TIP3   OH252809   0.571   5.726  15.816  0.0465  0.0431 -0.5167
10465TIP3    H152810   0.489   5.715  15.768 -1.0874 -0.4140  1.4722
10465TIP3    H252811   0.604   5.812  15.787 -0.1807 -0.5577 -2.6700
10466TIP3   OH252812   2.508   2.779   3.147 -0.4439  0.2807  0.1160
10466TIP3    H152813   2.523   2.850   3.085 -0.6561  0.8141  0.6601
10466TIP3    H252814   2.549   2.810   3.228 -0.4027 -0.2885  0.3132
10467TIP3   OH252815   3.360   0.438   0.598 -0.2801  0.4264  0.1146
10467TIP3    H152816   3.423   0.367   0.587  0.4656  1.3090 -1.4799
10467TIP3    H252817   3.305   0.410   0.671  1.1158 -0.9691  0.6653
10468TIP3   OH252818   6.023   4.530   5.162 -0.0982  0.1483  0.8008
10468TIP3    H152819   6.050   4.443   5.133 -1.9550 -1.1636  2.8466
10468TIP3    H252820   6.040   4.587   5.087  0.5384 -2.0761 -0.7918
10469TIP3   OH252821   1.232   6.637  14.598  0.6495 -0.3078 -0.4089
10469TIP3    H152822   1.309   6.655  14.545 -0.6956 -0.6167 -2.5113
10469TIP3    H252823   1.178   6.580  14.544 -0.8119 -0.5483  1.2549
10470TIP3   OH252824   4.022   1.624   1.438  0.6385  0.1364  0.2412
10470TIP3    H152825   4.002   1.711   1.472 -1.5312 -0.1590 -0.2165
10470TIP3    H252826   4.116   1.614   1.452  1.0222  2.7777 -0.2357
10471TIP3   OH252827   3.514   2.822  12.598 -0.2705  0.1061 -0.3601
10471TIP3    H152828   3.539   2.899  12.650  0.6867 -0.2697 -0.2457
10471TIP3    H252829   3.419   2.826  12.593 -0.1515  1.8844 -1.2657
10472TIP3   OH252830   5.492   2.279   1.463 -0.2324 -0.4273 -0.1147
10472TIP3    H152831   5.431   2.207   1.448 -1.0953  0.6971 -2.1280
10472TIP3    H252832   5.441   2.344   1.513 -0.8043  0.5993 -1.9705
10473TIP3   OH252833   4.084   4.009  12.453 -0.3267  0.2746  0.1877
10473TIP3    H152834   4.014   4.064  12.488  0.5573  1.2947  0.3874
10473TIP3    H252835   4.143   3.995  12.527 -0.5919 -1.0428  0.1594
10474TIP3   OH252836   4.540   5.684  16.490  0.4593 -0.2903  0.2159
10474TIP3    H152837   4.495   5.766  16.467  1.4505 -0.2140 -1.5317
10474TIP3    H252838   4.618   5.713  16.537 -0.4662 -0.3664  1.8657
10475TIP3   OH252839   5.356   4.141  14.793  0.0935  0.0467  0.2724
10475TIP3    H152840   5.397   4.224  14.816 -0.1286 -0.0019  0.8539
10475TIP3    H252841   5.306   4.116  14.871 -1.4469  0.3555 -0.5945
10476TIP3   OH252842   6.172   3.777   4.478 -0.0741  0.1374 -0.4360
10476TIP3    H152843   6.130   3.783   4.392  2.3146 -1.9878 -1.8484
10476TIP3    H252844   6.122   3.709   4.524 -1.7323  1.7039  0.1092
10477TIP3   OH252845   1.197   2.942  16.799 -0.0795 -0.8035 -0.3190
10477TIP3    H152846   1.144   2.876  16.754 -0.9717 -0.5684  0.3791
10477TIP3    H252847   1.193   3.018  16.742 -0.1523 -0.9166 -0.4647
10478TIP3   OH252848   1.589   3.448   4.060  0.3306 -0.3096  0.1823
10478TIP3    H152849   1.664   3.400   4.095  1.1129  0.5738 -0.2533
10478TIP3    H252850   1.549   3.489   4.138 -0.8013 -2.2608  0.6560
10479TIP3   OH252851   6.240   2.098  17.143  0.2144  0.3968  0.1880
10479TIP3    H152852   6.150   2.125  17.123 -0.2676 -1.3572 -0.0848
10479TIP3    H252853   6.287   2.110  17.061 -0.2054 -0.4421 -0.1786
10480TIP3   OH252854   0.859   6.578  12.434 -1.0367  0.1642 -0.5670
10480TIP3    H152855   0.775   6.592  12.479 -1.7138 -1.1596 -1.3689
10480TIP3    H252856   0.860   6.484  12.416  0.6594  0.1662 -0.5271
10481TIP3   OH252857   1.444   1.275  15.030  0.0983  0.0111 -0.0092
10481TIP3    H152858   1.486   1.242  14.950  1.1798 -0.7017  0.8286
10481TIP3    H252859   1.515   1.279  15.094 -1.1217 -1.2021  1.4485
10482TIP3   OH252860   0.912   1.461   1.577 -0.9621  0.3575 -0.6117
10482TIP3    H152861   0.916   1.365   1.584 -1.9612  0.2384 -1.5381
10482TIP3    H252862   0.991   1.491   1.622  1.3774 -1.0745 -3.6230
10483TIP3   OH252863   1.524   3.712   2.376 -0.2570 -0.0477  0.1490
10483TIP3    H152864   1.432   3.726   2.398  0.8934  2.2412  4.0208
10483TIP3    H252865   1.551   3.794   2.335  0.6647  0.2729  1.3717
10484TIP3   OH252866   0.933   3.182  15.495  0.6007  0.1879 -0.2982
10484TIP3    H152867   0.919   3.121  15.422  0.8296 -0.0576 -0.1397
10484TIP3    H252868   0.964   3.262  15.453 -1.9267  0.9771 -0.7126
10485TIP3   OH252869   1.326   0.779   4.671 -0.2934 -0.3379  0.1282
10485TIP3    H152870   1.231   0.792   4.677 -0.5701 -2.3769  0.6480
10485TIP3    H252871   1.360   0.865   4.649 -2.2628  0.4536  0.0023
10486TIP3   OH252872   5.778   6.179   0.961  0.0092  0.3627  0.2223
10486TIP3    H152873   5.683   6.181   0.970 -0.0166 -0.7951  0.2873
10486TIP3    H252874   5.793   6.170   0.867  0.0371 -0.2586  0.2849
10487TIP3   OH252875   2.398   0.166  11.601  0.3944 -0.1701 -0.0119
10487TIP3    H152876   2.426   0.193  11.688  2.1117  1.2359 -0.9812
10487TIP3    H252877   2.306   0.193  11.597  0.0390 -1.0270  1.6559
10488TIP3   OH252878   2.291   3.902  11.237 -0.1893  0.5454  0.5921
10488TIP3    H152879   2.214   3.928  11.186 -0.5303 -1.3501  0.0883
10488TIP3    H252880   2.257   3.881  11.323 -0.0092  1.1648  0.8163
10489TIP3   OH252881   5.324   4.249  15.871  0.1668 -0.2353 -0.3436
10489TIP3    H152882   5.376   4.185  15.823  0.0799 -0.5502 -0.0277
10489TIP3    H252883   5.364   4.333  15.852  1.0041 -0.5142  0.1739
10490TIP3   OH252884   0.557   0.151  15.501 -0.0719 -0.1132 -0.2245
10490TIP3    H152885   0.645   0.117  15.483  0.0567 -0.1142  0.3943
10490TIP3    H252886   0.561   0.181  15.592 -0.4077  0.8487 -0.5167
10491TIP3   OH252887   1.394   3.991  11.097  0.4084 -0.2619  0.3111
10491TIP3    H152888   1.356   3.907  11.073  2.0942 -0.2903 -2.5010
10491TIP3    H252889   1.413   3.983  11.191  0.8135 -3.1218  0.0334
10492TIP3   OH252890   1.193   5.050   6.123 -0.3074  0.0998  0.1148
10492TIP3    H152891   1.250   5.055   6.199 -1.7373  1.0939  1.1383
10492TIP3    H252892   1.110   5.017   6.157 -1.3465  1.7086 -0.7835
10493TIP3   OH252893   0.839   2.850   0.265  0.6315  0.0385  0.2380
10493TIP3    H152894   0.747   2.870   0.249  1.3635  1.9591 -1.7658
10493TIP3    H252895   0.853   2.767   0.219  0.3789  0.7619 -1.1810
10494TIP3   OH252896   3.989   3.805  11.494 -0.3892  0.0610 -0.3158
10494TIP3    H152897   4.041   3.846  11.563 -0.5017  0.4124 -0.4371
10494TIP3    H252898   3.918   3.760  11.541  0.0640 -0.4761 -0.1515
10495TIP3   OH252899   1.998   2.229  13.808  0.3792 -0.0920  0.5551
10495TIP3    H152900   2.051   2.273  13.741 -0.7881 -0.4643 -0.6219
10495TIP3    H252901   2.044   2.248  13.890  2.4338 -0.5300 -0.4375
10496TIP3   OH252902   4.960   5.371  16.162 -0.1139 -0.0134  0.6337
10496TIP3    H152903   4.995   5.375  16.074 -2.1116  1.1433 -0.1410
10496TIP3    H252904   4.913   5.287  16.166 -1.9781  0.9662 -0.1893
10497TIP3   OH252905   5.613   3.629  12.522 -0.3154  0.1127  0.8022
10497TIP3    H152906   5.692   3.637  12.574 -0.1756  1.3079  0.4343
10497TIP3    H252907   5.572   3.716  12.527 -4.0384 -1.6489  4.8325
10498TIP3   OH252908   4.432   0.098  15.114  0.0253  0.2548 -0.0903
10498TIP3    H152909   4.478   0.015  15.130  0.2285  0.3124 -0.3724
10498TIP3    H252910   4.469   0.158  15.178 -0.0878  0.1416  0.0837
10499TIP3   OH252911   2.439   2.241  12.500  0.1255 -0.5515  0.2555
10499TIP3    H152912   2.510   2.220  12.560  0.0941  2.8269  1.5495
10499TIP3    H252913   2.359   2.230  12.552 -0.2623 -2.6214 -0.6989
10500TIP3   OH252914   3.499   5.788   6.196 -0.2184 -0.0603  0.3362
10500TIP3    H152915   3.456   5.768   6.113  0.8677  1.5069 -0.6322
10500TIP3    H252916   3.470   5.719   6.256 -1.6923 -0.7136 -1.1068
10501TIP3   OH252917   1.296   0.396  11.862 -0.4276  0.5934  0.1265
10501TIP3    H152918   1.363   0.329  11.853 -0.8415  0.1471  0.3671
10501TIP3    H252919   1.213   0.350  11.850 -0.6748  1.2335 -0.6774
10502TIP3   OH252920   3.633   0.880  11.377 -0.0058  0.3950 -0.0153
10502TIP3    H152921   3.627   0.948  11.310  1.6761 -0.8529 -1.4947
10502TIP3    H252922   3.726   0.855  11.378 -0.5604 -1.7646  0.6040
10503TIP3   OH252923   3.893   6.084  15.422 -0.1408 -0.0158 -0.3233
10503TIP3    H152924   3.980   6.101  15.458 -0.8820  1.7310  0.7533
10503TIP3    H252925   3.834   6.098  15.496 -1.4435  0.2568 -1.4000
10504TIP3   OH252926   6.441   3.803   3.345  0.0992 -0.0991  0.3329
10504TIP3    H152927   6.534   3.825   3.338  0.4774 -1.4557  0.9658
10504TIP3    H252928   6.440   3.712   3.375 -1.3883  0.7115  2.9787
10505TIP3   OH252929   4.566   2.325  13.970  0.3937 -0.6820  0.7747
10505TIP3    H152930   4.595   2.373  14.047 -0.9181 -0.0446  0.8849
10505TIP3    H252931   4.647   2.299  13.926  1.1513  1.3431  0.8966
10506TIP3   OH252932   4.618   5.256   5.375 -0.0918 -0.2317  0.0132
10506TIP3    H152933   4.623   5.166   5.409  1.4975 -1.3336 -2.9671
10506TIP3    H252934   4.581   5.247   5.288 -0.9885  2.1878  0.0893
10507TIP3   OH252935   3.996   0.512   1.290 -0.2786 -0.2946 -0.0704
10507TIP3    H152936   4.083   0.544   1.313 -1.3916  1.0546  2.4293
10507TIP3    H252937   3.987   0.430   1.340 -0.5028 -0.3618 -0.2208
10508TIP3   OH252938   1.597   4.802  13.342 -0.5024  0.6136  0.0273
10508TIP3    H152939   1.624   4.829  13.254 -0.9782  1.4296  0.1247
10508TIP3    H252940   1.517   4.852  13.358  0.9006  2.3228  1.8869
10509TIP3   OH252941   6.237   2.523  16.599 -0.2544  0.0858 -0.0553
10509TIP3    H152942   6.267   2.497  16.686 -2.3474 -1.3721  0.2429
10509TIP3    H252943   6.227   2.441  16.551  0.1167  0.8298 -1.4394
10510TIP3   OH252944   4.356   6.666   0.104  0.3990 -0.1323  0.3004
10510TIP3    H152945   4.321   6.578   0.115  1.3237 -0.2831  2.2365
10510TIP3    H252946   4.405   6.662   0.022 -0.4852 -1.1080 -0.1887
10511TIP3   OH252947   6.497   6.452  17.157  0.2294 -0.0402 -0.1657
10511TIP3    H152948   6.481   6.473  17.065 -0.2921 -0.0836 -0.0904
10511TIP3    H252949   6.474   6.359  17.164 -0.2831  0.1046  0.1266
10512TIP3   OH252950   0.054   2.971  13.491 -0.3467 -0.0527  0.5909
10512TIP3    H152951   0.146   2.958  13.466  0.5286  0.8093  3.0913
10512TIP3    H252952   0.029   2.889  13.533 -0.8585 -0.4526 -0.5076
10513TIP3   OH252953   5.092   3.630  12.239 -0.7086 -0.5806  0.0034
10513TIP3    H152954   5.170   3.670  12.200 -0.8862  0.9819  1.1909
10513TIP3    H252955   5.107   3.536  12.233  1.8169 -0.3024  1.2745
10514TIP3   OH252956   2.597   2.563  15.571 -0.0091 -0.5184 -0.7169
10514TIP3    H152957   2.512   2.601  15.593  0.2170  0.1844 -1.0645
10514TIP3    H252958   2.581   2.468  15.571 -1.0645 -0.3657 -1.8441
10515TIP3   OH252959   1.642   2.177  17.145  0.0180 -0.1951 -0.2375
10515TIP3    H152960   1.552   2.187  17.175  0.4074  0.3404  0.7757
10515TIP3    H252961   1.685   2.127  17.214  0.3601 -0.9301 -0.9801
10516TIP3   OH252962   1.617   5.836  13.734  0.1268  0.2079  0.4281
10516TIP3    H152963   1.524   5.858  13.735  0.0885  0.0153  2.3034
10516TIP3    H252964   1.623   5.759  13.677 -0.8075  0.3729  0.0950
10517TIP3   OH252965   3.276   0.054  15.916 -0.5540  0.0886  0.3029
10517TIP3    H152966   3.196   0.075  15.868 -0.4113  1.4098  0.6287
10517TIP3    H252967   3.261  -0.034  15.951 -1.5246 -0.0014 -0.3311
10518TIP3   OH252968   6.128   1.766  14.094  0.5005  0.2342 -0.0209
10518TIP3    H152969   6.126   1.853  14.134 -2.0795  0.7648 -1.1849
10518TIP3    H252970   6.108   1.706  14.166  0.4841  0.7666  0.4221
10519TIP3   OH252971   4.151   3.748   4.590 -0.0698  0.0611 -0.1232
10519TIP3    H152972   4.109   3.671   4.552  0.6287 -0.1150 -0.5252
10519TIP3    H252973   4.120   3.821   4.536 -1.4938  0.2002  0.8366
10520TIP3   OH252974   1.264   2.067   2.985  0.1489 -0.1019 -0.2499
10520TIP3    H152975   1.219   2.071   2.900 -1.2796  0.4327  0.5289
10520TIP3    H252976   1.197   2.087   3.049  0.8009 -2.2786  1.1698
10521TIP3   OH252977   6.522   5.248   4.051 -1.1267 -0.3235  0.1532
10521TIP3    H152978   6.445   5.300   4.027 -0.4684  1.3529  1.6036
10521TIP3    H252979   6.568   5.235   3.968 -1.6152  0.8983 -0.3268
10522TIP3   OH252980   4.899   1.264  17.006  0.1796  0.4654 -0.1462
10522TIP3    H152981   4.888   1.247  16.913  0.8292 -1.0484  0.0406
10522TIP3    H252982   4.918   1.358  17.011  2.9625  0.0538 -1.8162
10523TIP3   OH252983   0.901   0.054   2.211 -0.6714  0.2144 -0.0924
10523TIP3    H152984   0.988   0.078   2.178 -0.0275 -0.8850  0.7685
10523TIP3    H252985   0.847   0.048   2.132 -0.2496  2.0133 -0.5288
10524TIP3   OH252986   2.192   4.376  12.255 -0.3296  0.4482 -0.3311
10524TIP3    H152987   2.101   4.368  12.285  0.2127 -0.1125  1.1596
10524TIP3    H252988   2.184   4.379  12.159 -1.8266 -0.9331 -0.2812
10525TIP3   OH252989   5.673   4.412   1.340 -0.8690 -0.5665 -0.5402
10525TIP3    H152990   5.638   4.501   1.340 -0.0722 -0.2436 -0.3328
10525TIP3    H252991   5.615   4.363   1.400 -1.7432 -0.3756 -1.2239
10526TIP3   OH252992   1.590   1.233   6.889  0.1202  0.2331 -0.1169
10526TIP3    H152993   1.559   1.312   6.846  1.2906  0.1947 -1.0405
10526TIP3    H252994   1.653   1.264   6.954 -0.1044  0.1287  0.1523
10527TIP3   OH252995   3.823   1.120   4.449  0.5317 -0.1367  0.0735
10527TIP3    H152996   3.850   1.030   4.431 -0.5188 -0.1539 -1.5662
10527TIP3    H252997   3.876   1.173   4.390 -0.7803  0.0730 -0.9565
10528TIP3   OH252998   5.195   1.080   3.878  0.2514  0.5799 -0.2166
10528TIP3    H152999   5.226   1.093   3.968  2.7441  1.0161 -1.1196
10528TIP3    H253000   5.141   1.157   3.861 -1.5700 -0.2644  1.4165
10529TIP3   OH253001   0.043   2.600  15.379  0.3348 -0.0154 -0.5124
10529TIP3    H153002   0.005   2.655  15.310 -1.0447 -0.0294  0.2123
10529TIP3    H253003   0.047   2.658  15.455  2.5299  0.2154 -0.7763
10530TIP3   OH253004   4.202   3.567  11.799  0.2154 -0.8913  0.2403
10530TIP3    H153005   4.266   3.630  11.765 -1.4658  1.4839  1.2722
10530TIP3    H253006   4.127   3.621  11.823 -0.8743 -3.2035  2.2103
10531TIP3   OH253007   4.990   4.677  14.802 -0.0360  0.0735  0.3651
10531TIP3    H153008   5.073   4.723  14.791 -0.7252  0.7407 -2.4368
10531TIP3    H253009   5.011   4.604  14.860  2.3827  0.5417  0.1378
10532TIP3   OH253010   0.600   6.422   2.741 -0.3126  0.6527 -0.0112
10532TIP3    H153011   0.662   6.400   2.671 -0.4467  0.9640 -0.2319
10532TIP3    H253012   0.593   6.342   2.793 -1.2347 -0.0065 -1.1242
10533TIP3   OH253013   6.257   0.720  11.337  0.2456  0.2461 -0.4975
10533TIP3    H153014   6.214   0.805  11.330 -1.5391 -0.4873  1.2317
10533TIP3    H253015   6.201   0.660  11.288  1.1938 -0.0728 -1.2241
10534TIP3   OH253016   3.353   0.570  13.305 -0.1737 -0.1867  0.3428
10534TIP3    H153017   3.408   0.646  13.321  0.3711 -0.5392  0.1698
10534TIP3    H253018   3.265   0.597  13.331  0.0216  0.4931  0.2962
10535TIP3   OH253019   5.448   6.046   5.366 -0.4538 -0.0999 -0.0850
10535TIP3    H153020   5.524   6.022   5.312 -0.8460 -0.4669 -0.4773
10535TIP3    H253021   5.373   6.013   5.317 -0.8170 -0.3675  0.6597
10536TIP3   OH253022   3.423   5.840   2.835  0.2159 -0.4443 -1.0813
10536TIP3    H153023   3.505   5.797   2.860  0.3707  0.3469 -0.1922
10536TIP3    H253024   3.414   5.913   2.897 -0.5035  0.2522 -1.9806
10537TIP3   OH253025   1.227   0.352  13.124  0.4438 -0.0077  0.0017
10537TIP3    H153026   1.315   0.369  13.091 -0.6538  1.9892 -1.9856
10537TIP3    H253027   1.183   0.437  13.122 -1.2722 -0.7957  1.8415
10538TIP3   OH253028   1.853   1.246   4.804 -0.1699 -0.2483 -0.4340
10538TIP3    H153029   1.822   1.231   4.893  0.9732 -1.9474 -0.2900
10538TIP3    H253030   1.774   1.263   4.753 -0.9258 -0.3356  0.6983
10539TIP3   OH253031   0.860   5.003  13.920  0.3996  0.1218 -0.0213
10539TIP3    H153032   0.907   4.927  13.953 -0.1630  0.4473  1.5876
10539TIP3    H253033   0.928   5.065  13.895  0.8376  0.0281  0.9265
10540TIP3   OH253034   4.765   3.907  11.470 -0.2763  0.3302 -0.2898
10540TIP3    H153035   4.811   3.887  11.388  1.2461 -2.1301  1.1197
10540TIP3    H253036   4.778   4.001  11.481  2.4444  0.1072 -1.1477
10541TIP3   OH253037   2.113   5.422   0.735 -0.0131 -0.4034 -0.9216
10541TIP3    H153038   2.177   5.493   0.743  1.2165 -1.4555 -1.1495
10541TIP3    H253039   2.073   5.416   0.821 -1.4808  1.7971 -1.4262
10542TIP3   OH253040   6.252   2.675  14.627 -0.1405 -0.7642  0.2600
10542TIP3    H153041   6.234   2.742  14.561 -1.3369 -1.0846  0.2448
10542TIP3    H253042   6.345   2.686  14.648 -0.3971  1.1259  0.5160
10543TIP3   OH253043   1.381   0.134   1.254 -0.3628 -0.0925  0.2840
10543TIP3    H153044   1.442   0.182   1.310 -1.5849  2.0888 -0.2126
10543TIP3    H253045   1.377   0.185   1.174 -0.0741 -2.1896 -1.1028
10544TIP3   OH253046   5.342   4.706  12.445 -0.3656  0.0740  0.0619
10544TIP3    H153047   5.417   4.760  12.472 -1.2344  1.3275  0.0197
10544TIP3    H253048   5.353   4.625  12.494  1.5348 -0.1236 -0.6482
10545TIP3   OH253049   3.001   2.138   5.942 -0.0638  0.3158 -0.4360
10545TIP3    H153050   3.022   2.046   5.930  0.7327  0.8567 -3.4380
10545TIP3    H253051   2.918   2.150   5.897 -0.2911  1.0367  0.1608
10546TIP3   OH253052   4.031   4.134  13.149  0.3207 -0.2203  0.1698
10546TIP3    H153053   4.047   4.227  13.163  1.3625 -0.6584  2.0976
10546TIP3    H253054   3.942   4.119  13.184  0.6516 -0.1751  1.0566
10547TIP3   OH253055   6.234   3.943  12.638  0.2199 -0.1220  0.0784
10547TIP3    H153056   6.193   3.994  12.708 -1.6556  1.8220 -2.3693
10547TIP3    H253057   6.295   4.003  12.597  2.6242 -1.7878  1.0768
10548TIP3   OH253058   3.038   0.449  13.880 -0.4577  0.1080  0.0554
10548TIP3    H153059   3.104   0.462  13.812 -1.3012  0.0295 -0.7883
10548TIP3    H253060   2.968   0.400  13.837 -0.6565 -0.6373  1.1970
10549TIP3   OH253061   6.265   1.680  11.991 -0.1254 -0.0417 -0.0989
10549TIP3    H153062   6.337   1.668  12.053 -0.3147 -0.3540  0.0600
10549TIP3    H253063   6.258   1.775  11.981  0.2959 -0.0103 -0.1002
10550TIP3   OH253064   3.623   0.921   1.512 -0.6552 -0.4063  0.0448
10550TIP3    H153065   3.548   0.881   1.467  0.2206 -0.5235 -1.3563
10550TIP3    H253066   3.697   0.904   1.453  0.2652  0.6551  0.8916
10551TIP3   OH253067   6.780   1.697  12.676  0.2482 -0.2777 -0.1861
10551TIP3    H153068   6.813   1.700  12.766 -1.2617  1.0246  0.3484
10551TIP3    H253069   6.813   1.778  12.637 -1.6218  0.6785  0.1388
10552TIP3   OH253070   4.217   4.762   3.061 -0.2325 -0.4206  0.4873
10552TIP3    H153071   4.303   4.720   3.067  0.5032  0.8518 -1.0382
10552TIP3    H253072   4.155   4.689   3.067  0.9733 -1.4742  0.3027
10553TIP3   OH253073   5.276   1.639  16.305 -0.4837 -0.1326  0.4673
10553TIP3    H153074   5.225   1.560  16.294 -0.6397  0.0225  0.0833
10553TIP3    H253075   5.343   1.616  16.370 -0.0133 -0.8241 -0.2534
10554TIP3   OH253076   2.543   0.489  10.973  0.1764  0.6483 -0.0357
10554TIP3    H153077   2.454   0.509  11.002  0.8285  2.4186  0.8035
10554TIP3    H253078   2.554   0.541  10.893  0.5066  0.5208 -0.0735
10555TIP3   OH253079   0.251   6.014  13.610  0.3192 -0.0022  0.1871
10555TIP3    H153080   0.162   5.981  13.623  0.3952 -1.7206 -3.0674
10555TIP3    H253081   0.245   6.108  13.623 -2.4116  0.1480 -1.8427
10556TIP3   OH253082   5.915   6.053   0.322 -0.3712  0.9074  0.1498
10556TIP3    H153083   5.902   5.990   0.393 -3.4788  0.3152 -0.8366
10556TIP3    H253084   5.961   6.002   0.254  0.8715  0.9194  0.9792
10557TIP3   OH253085   5.332   2.286  15.919  0.4079 -0.0766  0.3696
10557TIP3    H153086   5.352   2.196  15.944 -1.2903  0.3293  3.3663
10557TIP3    H253087   5.417   2.330  15.920  1.1015 -1.3557 -0.0634
10558TIP3   OH253088   2.084   0.016  12.566  0.0062 -0.3902 -0.1172
10558TIP3    H153089   2.044  -0.043  12.502 -2.1485 -1.7654  2.4168
10558TIP3    H253090   2.177  -0.005  12.563 -0.4776 -2.6019 -0.5989
10559TIP3   OH253091   0.416   6.037   1.811 -0.4325  0.0951  0.3679
10559TIP3    H153092   0.396   6.000   1.725  2.1087 -1.0913  0.2470
10559TIP3    H253093   0.417   5.962   1.870 -2.6681  0.9664  1.5639
10560TIP3   OH253094   6.425   2.081   2.899  0.1074 -0.0713 -0.8105
10560TIP3    H153095   6.338   2.067   2.861  0.4935 -1.7116 -1.1254
10560TIP3    H253096   6.477   2.007   2.869  1.7866  1.1794 -1.0716
10561TIP3   OH253097   3.824   6.305  12.965  0.4630  0.0374 -0.8093
10561TIP3    H153098   3.839   6.310  12.871 -0.9654 -0.0574 -1.0482
10561TIP3    H253099   3.729   6.299  12.974  0.6328 -0.8011  0.6011
10562TIP3   OH253100   2.645   0.050   5.556  0.3440  0.4770 -0.3662
10562TIP3    H153101   2.660   0.108   5.631  0.3614  1.8347 -1.4074
10562TIP3    H253102   2.557   0.016   5.571 -0.0757  1.5719 -0.2589
10563TIP3   OH253103   5.348   4.314  16.422  0.0174 -0.0039  0.2031
10563TIP3    H153104   5.379   4.226  16.444 -1.2379 -0.4800  0.1330
10563TIP3    H253105   5.427   4.368  16.422  0.9040 -1.2612 -0.4356
10564TIP3   OH253106   3.432   2.908   0.905  0.3473 -0.0430  0.8384
10564TIP3    H153107   3.340   2.915   0.928  0.1368 -1.0368  0.3460
10564TIP3    H253108   3.470   2.992   0.930 -1.0688  1.1012 -0.7115
10565TIP3   OH253109   6.565   5.477  16.716 -0.2799 -0.4894  0.0584
10565TIP3    H153110   6.591   5.386  16.727 -0.9071 -0.9423 -2.0376
10565TIP3    H253111   6.627   5.512  16.651 -1.4246 -0.0658 -0.8337
10566TIP3   OH253112   2.103   2.908  14.678  0.2816 -0.4282  0.2408
10566TIP3    H153113   2.070   2.993  14.647  1.8671 -0.1286 -0.6510
10566TIP3    H253114   2.069   2.901  14.767  0.9670  1.6232  0.7025
10567TIP3   OH253115   1.699   1.307  16.029 -0.0580 -0.0293  0.2334
10567TIP3    H153116   1.617   1.259  16.040  0.3531 -0.7535  0.1283
10567TIP3    H253117   1.750   1.255  15.967  1.4391 -0.8254  2.0757
10568TIP3   OH253118   3.997   4.533   5.147  0.5878 -0.1606  0.0242
10568TIP3    H153119   3.969   4.493   5.064 -1.5217 -0.8025  1.0029
10568TIP3    H253120   4.041   4.614   5.121  1.4877 -1.2030 -1.7966
10569TIP3   OH253121   5.842   3.642   3.924  0.2667  0.3095 -0.0733
10569TIP3    H153122   5.842   3.660   3.830  0.7412 -1.4131 -0.4011
10569TIP3    H253123   5.749   3.641   3.947  0.0402 -1.4880 -0.9671
10570TIP3   OH253124   6.477   4.286  16.056  0.0670  0.0708 -0.0592
10570TIP3    H153125   6.399   4.251  16.013 -1.0452  2.1401  0.1761
10570TIP3    H253126   6.545   4.282  15.989 -0.6497 -0.3350 -0.7698
10571TIP3   OH253127   4.360   2.326   1.036 -0.4358  0.1279 -0.6238
10571TIP3    H153128   4.340   2.328   1.129  1.1569 -0.3335 -0.2549
10571TIP3    H253129   4.417   2.401   1.021 -0.6512  0.1802 -1.2266
10572TIP3   OH253130   4.890   6.228  15.948 -0.5379  0.1333  0.5157
10572TIP3    H153131   4.811   6.202  15.996 -0.9614  0.4098 -0.0259
10572TIP3    H253132   4.944   6.149  15.947 -1.0292 -0.2079  0.4491
10573TIP3   OH253133   1.906   0.543  14.302  0.1465 -0.5255 -0.0122
10573TIP3    H153134   1.876   0.457  14.331  0.8068 -0.4768  0.8287
10573TIP3    H253135   2.002   0.535  14.301  0.2108  0.2178  0.1264
10574TIP3   OH253136   2.035   4.949   3.830 -0.1999  0.3799 -0.2106
10574TIP3    H153137   2.069   4.908   3.751 -0.2187  0.4185 -0.2385
10574TIP3    H253138   2.013   4.876   3.887  0.4346  0.3670  0.0189
10575TIP3   OH253139   4.038   5.109   3.999  0.3444  0.0857 -0.5410
10575TIP3    H153140   3.975   5.124   4.070 -2.3637 -1.8946 -2.4019
10575TIP3    H253141   4.051   5.195   3.961  0.6607  0.9277  1.4098
10576TIP3   OH253142   5.393   2.378   4.907  0.3433  0.1651 -0.1760
10576TIP3    H153143   5.384   2.344   4.818 -0.5475  0.3841 -0.1839
10576TIP3    H253144   5.454   2.319   4.951 -1.2030 -1.4707 -0.1749
10577TIP3   OH253145   4.731   5.405   0.661 -0.1235  0.0197  0.0572
10577TIP3    H153146   4.808   5.374   0.615 -1.1558  0.4109 -1.9667
10577TIP3    H253147   4.724   5.498   0.639  0.1461  0.5554  2.1200
10578TIP3   OH253148   2.299   0.561  13.055  0.0516  0.5143  0.4705
10578TIP3    H153149   2.254   0.589  13.135  1.2520  2.4103  0.5312
10578TIP3    H253150   2.391   0.550  13.082  0.3448  0.5503 -0.4992
10579TIP3   OH253151   4.263   1.866   4.175  0.0347  0.3731  0.2751
10579TIP3    H153152   4.241   1.936   4.237 -0.2688  0.5204  0.0011
10579TIP3    H253153   4.227   1.895   4.092 -1.3000 -0.7268  0.4341
10580TIP3   OH253154   2.460   4.306  11.000 -0.2047 -0.8117 -0.3601
10580TIP3    H153155   2.466   4.337  10.910  1.5164  0.0460  0.0152
10580TIP3    H253156   2.549   4.318  11.035 -0.6702 -1.8080  1.2251
10581TIP3   OH253157   4.406   5.527  10.859  0.5255 -0.2998 -0.4379
10581TIP3    H153158   4.442   5.441  10.838 -1.2999 -1.5962  1.7003
10581TIP3    H253159   4.451   5.553  10.939 -0.3187 -0.1042 -0.0289
10582TIP3   OH253160   4.676   6.060  12.674 -0.6647 -0.5273  0.1960
10582TIP3    H153161   4.761   6.091  12.706 -1.0347 -0.2978  0.9665
10582TIP3    H253162   4.634   6.137  12.637 -0.5312 -0.6415 -0.1898
10583TIP3   OH253163   0.557   4.431  16.568  0.3350 -0.1102 -0.0182
10583TIP3    H153164   0.615   4.456  16.496 -0.6309 -0.2024 -0.8289
10583TIP3    H253165   0.544   4.337  16.557  0.0701 -0.0990  0.1927
10584TIP3   OH253166   5.941   0.378   5.767  0.3024 -0.0105 -0.4382
10584TIP3    H153167   5.881   0.440   5.809 -0.7194 -1.6118  0.5281
10584TIP3    H253168   5.908   0.370   5.677  0.5373  0.9639 -0.6100
10585TIP3   OH253169   3.936   2.436  13.119 -0.3182 -0.5157 -0.5135
10585TIP3    H153170   3.895   2.351  13.104 -0.4121 -0.8782  1.6407
10585TIP3    H253171   4.024   2.427  13.082 -0.5665 -1.3131 -0.9156
10586TIP3   OH253172   5.458   1.816  13.042  0.5547  0.5753 -0.4184
10586TIP3    H153173   5.537   1.795  13.091  0.7616  0.5376 -0.7648
10586TIP3    H253174   5.389   1.764  13.084  0.3736  1.8819  0.9596
10587TIP3   OH253175   5.106   3.616  13.580  0.3822 -0.0417 -0.2006
10587TIP3    H153176   5.161   3.607  13.503  1.7308 -0.3492  0.7767
10587TIP3    H253177   5.144   3.556  13.644 -0.7833  0.1236  0.6747
10588TIP3   OH253178   0.958   6.271   6.367 -1.1309 -0.0970  0.0635
10588TIP3    H153179   0.912   6.246   6.447 -1.2882 -0.7540 -0.2273
10588TIP3    H253180   0.996   6.189   6.334 -0.6459  0.2548 -0.2669
10589TIP3   OH253181   6.539   2.568   0.703  0.5131 -0.4795 -0.1076
10589TIP3    H153182   6.574   2.559   0.615  0.1283  1.5143 -0.4796
10589TIP3    H253183   6.524   2.662   0.714  1.9760 -0.5148  2.6343
10590TIP3   OH253184   5.977   2.423  11.650 -0.5026 -0.9300  0.3575
10590TIP3    H153185   5.959   2.335  11.618 -0.7647 -1.0449  0.8198
10590TIP3    H253186   6.044   2.410  11.717  0.7355 -0.5951 -0.7835
10591TIP3   OH253187   3.516   2.266   0.639 -0.0100  0.7169  0.5152
10591TIP3    H153188   3.574   2.342   0.647  0.6572  0.1717  0.8977
10591TIP3    H253189   3.513   2.229   0.727  2.7432 -1.9431 -0.4227
10592TIP3   OH253190   1.800   1.916   5.890 -0.0605  0.0108  0.1795
10592TIP3    H153191   1.827   1.893   5.979  0.2571 -0.9568 -0.1518
10592TIP3    H253192   1.874   1.888   5.835  0.5325  2.2608 -0.2142
10593TIP3   OH253193   0.202   3.556  12.029  0.3532  0.3183  0.1242
10593TIP3    H153194   0.282   3.596  11.994 -0.2242  0.2893 -1.2939
10593TIP3    H253195   0.131   3.601  11.983 -0.4173 -0.0722  0.9216
10594TIP3   OH253196   6.616   4.416  13.406 -0.1186  0.0090 -0.0157
10594TIP3    H153197   6.539   4.413  13.464 -0.5335 -1.9368 -0.6254
10594TIP3    H253198   6.685   4.374  13.457 -0.4687 -1.6543 -0.8841
10595TIP3   OH253199   0.939   4.546   0.114  0.2263 -0.3130 -0.2929
10595TIP3    H153200   0.914   4.503   0.031 -0.4373 -0.3259 -0.0931
10595TIP3    H253201   0.990   4.480   0.160 -1.9027 -1.3973  0.5872
10596TIP3   OH253202   6.026   3.382   1.910 -0.1042  0.2396 -0.1314
10596TIP3    H153203   6.104   3.384   1.966  0.7048 -1.0041 -1.1835
10596TIP3    H253204   6.053   3.333   1.833 -2.4135 -1.7145  0.2344
10597TIP3   OH253205   4.752   3.619  11.507  0.3175 -0.0487 -0.4672
10597TIP3    H153206   4.694   3.687  11.542 -1.6526 -1.5174 -0.7907
10597TIP3    H253207   4.758   3.638  11.414  2.2304  1.4462 -0.0544
10598TIP3   OH253208   5.371   6.520   0.182 -0.5617 -0.0507  0.0889
10598TIP3    H153209   5.454   6.568   0.181 -0.8493  0.5214  1.7696
10598TIP3    H253210   5.395   6.429   0.163 -0.0117  0.7101 -3.1615
10599TIP3   OH253211   5.209   3.226   4.266  0.9838 -0.3745 -0.7374
10599TIP3    H153212   5.247   3.227   4.354  1.1801 -0.1642 -0.8256
10599TIP3    H253213   5.144   3.296   4.267  0.3719 -0.9430 -0.4850
10600TIP3   OH253214   5.120   3.116  15.137  0.2433  0.1009 -0.6803
10600TIP3    H153215   5.151   3.207  15.128  1.2068 -0.1563 -0.0529
10600TIP3    H253216   5.153   3.088  15.223 -1.1218 -0.4342 -0.3235
10601TIP3   OH253217   4.293   3.650  12.292  0.2323  0.1725  0.6536
10601TIP3    H153218   4.254   3.729  12.255  0.2301 -0.1299  0.0005
10601TIP3    H253219   4.314   3.596  12.216 -3.0489 -2.0135  1.1734
10602TIP3   OH253220   4.269   0.933  15.812 -0.1564 -0.8392 -0.7783
10602TIP3    H153221   4.227   0.874  15.749 -0.7850 -2.2871  0.9269
10602TIP3    H253222   4.217   0.922  15.892  0.5303  1.0683 -0.0428
10603TIP3   OH253223   3.154   0.985  11.588 -0.0119  0.0421 -0.1839
10603TIP3    H153224   3.177   0.933  11.512 -0.4481 -0.9759  0.3776
10603TIP3    H253225   3.088   1.047  11.557 -3.1465 -2.9940  0.2567
10604TIP3   OH253226   2.217   3.506   3.723  0.2713 -0.4677  0.3804
10604TIP3    H153227   2.223   3.451   3.644 -2.5161 -0.5839  0.1929
10604TIP3    H253228   2.248   3.592   3.694 -2.0405 -0.1264 -1.3093
10605TIP3   OH253229   3.347   6.118   1.955 -0.6093  0.4523  0.1714
10605TIP3    H153230   3.378   6.207   1.971  0.2110  0.1170  0.4460
10605TIP3    H253231   3.412   6.062   1.996 -1.5146 -0.2638  0.6366
10606TIP3   OH253232   4.462   0.270  13.235  0.6559  0.3316 -0.3513
10606TIP3    H153233   4.414   0.278  13.153 -1.1861  2.1836  0.8569
10606TIP3    H253234   4.397   0.238  13.298  1.6816  0.2941  0.7134
10607TIP3   OH253235   0.902   4.442   4.790 -0.5556  0.2580  0.7467
10607TIP3    H153236   0.885   4.512   4.727 -1.9649  0.0861  0.9256
10607TIP3    H253237   0.882   4.362   4.742  0.8751 -0.0283  0.6022
10608TIP3   OH253238   3.011   2.928  11.693  0.1348 -0.4561 -0.2769
10608TIP3    H153239   3.011   2.952  11.600  0.4792  0.5183 -0.0366
10608TIP3    H253240   3.102   2.936  11.720  0.3426 -2.5000 -0.2805
10609TIP3   OH253241   4.164   1.522  14.361 -0.0991 -0.0648  0.1338
10609TIP3    H153242   4.101   1.548  14.428  0.5404  0.3608  0.5766
10609TIP3    H253243   4.248   1.525  14.405  0.0791 -2.2178 -0.0029
10610TIP3   OH253244   3.311   4.136  11.723  0.2538 -0.0406  0.1068
10610TIP3    H153245   3.227   4.157  11.682  0.5389  0.0251 -0.4455
10610TIP3    H253246   3.360   4.218  11.720  0.7208 -0.3327 -0.4984
10611TIP3   OH253247   1.326   0.829  12.462 -0.6596  0.0171  0.2689
10611TIP3    H153248   1.303   0.767  12.532 -2.1545  0.6573  0.3705
10611TIP3    H253249   1.339   0.912  12.507  0.0539  0.0556 -0.0159
10612TIP3   OH253250   4.368   3.482   1.947 -0.4801  0.1701  0.5162
10612TIP3    H153251   4.370   3.421   2.021 -0.7676 -0.0705  0.3271
10612TIP3    H253252   4.379   3.426   1.870 -2.6182  0.1386  0.2123
10613TIP3   OH253253   3.087   3.621   4.500  0.4098  0.1680 -0.0248
10613TIP3    H153254   3.066   3.663   4.416 -0.2576 -0.3267 -0.1036
10613TIP3    H253255   3.062   3.530   4.488 -0.2081  0.2165  0.9176
10614TIP3   OH253256   4.924   3.820  13.597 -0.1770 -0.4099  0.1088
10614TIP3    H153257   4.851   3.761  13.580 -0.1977 -0.9264  1.9635
10614TIP3    H253258   5.002   3.765  13.587 -0.1684 -0.5901  1.1137
10615TIP3   OH253259   1.222   0.265   0.772 -0.3573 -0.5112 -0.3876
10615TIP3    H153260   1.163   0.330   0.809  1.2293  0.2985  0.7887
10615TIP3    H253261   1.212   0.274   0.678  0.6288  2.2220 -0.2800
10616TIP3   OH253262   3.283   6.235  14.928 -0.2600 -0.0281  0.1779
10616TIP3    H153263   3.363   6.182  14.932 -0.1595  0.1371  0.3415
10616TIP3    H253264   3.240   6.207  14.847  0.0885  0.0584 -0.0403
10617TIP3   OH253265   6.351   6.114  10.832 -0.0431 -0.2992  0.2169
10617TIP3    H153266   6.439   6.086  10.808 -0.3131 -0.4554 -0.6351
10617TIP3    H253267   6.327   6.177  10.763 -0.6321 -0.3285  0.3928
10618TIP3   OH253268   6.063   2.104   1.721 -0.7497 -0.6479 -0.5076
10618TIP3    H153269   5.994   2.038   1.726 -2.0219  0.6238 -1.0518
10618TIP3    H253270   6.142   2.058   1.749 -1.8155 -2.1106  0.1517
10619TIP3   OH253271   5.130   0.752  16.425 -0.0389  0.3162  0.2001
10619TIP3    H153272   5.175   0.758  16.341 -0.3337  1.0703  0.0965
10619TIP3    H253273   5.084   0.835  16.434  0.7750  0.6460  1.5501
10620TIP3   OH253274   5.920   6.655  12.393 -0.5297 -0.4487 -0.3899
10620TIP3    H153275   5.984   6.601  12.440 -1.9257 -0.1751  1.8799
10620TIP3    H253276   5.873   6.703  12.462 -1.3507  1.4000 -2.1845
10621TIP3   OH253277   4.774   1.304  16.562 -0.2004  0.1581  0.2168
10621TIP3    H153278   4.774   1.400  16.571  0.5997  0.0398  1.6438
10621TIP3    H253279   4.777   1.272  16.652 -1.5930 -1.2362 -0.2078
10622TIP3   OH253280   4.059   3.479   3.801  0.0498  0.3099  0.0456
10622TIP3    H153281   4.053   3.451   3.892  0.0035 -1.1602 -0.3844
10622TIP3    H253282   4.074   3.573   3.805 -1.3637  0.4884  1.5396
10623TIP3   OH253283   1.715   5.221  12.958 -0.6456 -0.0610 -0.3509
10623TIP3    H153284   1.690   5.225  12.865 -2.0918 -0.3182  0.0202
10623TIP3    H253285   1.636   5.191  13.003  0.2229 -0.4912  0.9039
10624TIP3   OH253286   2.399   5.667  14.946  0.7824  0.7979 -0.1676
10624TIP3    H153287   2.340   5.629  14.882  0.6646  1.9181 -0.7422
10624TIP3    H253288   2.365   5.756  14.960  1.7651  1.1260  0.2079
10625TIP3   OH253289   3.820   3.097  15.454  0.0707  0.0545  0.2377
10625TIP3    H153290   3.725   3.105  15.452  0.2694  2.9879  0.5558
10625TIP3    H253291   3.847   3.109  15.363  0.3197  2.4558  0.5993
10626TIP3   OH253292   3.662   0.809   4.637 -0.0372  0.0654 -0.5732
10626TIP3    H153293   3.658   0.755   4.716 -1.5107 -0.6437 -1.1092
10626TIP3    H253294   3.753   0.804   4.609  0.6029  0.6365  1.2824
10627TIP3   OH253295   3.224   3.867  15.724 -0.0318 -0.2316  0.5651
10627TIP3    H153296   3.291   3.905  15.781  0.7134 -0.7116  0.0230
10627TIP3    H253297   3.274   3.821  15.656 -0.9123  0.3442 -0.4827
10628TIP3   OH253298   2.997   2.760   5.195 -0.1561 -0.0675  0.0459
10628TIP3    H153299   3.063   2.748   5.263  0.9562  1.7415 -0.6735
10628TIP3    H253300   2.914   2.766   5.242  0.7405  2.4836  1.3684
10629TIP3   OH253301   6.056   6.237  10.825 -0.3569 -0.1725  0.1323
10629TIP3    H153302   6.084   6.226  10.734 -2.0154 -0.1633 -0.3980
10629TIP3    H253303   6.007   6.157  10.845  1.6388 -1.0393  1.6608
10630TIP3   OH253304   4.667   1.815  11.487 -0.3522 -0.5073  0.1326
10630TIP3    H153305   4.658   1.733  11.535 -0.1092 -0.1803  0.7473
10630TIP3    H253306   4.756   1.843  11.504 -0.3635 -0.2331 -0.2647
10631TIP3   OH253307   0.941   2.515   1.102 -0.2006 -0.1360  0.1537
10631TIP3    H153308   1.020   2.537   1.152 -0.5789  0.0216  0.6826
10631TIP3    H253309   0.871   2.517   1.166 -0.4779 -1.3603 -0.0997
10632TIP3   OH253310   1.226   6.234   5.896 -0.1003 -0.2731 -0.0554
10632TIP3    H153311   1.203   6.282   5.817  0.2983 -1.0765 -0.6691
10632TIP3    H253312   1.322   6.236   5.898 -0.1186  0.2643  0.7376
10633TIP3   OH253313   2.616   5.951   2.264 -0.1925 -0.4917  0.0104
10633TIP3    H153314   2.658   5.869   2.238  0.1694 -1.0370  2.2079
10633TIP3    H253315   2.528   5.945   2.227 -0.2305 -1.9642  0.3013
10634TIP3   OH253316   1.616   3.955   2.241  0.1794 -0.0638  0.2081
10634TIP3    H153317   1.681   3.903   2.194  0.6849  0.6239  0.1270
10634TIP3    H253318   1.535   3.942   2.192  0.4300 -0.3241 -0.1394
10635TIP3   OH253319   3.995   2.624  11.247  0.1430 -0.6345 -0.6815
10635TIP3    H153320   3.954   2.621  11.334 -0.0695  2.1536 -0.6208
10635TIP3    H253321   3.921   2.631  11.187  0.3774  0.2286 -0.8730
10636TIP3   OH253322   0.036   5.949  11.351 -0.2179 -0.8859 -0.2089
10636TIP3    H153323   0.015   5.863  11.387  3.0776 -1.5102  0.4371
10636TIP3    H253324   0.044   5.935  11.257  3.3020 -2.0733  0.1758
10637TIP3   OH253325   6.261   1.951  13.290  0.3395  0.3818 -0.4368
10637TIP3    H153326   6.327   1.977  13.354  0.0623 -0.1886  0.0860
10637TIP3    H253327   6.263   1.855  13.290 -0.9626  0.3493  0.0924
10638TIP3   OH253328   6.120   3.920   2.124  0.1223  0.5834 -0.3844
10638TIP3    H153329   6.087   3.861   2.056  1.0582 -0.9944  0.5086
10638TIP3    H253330   6.206   3.949   2.091  1.2382 -1.3383  0.7621
10639TIP3   OH253331   4.270   4.746   1.317 -0.4643 -0.7719  0.1156
10639TIP3    H153332   4.252   4.719   1.407 -0.3570  0.0195  0.3727
10639TIP3    H253333   4.363   4.768   1.317 -0.4892 -0.6653 -0.1682
10640TIP3   OH253334   3.092   4.165   5.329 -0.0507 -0.5507  0.7056
10640TIP3    H153335   3.077   4.187   5.422  2.8925  2.9335  0.4719
10640TIP3    H253336   3.173   4.115   5.330  1.1396  1.3026 -0.1122
10641TIP3   OH253337   3.189   5.849  12.432 -0.1913  0.1376 -0.0592
10641TIP3    H153338   3.186   5.917  12.500 -2.0150  0.1047 -0.0811
10641TIP3    H253339   3.117   5.872  12.372  0.7723 -0.3938 -1.4345
10642TIP3   OH253340   4.188   2.582   4.290  0.1722 -0.3825 -0.4594
10642TIP3    H153341   4.283   2.581   4.296  0.1298  1.7175  1.0981
10642TIP3    H253342   4.164   2.494   4.259  2.5859 -0.9316 -0.8275
10643TIP3   OH253343   0.954   2.944  13.178  0.2346  0.0873 -0.5227
10643TIP3    H153344   0.980   3.019  13.124  0.5440 -0.5783 -1.2947
10643TIP3    H253345   1.019   2.876  13.159  0.8467  0.1152  1.3067
10644TIP3   OH253346   1.085   5.424  13.743 -0.2495 -0.7967 -0.3259
10644TIP3    H153347   1.152   5.356  13.749 -0.7550 -1.4333 -1.6319
10644TIP3    H253348   1.027   5.407  13.817  0.1480 -1.2031 -0.1009
10645TIP3   OH253349   2.063   6.024  16.470  0.2780 -0.5812 -0.8946
10645TIP3    H153350   2.099   6.081  16.538 -1.8914 -1.2686  0.8937
10645TIP3    H253351   2.111   5.942  16.479  0.8207 -0.2762 -0.9921
10646TIP3   OH253352   4.345   5.239  12.557  0.1411 -0.2550  0.0135
10646TIP3    H153353   4.274   5.210  12.615  0.9010 -1.8777  0.1684
10646TIP3    H253354   4.389   5.308  12.606 -0.4643 -0.2333  0.5292
10647TIP3   OH253355   1.319   5.859  13.699 -0.3201 -0.6609  0.0903
10647TIP3    H153356   1.279   5.777  13.669 -1.6702  0.9129 -2.5445
10647TIP3    H253357   1.255   5.926  13.676  2.4456  1.5718 -1.2813
10648TIP3   OH253358   1.589   6.569   2.163 -0.2277  0.3185  0.2506
10648TIP3    H153359   1.684   6.579   2.160 -0.1425 -0.4558  0.2358
10648TIP3    H253360   1.575   6.487   2.211 -0.9321  1.1986  1.5832
10649TIP3   OH253361   0.414   4.887  16.716 -0.2440  0.0438 -0.1744
10649TIP3    H153362   0.443   4.837  16.792 -2.0244 -0.0909  0.4406
10649TIP3    H253363   0.489   4.942  16.693  0.7153 -0.7904  0.9299
10650TIP3   OH253364   5.402   1.612   4.038 -0.0342 -0.2798 -0.5504
10650TIP3    H153365   5.313   1.578   4.051 -0.6786  1.4269 -0.3363
10650TIP3    H253366   5.414   1.676   4.108  1.2437 -0.2458 -0.7894
10651TIP3   OH253367   1.315   1.201   7.057 -0.1459 -0.4435 -0.5014
10651TIP3    H153368   1.341   1.200   6.965 -0.8986 -0.7591 -0.7100
10651TIP3    H253369   1.340   1.114   7.089 -1.9325 -1.1605 -0.9864
10652TIP3   OH253370   1.438   3.701  16.367 -0.0471  0.0453 -0.1564
10652TIP3    H153371   1.357   3.706  16.417 -0.5320  3.2045 -1.1062
10652TIP3    H253372   1.498   3.760  16.412  0.9716 -0.5065 -0.7608
10653TIP3   OH253373   4.808   3.709   0.535  0.3574  0.3608 -0.8445
10653TIP3    H153374   4.730   3.744   0.577 -0.0370 -1.1434 -0.2664
10653TIP3    H253375   4.782   3.622   0.504  1.9059 -0.3133 -0.3184
10654TIP3   OH253376   3.484   5.610   5.655 -0.1081 -0.4255 -0.4917
10654TIP3    H153377   3.417   5.542   5.666 -0.4999  0.3833  2.3455
10654TIP3    H253378   3.458   5.655   5.574 -1.2578 -2.0315 -1.0611
10655TIP3   OH253379   6.444   5.982   1.729  0.1471 -0.1864 -0.4376
10655TIP3    H153380   6.351   5.969   1.747 -0.1647  1.7028 -0.5523
10655TIP3    H253381   6.455   6.077   1.727  1.9996 -0.3847 -0.8691
10656TIP3   OH253382   5.275   6.537   5.651 -0.2662  0.3504 -0.1045
10656TIP3    H153383   5.363   6.568   5.674  0.0817  1.7285 -3.0192
10656TIP3    H253384   5.221   6.616   5.652 -0.9665 -0.1143 -0.5064
10657TIP3   OH253385   2.709   1.774   4.755  0.0294  0.2266 -0.2056
10657TIP3    H153386   2.769   1.699   4.755  0.1170  0.2811  1.3965
10657TIP3    H253387   2.749   1.837   4.696  1.0589 -0.1325  0.1069
10658TIP3   OH253388   3.589   6.262  12.203 -0.2641 -0.1870  0.7667
10658TIP3    H153389   3.518   6.267  12.267 -0.8592 -1.2782  0.2077
10658TIP3    H253390   3.551   6.217  12.128 -0.0018  2.3196 -0.9498
10659TIP3   OH253391   1.585   3.561   2.604  0.8737 -0.0897 -0.2533
10659TIP3    H153392   1.581   3.627   2.674 -2.4166 -0.8705  0.3795
10659TIP3    H253393   1.563   3.609   2.525  0.1752 -0.0919 -0.0602
10660TIP3   OH253394   4.456   4.966  13.694  0.0283  0.5018 -0.0579
10660TIP3    H153395   4.399   4.977  13.617 -1.7162 -0.6796  1.0234
10660TIP3    H253396   4.499   4.882  13.679  1.4723  1.3672 -0.8449
10661TIP3   OH253397   6.709   1.215   4.459  0.5381  0.1451 -0.0736
10661TIP3    H153398   6.709   1.126   4.424  0.5709  0.1709 -0.1398
10661TIP3    H253399   6.752   1.268   4.391 -0.2463  0.3570 -0.4171
10662TIP3   OH253400   3.039   5.425  16.008  0.1290 -0.3417 -0.7567
10662TIP3    H153401   2.946   5.447  16.014  0.3011  0.5021 -1.0078
10662TIP3    H253402   3.076   5.496  15.955  0.6963 -1.3420 -1.7116
10663TIP3   OH253403   5.554   4.741   4.468  0.1654  0.1325  0.2458
10663TIP3    H153404   5.575   4.659   4.513  0.4814  0.2305  0.2736
10663TIP3    H253405   5.458   4.740   4.460  0.2991 -1.0905 -1.3540
10664TIP3   OH253406   4.966   3.038  16.764  0.4262 -0.0294 -0.7062
10664TIP3    H153407   4.898   2.987  16.719 -0.5420  0.2444  0.4258
10664TIP3    H253408   4.958   3.011  16.856  0.7876  1.1881 -0.3173
10665TIP3   OH253409   1.945   5.880   3.818  0.0828 -0.2180  0.1902
10665TIP3    H153410   1.936   5.838   3.732  0.6565  0.6750 -0.3191
10665TIP3    H253411   1.879   5.949   3.818  0.9165  0.5945 -0.0396
10666TIP3   OH253412   3.311   2.424   4.037  0.5028 -0.2704 -0.7288
10666TIP3    H153413   3.339   2.389   3.953  0.4058 -0.7757 -0.5532
10666TIP3    H253414   3.217   2.409   4.039  0.6243 -0.9607 -0.2026
10667TIP3   OH253415   0.678   6.463   4.126 -0.0103 -0.0237  0.5292
10667TIP3    H153416   0.739   6.466   4.053 -2.2911  1.1608 -1.4034
10667TIP3    H253417   0.660   6.555   4.146 -0.9787 -0.3565  1.2037
10668TIP3   OH253418   2.184   5.995   0.148  0.5102 -0.1500  0.0482
10668TIP3    H153419   2.181   6.015   0.055  1.2351 -1.9009 -0.3624
10668TIP3    H253420   2.244   6.060   0.185  1.6962 -0.6234 -1.0173
10669TIP3   OH253421   3.690   6.416   0.684 -0.3587  0.3396  0.7157
10669TIP3    H153422   3.647   6.334   0.660  1.8127 -0.7379  0.3861
10669TIP3    H253423   3.661   6.478   0.617 -0.1294 -0.7746 -0.4508
10670TIP3   OH253424   2.131   3.040   4.682  0.3885  0.6136  0.2038
10670TIP3    H153425   2.211   3.004   4.720  0.2983  0.4893  0.2779
10670TIP3    H253426   2.129   3.130   4.713  0.6158  0.6823  0.0162
10671TIP3   OH253427   4.778   3.547  14.846 -0.1938 -0.2385  0.2260
10671TIP3    H153428   4.796   3.498  14.926  0.2207  1.0450  0.9374
10671TIP3    H253429   4.848   3.524  14.786  0.6588  0.3689  0.9717
10672TIP3   OH253430   0.994   2.909  10.694  0.1800 -0.3431 -0.3096
10672TIP3    H153431   1.001   2.973  10.623 -0.5289 -0.1469 -0.1988
10672TIP3    H253432   1.084   2.898  10.725  0.4197 -0.0350 -0.8872
10673TIP3   OH253433   5.741   4.799  16.879  0.0257  0.2283  0.8103
10673TIP3    H153434   5.769   4.748  16.803 -0.9765  0.3172  0.3610
10673TIP3    H253435   5.819   4.846  16.907  0.3345  0.4401 -0.3755
10674TIP3   OH253436   6.179   5.578   0.914 -0.0250  0.2216 -0.4385
10674TIP3    H153437   6.226   5.520   0.974 -0.4679 -1.2370 -1.4748
10674TIP3    H253438   6.182   5.664   0.957 -2.7454 -1.2902  3.1056
10675TIP3   OH253439   1.299   4.649  15.552 -0.3455 -0.0615 -0.0695
10675TIP3    H153440   1.219   4.630  15.602  0.1128 -0.2511  0.6023
10675TIP3    H253441   1.274   4.718  15.491 -0.4888  1.3774  1.5818
10676TIP3   OH253442   3.080   1.039  13.937  0.0743 -0.4110  0.4763
10676TIP3    H153443   2.985   1.029  13.933 -0.0841  0.2926  1.9067
10676TIP3    H253444   3.097   1.073  14.026  1.6715 -0.7221  0.3110
10677TIP3   OH253445   5.720   2.121  14.308  0.2532  0.1378 -0.4873
10677TIP3    H153446   5.796   2.157  14.262 -0.1952 -0.1428 -1.4512
10677TIP3    H253447   5.674   2.198  14.340  0.2586  0.3618 -1.0069
10678TIP3   OH253448   6.444   4.615  12.166  0.2457  0.3190 -0.6820
10678TIP3    H153449   6.348   4.610  12.164 -0.0716  1.0687  4.6052
10678TIP3    H253450   6.464   4.704  12.139 -0.8455  1.3201  1.6981
10679TIP3   OH253451   6.383   6.430   3.926 -0.6889 -0.1881 -0.1957
10679TIP3    H153452   6.459   6.383   3.959 -2.0092 -2.3218 -0.0852
10679TIP3    H253453   6.380   6.511   3.977  0.6726 -0.7541  0.7914
10680TIP3   OH253454   4.156   4.460   0.350  0.0115  0.1491  0.7076
10680TIP3    H153455   4.101   4.438   0.425  0.5450 -1.5651  0.6055
10680TIP3    H253456   4.240   4.419   0.369  0.6960  1.1998 -0.0113
10681TIP3   OH253457   0.148   5.643  11.260  0.1809  0.1903 -0.2186
10681TIP3    H153458   0.074   5.675  11.311 -0.5262  0.6819 -1.5054
10681TIP3    H253459   0.107   5.594  11.188  1.0963  0.6268 -1.0461
10682TIP3   OH253460   6.412   1.611   2.767 -0.1534 -0.3345 -0.4900
10682TIP3    H153461   6.390   1.656   2.849  0.4925 -0.6132 -0.1568
10682TIP3    H253462   6.330   1.611   2.717 -0.4148  0.3184 -0.0767
10683TIP3   OH253463   3.230   5.522   5.623  0.0398  0.3751 -0.6553
10683TIP3    H153464   3.152   5.469   5.638  0.9664 -0.9372 -0.3750
10683TIP3    H253465   3.216   5.602   5.674 -0.5620 -0.3973  0.3890
10684TIP3   OH253466   6.039   3.373   5.192  0.3425  0.4510 -0.4709
10684TIP3    H153467   5.980   3.299   5.182  1.8068 -0.7313 -0.5793
10684TIP3    H253468   6.089   3.376   5.110  1.5636  0.4099  0.2567
10685TIP3   OH253469   2.704   0.144  15.553 -0.1551  0.5301 -0.8847
10685TIP3    H153470   2.686   0.053  15.531 -0.8415 -0.1904  2.4299
10685TIP3    H253471   2.773   0.140  15.619 -1.2709  2.3282  0.4295
10686TIP3   OH253472   6.213   3.019  12.174  0.2465 -0.4743  0.3384
10686TIP3    H153473   6.231   2.929  12.204 -0.3774 -0.7940 -0.2525
10686TIP3    H253474   6.126   3.039  12.209  0.6394  0.1351  0.9934
10687TIP3   OH253475   0.464   1.585   0.616 -0.1458 -0.2521 -0.3882
10687TIP3    H153476   0.414   1.545   0.687 -0.4002 -1.5968 -1.3073
10687TIP3    H253477   0.434   1.676   0.613 -0.5856 -0.3529  0.8063
10688TIP3   OH253478   2.502   0.538  13.370 -0.1249  0.8732 -0.1751
10688TIP3    H153479   2.518   0.534  13.276  0.1566 -0.8752 -0.0859
10688TIP3    H253480   2.576   0.490  13.408  0.4662  2.7000  1.0286
10689TIP3   OH253481   3.769   0.322   5.231 -0.0384 -0.2267  0.5310
10689TIP3    H153482   3.753   0.401   5.178  0.3124  0.2170  1.0880
10689TIP3    H253483   3.860   0.299   5.212 -0.9152 -2.0533 -1.6997
10690TIP3   OH253484   1.580   0.643  12.604 -0.0556  0.5687 -0.2197
10690TIP3    H153485   1.585   0.721  12.549 -0.1829  1.8328  1.5052
10690TIP3    H253486   1.489   0.616  12.598 -0.6988  2.2334  1.3566
10691TIP3   OH253487   6.418   0.159  11.386  0.5574 -0.0438  0.3119
10691TIP3    H153488   6.352   0.185  11.321  0.8383 -0.5127 -0.1678
10691TIP3    H253489   6.468   0.239  11.403 -0.7100  0.5288  1.3625
10692TIP3   OH253490   2.892   6.486   3.951  0.6747 -0.0703  0.2598
10692TIP3    H153491   2.865   6.511   3.862  2.8153 -0.2059 -0.4633
10692TIP3    H253492   2.973   6.437   3.938  0.8682 -0.3270  2.2879
10693TIP3   OH253493   1.322   2.506  12.105  0.0279  0.4423 -0.4196
10693TIP3    H153494   1.349   2.439  12.168  1.1939  1.5895  0.3383
10693TIP3    H253495   1.403   2.531  12.060 -0.5345  0.7373 -1.2815
10694TIP3   OH253496   0.470   2.072   2.906 -0.6344 -0.5195 -0.0873
10694TIP3    H153497   0.531   2.030   2.968  0.2856 -0.5435 -0.9939
10694TIP3    H253498   0.386   2.028   2.922 -0.1625 -1.2639  0.4172
10695TIP3   OH253499   3.629   5.892   3.879 -0.1343 -0.4618  0.8164
10695TIP3    H153500   3.657   5.877   3.789 -1.6168 -0.1565  0.3105
10695TIP3    H253501   3.701   5.855   3.932  0.6611 -0.7870 -0.4686
10696TIP3   OH253502   4.588   0.636  16.695 -0.2095 -0.6927  0.5402
10696TIP3    H153503   4.546   0.655  16.611  0.7455  1.0804  0.4428
10696TIP3    H253504   4.670   0.591  16.671  0.0030 -0.2989  0.5307
10697TIP3   OH253505   0.470   1.996  15.518 -0.5528 -0.2270  0.2422
10697TIP3    H153506   0.547   2.045  15.546 -0.0330 -1.5770  1.2614
10697TIP3    H253507   0.426   2.053  15.456  0.7519  0.9620  0.3880
10698TIP3   OH253508   3.626   4.662   1.901  0.1524  0.6514 -0.2670
10698TIP3    H153509   3.695   4.641   1.963 -0.9072  0.5289  0.8937
10698TIP3    H253510   3.663   4.730   1.845  1.8675 -0.7516 -0.8799
10699TIP3   OH253511   1.149   6.168   3.135 -0.0505  0.1803 -0.4283
10699TIP3    H153512   1.062   6.170   3.177  0.5128 -1.0800  0.8762
10699TIP3    H253513   1.210   6.180   3.208  0.8527  2.5994 -1.5470
10700TIP3   OH253514   2.749   4.800  11.124 -0.2408  0.3455 -0.0972
10700TIP3    H153515   2.844   4.795  11.128 -0.2484  0.3270  0.0507
10700TIP3    H253516   2.720   4.711  11.145 -0.2904  0.3494 -0.1472
10701TIP3   OH253517   5.815   1.318  17.157 -0.0622 -0.5917  0.5148
10701TIP3    H153518   5.828   1.223  17.148 -1.3012 -0.6978 -0.2056
10701TIP3    H253519   5.831   1.335  17.250 -0.2190 -1.5719  0.7343
10702TIP3   OH253520   2.551   5.821  14.206 -0.1043 -0.3120 -0.0305
10702TIP3    H153521   2.459   5.846  14.207 -0.2658 -0.8674 -0.6787
10702TIP3    H253522   2.559   5.762  14.131  0.7157 -0.4988  0.2006
10703TIP3   OH253523   0.227   4.703  14.012 -0.7685  0.2077 -0.2343
10703TIP3    H153524   0.315   4.694  13.975  0.2324 -0.8171  2.3383
10703TIP3    H253525   0.240   4.702  14.106 -3.6903 -1.5661  0.2140
10704TIP3   OH253526   5.343   5.238  16.605  0.2671 -0.3026 -0.2768
10704TIP3    H153527   5.429   5.202  16.626 -0.1208 -0.9213  0.2744
10704TIP3    H253528   5.282   5.190  16.661 -0.3563  0.6439 -0.1273
10705TIP3   OH253529   1.753   6.521  14.578 -0.5728  0.1815  0.3288
10705TIP3    H153530   1.814   6.570  14.633 -1.2498  0.2167  1.0484
10705TIP3    H253531   1.701   6.469  14.639 -0.7758 -0.4094 -0.3326
10706TIP3   OH253532   0.416   3.947   3.285  0.0753  0.4232  0.1136
10706TIP3    H153533   0.466   4.020   3.247  1.2133 -1.3215 -1.8319
10706TIP3    H253534   0.378   3.984   3.365  0.5482  3.1790 -0.8618
10707TIP3   OH253535   4.612   0.656   5.845  0.2023 -0.2906  0.5046
10707TIP3    H153536   4.697   0.629   5.879  1.1463  0.9882 -0.7574
10707TIP3    H253537   4.558   0.577   5.849  1.5061 -1.1684  1.1207
10708TIP3   OH253538   1.578   2.210   4.686 -0.1841  0.2809 -0.5346
10708TIP3    H153539   1.632   2.181   4.760 -0.4321 -1.6188 -1.0677
10708TIP3    H253540   1.617   2.293   4.659  2.3922 -0.9643 -0.8235
10709TIP3   OH253541   2.593   2.467  11.001  0.0609 -0.1230  0.4389
10709TIP3    H153542   2.579   2.418  10.920  0.6090 -0.2630  0.4302
10709TIP3    H253543   2.685   2.490  10.999 -0.0245  0.2478  0.8170
10710TIP3   OH253544   3.871   6.183   3.992  0.1005 -0.1706  0.3309
10710TIP3    H153545   3.901   6.143   3.910  0.3644  1.8761 -0.5930
10710TIP3    H253546   3.783   6.215   3.972 -0.1503 -0.3674  1.1033
10711TIP3   OH253547   1.387   0.889  11.859 -0.1004 -0.0979  0.2442
10711TIP3    H153548   1.357   0.977  11.838  0.6044  0.1278  0.1681
10711TIP3    H253549   1.457   0.872  11.796  0.4915 -0.2962  0.9478
10712TIP3   OH253550   2.865   4.755   2.178 -0.1598  0.5057 -0.3262
10712TIP3    H153551   2.865   4.843   2.141 -2.2241  0.9431  0.6453
10712TIP3    H253552   2.889   4.767   2.270 -1.6880  0.2189  0.1208
10713TIP3   OH253553   2.598   1.394  16.636  0.1250 -0.7325 -0.0236
10713TIP3    H153554   2.681   1.346  16.634 -0.2702 -1.5165  1.2436
10713TIP3    H253555   2.548   1.351  16.706 -0.5748  0.9836  0.5530
10714TIP3   OH253556   0.006   0.964   3.586  0.0660 -0.2917  0.0549
10714TIP3    H153557   0.057   1.029   3.538 -0.6813  0.2440 -0.0309
10714TIP3    H253558   0.031   0.977   3.677  0.6008 -0.5028 -0.0607
10715TIP3   OH253559   0.374   0.138  15.268  0.4165 -0.2988 -0.3369
10715TIP3    H153560   0.423   0.138  15.350  0.5710 -0.9182 -0.4348
10715TIP3    H253561   0.430   0.186  15.206  0.4636 -0.1578 -0.1866
10716TIP3   OH253562   4.983   1.880  16.943  0.4214 -0.1831  0.8094
10716TIP3    H153563   5.074   1.872  16.915  0.5788  0.5545  1.0882
10716TIP3    H253564   4.982   1.958  16.999 -0.8607  1.3888 -1.2917
10717TIP3   OH253565   2.388   2.423   4.867 -0.4453  0.2583  0.0998
10717TIP3    H153566   2.397   2.436   4.773  1.8287 -1.5191  0.0388
10717TIP3    H253567   2.328   2.349   4.876 -1.2211  0.8700  0.1036
10718TIP3   OH253568   3.657   2.804  12.371  0.1600 -0.4143 -0.2506
10718TIP3    H153569   3.582   2.805  12.429 -0.7975  0.9557 -1.4744
10718TIP3    H253570   3.730   2.834  12.425 -0.5115 -0.1708  0.5260
10719TIP3   OH253571   0.776   1.540   2.542  0.5890  0.0974 -0.2443
10719TIP3    H153572   0.789   1.532   2.637 -1.1825 -1.2476 -0.0866
10719TIP3    H253573   0.766   1.634   2.527  0.4796  0.2871  0.9714
10720TIP3   OH253574   4.825   1.997   0.234  0.3274 -0.0478 -0.3199
10720TIP3    H153575   4.871   2.077   0.208  0.1785 -0.1682 -0.9577
10720TIP3    H253576   4.820   2.002   0.329  0.0019  0.8793 -0.3803
10721TIP3   OH253577   5.274   6.278   0.333  0.0225 -0.0284 -0.4988
10721TIP3    H153578   5.247   6.370   0.337  0.0494  0.0430 -1.8334
10721TIP3    H253579   5.318   6.269   0.248 -1.1106 -1.5816 -0.9514
10722TIP3   OH253580   2.757   1.635  12.439  0.3944 -0.0822 -0.7155
10722TIP3    H153581   2.701   1.706  12.409 -0.3443 -0.7714 -0.9833
10722TIP3    H253582   2.780   1.659  12.529 -0.9539 -0.1606 -0.3311
10723TIP3   OH253583   4.842   0.070  11.329  0.1187  0.2648 -0.0428
10723TIP3    H153584   4.767   0.026  11.289  0.1431  0.3978 -0.2329
10723TIP3    H253585   4.807   0.154  11.359 -0.4948 -0.8067  2.3848
10724TIP3   OH253586   0.116   5.152   4.656  0.2409  0.0960  0.1670
10724TIP3    H153587   0.102   5.058   4.670  0.2856 -0.0773 -0.9148
10724TIP3    H253588   0.044   5.194   4.704  0.7963 -0.4395  1.4903
10725TIP3   OH253589   5.071   4.907  17.072 -0.0012 -0.7042 -0.0858
10725TIP3    H153590   4.983   4.945  17.063  0.1274 -0.7599 -1.7596
10725TIP3    H253591   5.127   4.983  17.088 -0.4817 -0.7738  2.0219
10726TIP3   OH253592   6.009   2.788   0.108 -0.2196  0.1462  0.0631
10726TIP3    H153593   6.024   2.876   0.141  1.8055  0.2048 -0.9474
10726TIP3    H253594   6.093   2.761   0.072 -1.6895 -0.9166 -2.6715
10727TIP3   OH253595   6.632   5.621  16.478  0.4347  0.2149 -0.3186
10727TIP3    H153596   6.626   5.624  16.383 -0.7441 -0.7095 -0.2837
10727TIP3    H253597   6.575   5.692  16.508 -0.9375 -0.8831 -0.2687
10728TIP3   OH253598   5.840   5.648   4.421  0.0161 -0.3781 -0.0095
10728TIP3    H153599   5.773   5.707   4.455  0.5576  0.6227 -0.6484
10728TIP3    H253600   5.849   5.580   4.487 -0.3842  0.4384  0.8872
10729TIP3   OH253601   2.798   6.336   4.878  0.6452  0.2638 -0.6212
10729TIP3    H153602   2.832   6.352   4.790  1.2649 -1.0532 -0.6313
10729TIP3    H253603   2.713   6.295   4.864  1.1097 -0.7097 -0.6147
10730TIP3   OH253604   0.274   2.755   1.132  0.2662 -0.1807 -0.0240
10730TIP3    H153605   0.312   2.763   1.220 -0.3435 -1.4241  0.3531
10730TIP3    H253606   0.350   2.752   1.074  0.6657  1.5901  0.3598
10731TIP3   OH253607   3.373   2.638   4.832 -0.3530  0.1975  0.1662
10731TIP3    H153608   3.330   2.630   4.747 -0.2437  1.7669 -0.0519
10731TIP3    H253609   3.305   2.670   4.891 -0.0000  0.7496  0.2786
10732TIP3   OH253610   1.514   1.401  15.728 -0.0553 -0.0331  0.6962
10732TIP3    H153611   1.528   1.438  15.815 -0.2180 -1.3034  1.2852
10732TIP3    H253612   1.592   1.425  15.678 -0.0793  0.9284  1.1099
10733TIP3   OH253613   1.346   0.595  14.975 -0.2246 -0.5694  0.1991
10733TIP3    H153614   1.351   0.533  15.048 -2.1647 -1.0146 -0.0199
10733TIP3    H253615   1.283   0.661  15.005 -0.2569 -0.2090 -0.6675
10734TIP3   OH253616   2.682   0.115   0.427  0.1946 -0.0578  0.1219
10734TIP3    H153617   2.672   0.047   0.494 -0.1395  0.6014  0.7562
10734TIP3    H253618   2.610   0.176   0.445  1.3645  1.2406  0.4941
10735TIP3   OH253619   5.444   3.537  16.268  0.3189 -0.3546 -0.2656
10735TIP3    H153620   5.519   3.594  16.248 -0.5538  0.8561 -0.1694
10735TIP3    H253621   5.370   3.579  16.224 -0.9114  0.3163  2.3306
10736TIP3   OH253622   1.315   1.533   4.961 -0.0729  0.1328 -0.3943
10736TIP3    H153623   1.344   1.498   4.877 -0.5943 -1.5842  0.1257
10736TIP3    H253624   1.271   1.615   4.939  0.3645  0.0153 -1.7325
10737TIP3   OH253625   1.316   1.528  15.047  0.2405 -0.0145 -0.2586
10737TIP3    H153626   1.350   1.439  15.046 -0.6306 -0.3739  0.8744
10737TIP3    H253627   1.227   1.519  15.080  0.8595  1.4924  1.9286
10738TIP3   OH253628   2.042   4.644   4.592  1.2367  0.1549  0.3336
10738TIP3    H153629   2.090   4.704   4.534 -2.0184 -0.0192 -2.6873
10738TIP3    H253630   2.056   4.558   4.554 -1.6975  0.1463 -0.8649
10739TIP3   OH253631   2.885   2.201   3.603  0.3363 -0.3358 -0.2897
10739TIP3    H153632   2.848   2.278   3.645  0.6672 -0.6589  0.5991
10739TIP3    H253633   2.977   2.224   3.589  0.5756 -0.7878  0.5130
10740TIP3   OH253634   3.894   4.534   4.864  0.4626 -0.2898  0.6677
10740TIP3    H153635   3.874   4.535   4.770  0.6118  1.1962  0.6454
10740TIP3    H253636   3.813   4.503   4.905 -0.2646  0.9744  0.1978
10741TIP3   OH253637   2.511   2.271  12.787 -0.5664 -0.1212  0.1357
10741TIP3    H153638   2.515   2.255  12.881 -1.2343 -0.6064  0.0869
10741TIP3    H253639   2.545   2.192  12.747  0.4944  0.4093 -0.0184
10742TIP3   OH253640   4.348   1.782   0.608  0.2320  0.0244 -0.2416
10742TIP3    H153641   4.280   1.750   0.549  0.3315  0.3560 -0.5382
10742TIP3    H253642   4.330   1.739   0.691  1.7009 -2.5903 -1.2146
10743TIP3   OH253643   4.262   3.051  10.393  0.0975 -0.0389  0.0772
10743TIP3    H153644   4.313   3.106  10.452  0.1889  0.2108 -0.2367
10743TIP3    H253645   4.218   3.112  10.334  0.6136 -0.3152 -0.6074
10744TIP3   OH253646   3.808   4.460  14.855 -0.3514  0.7476 -0.5500
10744TIP3    H153647   3.729   4.504  14.888 -0.8474 -0.0495 -0.6457
10744TIP3    H253648   3.858   4.438  14.934 -0.0510  1.5563 -0.5059
10745TIP3   OH253649   3.665   4.547  15.474  0.3583 -0.0802  0.5243
10745TIP3    H153650   3.670   4.488  15.549 -0.5648 -0.4035  0.3266
10745TIP3    H253651   3.697   4.631  15.508  0.3355 -0.3280  1.1660
10746TIP3   OH253652   0.988   4.504  13.695 -0.1655 -0.4613 -0.7119
10746TIP3    H153653   1.009   4.511  13.601  1.6815 -1.0669 -0.3816
10746TIP3    H253654   1.063   4.457  13.732 -0.0514  1.2800  1.3708
10747TIP3   OH253655   5.576   0.772  15.760 -0.4762 -0.5704  0.4748
10747TIP3    H153656   5.578   0.817  15.845 -0.6877  0.3181  0.0149
10747TIP3    H253657   5.483   0.758  15.742 -0.4901  0.2099 -0.1062
10748TIP3   OH253658   0.354   3.167   5.592 -0.7570 -0.4622  0.0973
10748TIP3    H153659   0.286   3.137   5.531 -1.3035  0.5164  0.2003
10748TIP3    H253660   0.433   3.120   5.566 -1.1014 -0.4052 -1.0637
10749TIP3   OH253661   6.750   4.151   4.397  0.0958 -0.7461 -0.0610
10749TIP3    H153662   6.687   4.080   4.406  0.1328 -0.7156  0.4342
10749TIP3    H253663   6.710   4.226   4.440  1.3870 -1.3080  2.2090
10750TIP3   OH253664   4.921   0.204   3.841  0.9690  0.4067  0.3330
10750TIP3    H153665   4.980   0.271   3.806  0.0772 -0.2890 -2.5810
10750TIP3    H253666   4.837   0.221   3.798  0.3384 -1.6846  0.7043
10751TIP3   OH253667   3.500   6.272  13.722 -0.0804  0.0147  0.0421
10751TIP3    H153668   3.532   6.310  13.640  0.2123 -0.7660 -0.2076
10751TIP3    H253669   3.453   6.193  13.696 -1.4361  0.6508  0.4881
10752TIP3   OH253670   0.659   0.084  13.308  0.3212  0.1574  0.2832
10752TIP3    H153671   0.707   0.023  13.251 -1.4947 -0.6467 -0.4060
10752TIP3    H253672   0.683   0.170  13.275 -1.0889 -0.3101 -2.0446
10753TIP3   OH253673   3.744   1.126   0.668  0.2723  0.0059  0.1112
10753TIP3    H153674   3.811   1.178   0.622  0.7305  0.6229  1.4581
10753TIP3    H253675   3.661   1.164   0.638  0.6048  1.7787  1.3323
10754TIP3   OH253676   4.954   1.660   2.045 -0.1240  0.2871 -0.1651
10754TIP3    H153677   4.892   1.588   2.062 -0.9532  0.7951 -0.9692
10754TIP3    H253678   4.898   1.735   2.026  0.7499  0.8371 -0.5691
10755TIP3   OH253679   3.567   1.217   5.184 -0.4067 -0.4103  0.2359
10755TIP3    H153680   3.538   1.300   5.222  0.3925 -0.0068 -0.0462
10755TIP3    H253681   3.551   1.153   5.254  1.4193  0.3863  1.4278
10756TIP3   OH253682   3.546   3.035  15.927  0.6841 -0.5118 -0.2052
10756TIP3    H153683   3.480   3.082  15.876  0.4482 -1.4161 -0.7459
10756TIP3    H253684   3.618   3.097  15.935 -0.6060  0.8542  1.2453
10757TIP3   OH253685   5.148   2.100   4.171  0.3180  0.2177  0.4088
10757TIP3    H153686   5.109   2.016   4.194  1.4244 -0.1813  0.8551
10757TIP3    H253687   5.116   2.160   4.239 -1.1847  0.3760 -0.4115
10758TIP3   OH253688   5.386   2.751   0.164 -0.5835 -0.5166  0.2337
10758TIP3    H153689   5.411   2.792   0.247 -1.7050 -2.4171  1.5602
10758TIP3    H253690   5.300   2.789   0.143 -0.9107 -1.0072  0.6579
10759TIP3   OH253691   0.379   6.509  14.545  0.2991  0.3648  0.5957
10759TIP3    H153692   0.295   6.515  14.500 -0.0128  0.6145  1.2120
10759TIP3    H253693   0.443   6.531  14.478 -0.0961 -0.1980  0.0216
10760TIP3   OH253694   1.887   3.582   4.289  0.3273  0.6526  0.1532
10760TIP3    H153695   1.941   3.656   4.263  1.1428  0.8698  2.3650
10760TIP3    H253696   1.801   3.619   4.305 -0.0834  0.5832 -1.7162
10761TIP3   OH253697   2.047   5.043  17.022  0.1888  0.2534  0.7336
10761TIP3    H153698   2.031   5.126  16.977 -1.4877 -0.4159  0.0633
10761TIP3    H253699   1.988   5.046  17.098 -0.3060 -0.5659  0.3859
10762TIP3   OH253700   3.255   1.336  12.540  0.1351  0.4923  0.4003
10762TIP3    H153701   3.184   1.272  12.533  0.8822 -0.1854 -1.1653
10762TIP3    H253702   3.319   1.296  12.598  0.8499 -0.4386 -1.0047
10763TIP3   OH253703   2.098   5.198   3.032  0.2378  0.4342 -0.4823
10763TIP3    H153704   2.093   5.129   2.966 -2.7916  0.2732 -0.1578
10763TIP3    H253705   2.102   5.151   3.116  0.4082  0.6486 -0.3686
10764TIP3   OH253706   0.617   1.588   6.531  0.7277  0.1463 -0.0999
10764TIP3    H153707   0.676   1.520   6.563 -0.0246  0.2252  1.4652
10764TIP3    H253708   0.599   1.643   6.607 -0.7944  0.5462 -0.7280
10765TIP3   OH253709   3.657   6.526  14.475  0.2627 -0.2759 -0.0308
10765TIP3    H153710   3.674   6.519  14.569  2.1652 -0.0045 -0.3305
10765TIP3    H253711   3.635   6.437  14.448  2.8049 -0.9954  0.1211
10766TIP3   OH253712   6.193   4.491  14.861  0.4634 -0.2895 -0.0199
10766TIP3    H153713   6.207   4.433  14.936 -0.5301  0.8909  1.1136
10766TIP3    H253714   6.133   4.443  14.804 -2.0780  0.4242  1.9329
10767TIP3   OH253715   0.166   5.636   5.880 -0.1089 -0.4071  0.7331
10767TIP3    H153716   0.249   5.589   5.887  0.3058  0.3178  0.7201
10767TIP3    H253717   0.165   5.697   5.954  1.2661  2.5202 -1.5268
10768TIP3   OH253718   2.706   3.289   5.917  0.2611  0.5324  0.1377
10768TIP3    H153719   2.715   3.380   5.945  0.0414  0.8443 -0.7958
10768TIP3    H253720   2.796   3.262   5.899  0.2906  0.6639  0.0863
10769TIP3   OH253721   3.908   1.274   2.241 -0.0984 -0.1186  0.5327
10769TIP3    H153722   3.873   1.300   2.327  0.1718 -0.0313  0.6150
10769TIP3    H253723   3.961   1.196   2.260  1.1885  0.7856  0.6688
10770TIP3   OH253724   0.274   3.435   5.619  0.3674  0.2535 -0.0240
10770TIP3    H153725   0.293   3.342   5.631 -1.0737 -0.0066  0.3731
10770TIP3    H253726   0.186   3.446   5.657  0.9879  1.9855  0.9408
10771TIP3   OH253727   1.670   2.593  16.212 -0.4419 -0.2818 -0.2703
10771TIP3    H153728   1.601   2.589  16.279 -0.0663  0.1884  0.1539
10771TIP3    H253729   1.624   2.618  16.132 -0.5624  1.6391  0.3550
10772TIP3   OH253730   2.139   0.470   2.125 -0.0052  0.8760  0.5365
10772TIP3    H153731   2.144   0.564   2.144 -1.3072  1.0232  0.2148
10772TIP3    H253732   2.055   0.443   2.162 -0.4670  0.2198 -0.9507
10773TIP3   OH253733   4.493   0.030  16.475  0.0248 -0.3527  0.7247
10773TIP3    H153734   4.541   0.020  16.557 -0.3752 -1.1042  0.8594
10773TIP3    H253735   4.539   0.102  16.431 -0.7115  1.1172  2.2823
10774TIP3   OH253736   3.296   4.222  13.382  0.2256 -0.0174 -0.5226
10774TIP3    H153737   3.325   4.288  13.446  0.0274  0.5716 -1.0397
10774TIP3    H253738   3.355   4.148  13.396 -1.6041 -1.0333  2.3166
10775TIP3   OH253739   3.151   2.227  13.359  0.5827 -0.0857  0.9151
10775TIP3    H153740   3.092   2.264  13.293  0.4161  0.8325  1.5578
10775TIP3    H253741   3.117   2.140  13.376  0.3996 -0.1862  0.0659
10776TIP3   OH253742   4.321   2.354  10.622 -0.2295  0.0302  0.2674
10776TIP3    H153743   4.334   2.339  10.715 -1.2355  0.4621  0.4933
10776TIP3    H253744   4.362   2.279  10.579 -0.8190 -0.7877  1.1178
10777TIP3   OH253745   0.889   5.390   2.432  0.2189 -0.1211 -0.2278
10777TIP3    H153746   0.870   5.356   2.345 -1.1823  1.0972 -0.4119
10777TIP3    H253747   0.826   5.346   2.490  2.8137 -2.8772  0.6236
10778TIP3   OH253748   2.957   1.733  10.921  0.1871  1.1086  0.1806
10778TIP3    H153749   2.863   1.718  10.924  0.4004 -0.1647  0.9362
10778TIP3    H253750   2.995   1.645  10.921  1.4003  1.6213  0.9276
10779TIP3   OH253751   0.575   6.279  16.951  1.0156  0.1578 -0.3657
10779TIP3    H153752   0.539   6.199  16.913  0.8742  0.6402 -1.2702
10779TIP3    H253753   0.504   6.312  17.007  1.6290 -1.1283  1.1761
10780TIP3   OH253754   0.453   2.190   3.209 -1.0590  0.2373 -0.7335
10780TIP3    H153755   0.415   2.260   3.156 -1.0177  0.1417 -0.8889
10780TIP3    H253756   0.378   2.137   3.236 -1.2627  1.2401  0.6965
10781TIP3   OH253757   0.877   0.680  14.859  0.4980  0.9911 -0.0002
10781TIP3    H153758   0.823   0.737  14.914  0.2712 -1.3334  2.3337
10781TIP3    H253759   0.825   0.666  14.780 -2.2527 -0.9325  2.0494
10782TIP3   OH253760   0.937   2.908   0.508 -0.4568 -0.0203 -0.0300
10782TIP3    H153761   0.876   2.861   0.564  0.0708  0.4635  0.9581
10782TIP3    H253762   0.899   2.901   0.420 -1.5479 -0.3357  0.4590
10783TIP3   OH253763   5.362   1.503  12.339  0.0361 -0.0267  0.4625
10783TIP3    H153764   5.321   1.417  12.349 -0.0744 -0.1528 -0.8736
10783TIP3    H253765   5.442   1.498  12.390 -0.0396 -0.8861  0.5104
10784TIP3   OH253766   0.739   4.617  13.628 -0.3581 -0.1804  0.9033
10784TIP3    H153767   0.828   4.586  13.648 -0.4861 -0.8102  0.4975
10784TIP3    H253768   0.743   4.711  13.645  0.6754 -0.0317 -0.0620
10785TIP3   OH253769   1.275   1.536  12.363 -0.0570  0.0953  0.3467
10785TIP3    H153770   1.370   1.534  12.367 -0.0866 -1.8455  0.5491
10785TIP3    H253771   1.253   1.487  12.283 -0.8795  0.7080  0.1911
10786TIP3   OH253772   5.650   3.787   0.462  0.0488  0.9899  0.7282
10786TIP3    H153773   5.567   3.740   0.472 -0.4886  2.0301  1.1966
10786TIP3    H253774   5.715   3.731   0.505 -0.1537 -0.5193 -0.8770
10787TIP3   OH253775   2.274   0.395   3.733  0.1162  0.5899  0.4689
10787TIP3    H153776   2.211   0.467   3.728 -0.3880  0.0616 -1.1598
10787TIP3    H253777   2.282   0.376   3.826 -1.0014  1.6600  0.7925
10788TIP3   OH253778   5.224   2.619   5.649  0.0605 -0.5477  0.6388
10788TIP3    H153779   5.184   2.651   5.730 -0.6279  0.4287 -0.0651
10788TIP3    H253780   5.260   2.697   5.607  0.1514 -0.9945 -0.1319
10789TIP3   OH253781   1.408   5.160  12.304  0.1008 -0.0186  0.2876
10789TIP3    H153782   1.326   5.146  12.352 -1.3704  1.0068 -1.8238
10789TIP3    H253783   1.397   5.246  12.263  2.4777  0.3683  0.3824
10790TIP3   OH253784   3.277   2.716   1.130 -0.5749  0.0623  0.1825
10790TIP3    H153785   3.227   2.797   1.145  1.2499  1.2545 -0.0496
10790TIP3    H253786   3.297   2.684   1.217  0.1871  0.8049  0.2859
10791TIP3   OH253787   4.677   3.578  12.812 -0.0582  0.0816 -0.5454
10791TIP3    H153788   4.615   3.622  12.871  1.4634  0.1587  1.0461
10791TIP3    H253789   4.675   3.486  12.839  3.6849  0.7568  2.5353
10792TIP3   OH253790   6.167   3.767   3.916  0.1361 -0.2722  0.1672
10792TIP3    H153791   6.199   3.822   3.987  1.3966  0.6875 -1.1294
10792TIP3    H253792   6.098   3.819   3.875  0.1264 -0.4009  0.0214
10793TIP3   OH253793   6.590   2.092   5.009  0.3063 -0.6610  0.8234
10793TIP3    H153794   6.653   2.161   5.032  0.6844 -1.1030  1.1331
10793TIP3    H253795   6.523   2.098   5.077 -0.8124  0.8347 -0.3860
10794TIP3   OH253796   5.380   2.917   4.411  0.8878 -0.3273  0.9656
10794TIP3    H153797   5.345   2.962   4.334  2.0488  1.5917  1.5210
10794TIP3    H253798   5.325   2.947   4.483 -1.2237 -3.3372  0.7457
10795TIP3   OH253799   0.363   4.256   5.727 -0.4211 -0.0482 -0.3492
10795TIP3    H153800   0.423   4.232   5.656  0.8172 -0.4205  0.8079
10795TIP3    H253801   0.276   4.250   5.687  0.0552 -3.2343 -1.0010
10796TIP3   OH253802   3.178   1.864   3.741 -0.2674 -0.6646 -0.3096
10796TIP3    H153803   3.093   1.834   3.710 -0.6463  0.4366 -0.3551
10796TIP3    H253804   3.184   1.833   3.831 -1.4354  0.7056  0.2408
10797TIP3   OH253805   3.198   1.282   1.168 -0.4373 -0.4167 -0.6392
10797TIP3    H153806   3.154   1.317   1.091 -0.6734 -0.4043 -0.5015
10797TIP3    H253807   3.193   1.352   1.233  0.2181 -0.2397 -0.7839
10798TIP3   OH253808   4.938   0.269   4.143  0.1173  0.2472  0.2131
10798TIP3    H153809   4.871   0.219   4.190  0.6116  0.5859  1.3024
10798TIP3    H253810   4.942   0.228   4.057 -0.9815 -0.2345  0.3737
10799TIP3   OH253811   5.800   5.290   4.474  0.0226  0.0512  0.1135
10799TIP3    H153812   5.822   5.199   4.457  1.5079  0.1837  1.2412
10799TIP3    H253813   5.769   5.324   4.390  0.8595 -1.0929 -0.6559
10800TIP3   OH253814   1.529   3.059   2.462  0.2542 -0.8240  0.4157
10800TIP3    H153815   1.495   2.983   2.415 -0.9650  0.6912 -1.2323
10800TIP3    H253816   1.601   3.091   2.407 -1.7191  1.4575 -0.9990
10801TIP3   OH253817   6.686   6.442  15.103  0.3712  0.2294  0.4103
10801TIP3    H153818   6.778   6.418  15.112  0.7310  0.7322 -1.7039
10801TIP3    H253819   6.640   6.358  15.094  0.8203  0.0289 -0.0759
10802TIP3   OH253820   4.592   3.980  15.687 -0.0176  0.1786 -0.7950
10802TIP3    H153821   4.676   4.004  15.725 -0.3103  0.6676 -0.4514
10802TIP3    H253822   4.543   4.062  15.684 -0.7838 -0.2559 -0.2501
10803TIP3   OH253823   2.916   5.811   4.157 -0.1188 -0.0891  0.0889
10803TIP3    H153824   2.851   5.870   4.197  0.1442  0.7697 -0.7263
10803TIP3    H253825   2.989   5.868   4.135  0.0149 -0.6677 -1.0021
10804TIP3   OH253826   4.901   5.257   6.198 -0.6858  0.2506  0.0575
10804TIP3    H153827   4.900   5.167   6.230  1.1358  0.6761  1.4361
10804TIP3    H253828   4.913   5.250   6.104 -2.3241 -0.9672 -0.0710
10805TIP3   OH253829   3.744   5.505  14.818  0.2320  0.6948  0.1734
10805TIP3    H153830   3.752   5.418  14.778 -2.4252  0.4457  0.1293
10805TIP3    H253831   3.714   5.488  14.907 -3.8099  1.6344 -0.8929
10806TIP3   OH253832   4.304   1.339  16.202 -0.7840  0.5768 -0.5798
10806TIP3    H153833   4.286   1.354  16.109  1.3458  0.4644 -1.0208
10806TIP3    H253834   4.322   1.425  16.238  1.4507  0.2861 -0.9504
10807TIP3   OH253835   4.659   4.405  11.317  0.0530  0.3941  0.2811
10807TIP3    H153836   4.738   4.392  11.265  0.2369  2.1781  0.0846
10807TIP3    H253837   4.587   4.378  11.260  0.4990 -1.5608  0.5775
10808TIP3   OH253838   3.988   6.474   6.077  0.0304 -0.9097  0.1022
10808TIP3    H153839   3.994   6.387   6.115 -2.0901 -0.6714  1.0429
10808TIP3    H253840   3.984   6.533   6.153 -0.4924 -0.1397 -0.5144
10809TIP3   OH253841   5.826   1.396   3.038  0.2407  0.1576  0.0263
10809TIP3    H153842   5.896   1.404   3.103  1.6719  0.4335 -1.5192
10809TIP3    H253843   5.827   1.479   2.990  0.6545 -0.8414 -1.7571
10810TIP3   OH253844   5.240   4.889  16.119 -0.4345  0.3231  0.2147
10810TIP3    H153845   5.324   4.896  16.163 -0.7778 -0.2714  0.9823
10810TIP3    H253846   5.230   4.796  16.101 -0.7973  0.4254 -0.1234
10811TIP3   OH253847   4.044   4.975   4.444 -0.4758 -0.3814  0.5105
10811TIP3    H153848   4.009   4.899   4.398  0.4079 -0.0259 -0.7496
10811TIP3    H253849   4.138   4.960   4.448 -0.2393  0.8807 -0.1682
10812TIP3   OH253850   3.485   1.087  13.439 -0.4046  0.4479  0.2938
10812TIP3    H153851   3.442   1.159  13.484 -1.6284  0.1088 -0.3210
10812TIP3    H253852   3.578   1.111  13.438 -0.5771  1.1894  1.6057
10813TIP3   OH253853   2.277   1.766   0.496  0.0821 -0.4169  0.1370
10813TIP3    H153854   2.336   1.811   0.556 -2.0287  0.5577  1.5528
10813TIP3    H253855   2.230   1.703   0.552  1.3158 -2.7431 -1.3691
10814TIP3   OH253856   4.166   2.693   2.762 -0.3631  0.1487 -0.6198
10814TIP3    H153857   4.206   2.709   2.848  0.4117 -0.9300 -0.7762
10814TIP3    H253858   4.115   2.772   2.745 -1.3714 -0.0500  1.3029
10815TIP3   OH253859   0.215   0.773  16.498  0.0001 -0.3165 -0.1569
10815TIP3    H153860   0.254   0.720  16.428 -0.5468  0.7998 -1.3367
10815TIP3    H253861   0.138   0.723  16.526  0.8912 -1.3449  0.4832
10816TIP3   OH253862   0.785   3.769   0.506 -0.3473 -0.1626 -0.8858
10816TIP3    H153863   0.787   3.845   0.448  0.0155  0.3763 -0.1633
10816TIP3    H253864   0.778   3.694   0.447  1.3563  0.3016 -1.6827
10817TIP3   OH253865   3.738   6.418  16.904 -0.0889  0.1074  0.3132
10817TIP3    H153866   3.685   6.430  16.983 -0.7529 -0.2350 -0.0710
10817TIP3    H253867   3.678   6.438  16.832  0.5832  0.6631 -0.0969
10818TIP3   OH253868   4.180   5.005   4.755 -0.3025 -0.4817 -0.1747
10818TIP3    H153869   4.152   4.940   4.690 -1.4840 -0.9929  0.8066
10818TIP3    H253870   4.115   5.075   4.749  0.1627 -0.0608 -0.2580
10819TIP3   OH253871   6.402   0.423   0.297 -0.3979  0.3835  0.0730
10819TIP3    H153872   6.427   0.331   0.297  1.0493  0.7639 -0.6228
10819TIP3    H253873   6.462   0.464   0.235 -1.2370  1.7437  0.1400
10820TIP3   OH253874   1.939   3.814  14.192  0.3869  0.1770 -0.1195
10820TIP3    H153875   1.938   3.856  14.278  2.6991 -0.3062  0.1707
10820TIP3    H253876   2.021   3.765  14.190 -1.6655 -3.4298 -0.8722
10821TIP3   OH253877   0.267   4.575  16.065  0.2191  0.0167  0.3519
10821TIP3    H153878   0.228   4.493  16.034  0.6669 -0.4364  0.9855
10821TIP3    H253879   0.359   4.569  16.039 -0.0862  1.0316 -1.0296
10822TIP3   OH253880   3.258   3.102   3.629 -0.0318 -0.5898 -0.3106
10822TIP3    H153881   3.212   3.041   3.688 -1.1278  0.9660  0.4937
10822TIP3    H253882   3.189   3.137   3.573  0.6194 -0.2488 -0.9033
10823TIP3   OH253883   6.443   1.133   0.980  0.7745 -0.1358  0.1691
10823TIP3    H153884   6.380   1.074   1.021  0.1137 -0.1641 -0.8727
10823TIP3    H253885   6.409   1.147   0.891  2.4913 -0.5677 -0.5784
10824TIP3   OH253886   2.904   0.363   4.442  0.1281  0.3042 -0.5963
10824TIP3    H153887   2.817   0.386   4.474 -0.1587  0.8419 -1.7661
10824TIP3    H253888   2.955   0.444   4.449  0.4471  0.0788 -0.2440
10825TIP3   OH253889   5.784   3.083  12.686  0.7088  0.4879  0.3306
10825TIP3    H153890   5.863   3.030  12.697  1.3058  1.0739 -1.0744
10825TIP3    H253891   5.815   3.163  12.643 -0.3333  1.5761  1.5674
10826TIP3   OH253892   2.786   4.703   2.663  0.8388 -0.3511  0.0314
10826TIP3    H153893   2.702   4.728   2.701  0.6257 -0.1659 -0.5628
10826TIP3    H253894   2.850   4.760   2.707  0.8449 -1.4915  1.5406
10827TIP3   OH253895   3.718   0.177   2.935  0.2982 -0.3965 -0.2799
10827TIP3    H153896   3.737   0.268   2.911  0.3884 -0.0128  1.1990
10827TIP3    H253897   3.779   0.126   2.883 -0.0602  0.3668 -1.4658
10828TIP3   OH253898   2.072   6.450   5.011 -0.6171 -0.5687  0.0783
10828TIP3    H153899   2.163   6.475   4.991 -0.2726 -1.2706  0.7757
10828TIP3    H253900   2.062   6.363   4.972 -0.8249 -0.7224  0.4764
10829TIP3   OH253901   4.812   2.559   2.794  0.2038 -0.5989 -0.6354
10829TIP3    H153902   4.886   2.557   2.855 -0.3531  0.7219  0.1036
10829TIP3    H253903   4.792   2.467   2.778  0.6570 -0.9689  0.8061
10830TIP3   OH253904   3.567   2.534  16.150 -0.4716  0.1137 -0.5859
10830TIP3    H153905   3.622   2.575  16.216  0.6725 -0.8037 -0.9727
10830TIP3    H253906   3.627   2.508  16.080 -1.5178  0.0518 -1.4915
10831TIP3   OH253907   2.575   0.282  14.742  0.1716  0.0401 -0.1138
10831TIP3    H153908   2.661   0.272  14.782 -0.1766 -0.1289  0.6004
10831TIP3    H253909   2.578   0.368  14.700  0.5489  0.2127  0.2678
10832TIP3   OH253910   0.023   2.151  11.387 -0.1818  0.6881  0.0668
10832TIP3    H153911   0.013   2.176  11.295 -0.2563 -0.1493 -0.1529
10832TIP3    H253912   0.071   2.224  11.426  0.3509  0.7913 -0.7559
10833TIP3   OH253913   2.182   5.730  11.709  0.1179 -0.0794 -0.6844
10833TIP3    H153914   2.139   5.799  11.760  2.3904  0.0554  1.1324
10833TIP3    H253915   2.233   5.777  11.644  2.1557  0.0591  0.9420
10834TIP3   OH253916   4.410   4.109  16.628 -0.1171  0.2675  0.4761
10834TIP3    H153917   4.391   4.201  16.642  0.7352  0.5150  0.0836
10834TIP3    H253918   4.426   4.074  16.716  3.6839  1.4569  0.3410
10835TIP3   OH253919   3.601   6.616  16.003  0.0408 -0.4247  0.5594
10835TIP3    H153920   3.593   6.667  15.923  0.6994  0.4071  1.0154
10835TIP3    H253921   3.694   6.595  16.009  0.0894  0.0410  1.4298
10836TIP3   OH253922   2.568   6.312  13.931  0.0394 -0.6474 -0.0031
10836TIP3    H153923   2.643   6.343  13.981  0.7831  0.3572 -1.6781
10836TIP3    H253924   2.491   6.345  13.978  0.7131 -0.1202  0.7293
10837TIP3   OH253925   0.321   0.036  13.385 -0.2457  0.5352 -0.1156
10837TIP3    H153926   0.229   0.018  13.401 -0.1260  0.5849  0.6694
10837TIP3    H253927   0.323   0.126  13.351 -0.3140  1.3531  1.9454
10838TIP3   OH253928   4.466   6.045   5.241 -0.3557  0.1498 -0.1583
10838TIP3    H153929   4.419   5.961   5.243  1.0441 -0.6710 -1.0491
10838TIP3    H253930   4.455   6.080   5.329 -1.1124 -0.8715  0.1714
10839TIP3   OH253931   5.389   4.912  13.742 -0.2784 -0.5050 -0.2447
10839TIP3    H153932   5.391   4.844  13.674  0.5042 -1.2892  0.5414
10839TIP3    H253933   5.314   4.967  13.719  0.2653 -0.4627 -2.0282
10840TIP3   OH253934   1.801   0.167  12.162  1.4516  0.2215  0.3712
10840TIP3    H153935   1.763   0.222  12.094  0.3295 -0.2494  0.6147
10840TIP3    H253936   1.874   0.219  12.196  0.9643  1.1736 -0.0233
10841TIP3   OH253937   5.146   2.617  16.023  0.3440  0.0932 -0.1058
10841TIP3    H153938   5.174   2.598  15.934 -1.1255 -1.1016 -0.3440
10841TIP3    H253939   5.090   2.694  16.014 -0.6921 -0.6788 -0.3910
10842TIP3   OH253940   6.467   0.378  13.280  0.1415 -0.5657 -0.3309
10842TIP3    H153941   6.561   0.389  13.265  0.2824 -0.2588  0.7714
10842TIP3    H253942   6.426   0.426  13.208  0.7967  2.2600  1.0918
10843TIP3   OH253943   6.307   6.465   6.363  0.2587  0.2285 -0.7639
10843TIP3    H153944   6.395   6.454   6.326  0.4286  2.0348 -0.9214
10843TIP3    H253945   6.311   6.423   6.448  1.1076 -0.2034 -1.0134
10844TIP3   OH253946   4.672   0.291  16.741 -0.0126  0.3633 -0.0840
10844TIP3    H153947   4.747   0.349  16.750 -0.9455  2.0534 -2.7672
10844TIP3    H253948   4.596   0.347  16.753 -0.9209 -1.6458  4.3673
10845TIP3   OH253949   6.639   4.506  16.575  0.0232  0.2496 -0.1700
10845TIP3    H153950   6.676   4.580  16.624 -0.0213  0.7853 -0.9433
10845TIP3    H253951   6.557   4.539  16.540 -0.3394 -0.3921  0.0601
10846TIP3   OH253952   6.471   1.197   0.261  0.4581  0.3314  0.0349
10846TIP3    H153953   6.428   1.175   0.179  0.6731  1.9678 -0.5495
10846TIP3    H253954   6.416   1.158   0.329 -0.3071 -0.1133 -0.8406
10847TIP3   OH253955   1.822   2.776   1.904  0.4717  0.4029  0.4215
10847TIP3    H153956   1.854   2.741   1.987  0.9948  2.8570  1.3022
10847TIP3    H253957   1.897   2.773   1.845  0.1902 -1.0251  0.1168
10848TIP3   OH253958   3.372   4.651  11.158  0.5878 -0.0233 -0.4682
10848TIP3    H153959   3.466   4.646  11.144  0.5434 -0.4010 -0.6402
10848TIP3    H253960   3.334   4.637  11.071  0.4241  2.4157 -0.8142
10849TIP3   OH253961   3.389   2.066  15.702 -0.4998  0.4425  0.3759
10849TIP3    H153962   3.468   2.041  15.750 -0.2104  1.4969  0.4499
10849TIP3    H253963   3.355   2.141  15.749 -0.9867  0.6197 -0.2565
10850TIP3   OH253964   4.658   4.698   3.304 -0.1939 -0.2192 -0.8399
10850TIP3    H153965   4.669   4.723   3.213  0.1554  0.3691 -0.6389
10850TIP3    H253966   4.743   4.661   3.329  0.2298  1.0720 -0.3057
10851TIP3   OH253967   3.571   0.547   2.882 -0.4289 -0.0931  0.4294
10851TIP3    H153968   3.533   0.520   2.798 -2.3915 -0.3238  1.3633
10851TIP3    H253969   3.496   0.578   2.933  0.6157 -0.7918  2.4230
10852TIP3   OH253970   3.070   0.672  11.569 -0.1671  0.6517  0.0190
10852TIP3    H153971   3.018   0.743  11.531 -3.1846 -1.1482  0.6419
10852TIP3    H253972   3.154   0.676  11.522 -1.7181  2.1002 -2.7210
10853TIP3   OH253973   3.935   1.421   4.518  0.1115 -0.1192 -0.2821
10853TIP3    H153974   3.875   1.495   4.507  1.4513  0.9680 -0.3728
10853TIP3    H253975   3.994   1.427   4.443 -0.1830 -1.6962 -0.6622
10854TIP3   OH253976   4.553   1.758  13.807 -0.3084  0.1285  0.0879
10854TIP3    H153977   4.500   1.693  13.854 -0.8964  1.9955  2.0755
10854TIP3    H253978   4.517   1.843  13.834  2.7548  1.3923  0.3391
10855TIP3   OH253979   6.581   6.172  15.080  0.6825 -0.2527 -0.1627
10855TIP3    H153980   6.545   6.142  14.997  1.0491 -0.4453 -0.2537
10855TIP3    H253981   6.590   6.093  15.132 -0.7053  0.0166  0.5208
10856TIP3   OH253982   4.241   5.548  14.991 -0.2759  0.0014  0.0439
10856TIP3    H153983   4.156   5.505  15.004  1.0223 -2.4870  0.6868
10856TIP3    H253984   4.266   5.527  14.901  0.8906 -1.6670  0.7194
10857TIP3   OH253985   3.542   4.880  13.358 -0.0958  0.1879  0.1471
10857TIP3    H153986   3.506   4.965  13.383 -0.1666  0.1547  0.1565
10857TIP3    H253987   3.603   4.858  13.428 -0.2943  0.0945  0.2902
10858TIP3   OH253988   5.344   3.493  15.209 -0.0930  0.4592  0.1602
10858TIP3    H153989   5.359   3.423  15.272 -0.0055 -1.8423 -2.3822
10858TIP3    H253990   5.430   3.510  15.170 -0.6061  0.0523 -1.1814
10859TIP3   OH253991   4.423   3.030   2.318  0.4371  0.4538 -0.1884
10859TIP3    H153992   4.439   2.967   2.389 -0.6444 -0.1644 -0.4791
10859TIP3    H253993   4.424   2.977   2.238 -1.9917  0.5138 -0.3115
10860TIP3   OH253994   0.234   4.764  15.608  0.1868 -0.6711  0.4373
10860TIP3    H153995   0.168   4.706  15.646 -0.0097 -1.4444 -1.0479
10860TIP3    H253996   0.185   4.842  15.582  0.0891 -0.7034  0.5259
10861TIP3   OH253997   4.743   0.281   5.897  0.4654  0.4315 -0.4203
10861TIP3    H153998   4.674   0.220   5.871 -0.6197  2.0624 -1.5066
10861TIP3    H253999   4.696   0.353   5.939  1.7189  0.5392  0.8107
10862TIP3   OH254000   2.806   1.065  15.469 -0.1859 -0.4608  0.2851
10862TIP3    H154001   2.879   1.095  15.415  0.7097 -1.9824  0.6094
10862TIP3    H254002   2.738   1.131  15.458  0.5284 -0.0257 -1.5617
10863TIP3   OH254003   1.890   3.328   4.691  0.0871  0.5154 -0.4498
10863TIP3    H154004   1.909   3.422   4.682 -1.8521  0.9270 -0.3675
10863TIP3    H254005   1.918   3.307   4.780 -0.4804  1.2631 -0.0880
10864TIP3   OH254006   0.147   2.949   3.760 -0.2807  0.3627  0.1889
10864TIP3    H154007   0.140   3.044   3.748 -2.2344  0.1315 -0.7258
10864TIP3    H254008   0.138   2.936   3.854 -3.1215  0.8794  0.0313
10865TIP3   OH254009   3.991   2.464   1.818  0.2311 -0.1020 -0.2450
10865TIP3    H154010   3.921   2.412   1.780 -0.3457  0.5408 -0.0663
10865TIP3    H254011   4.043   2.494   1.743 -2.6291  3.7067 -0.8764
10866TIP3   OH254012   2.839   5.725  16.758  0.3690  0.1047 -0.0851
10866TIP3    H154013   2.921   5.697  16.718  1.6635  1.2446  1.6900
10866TIP3    H254014   2.802   5.645  16.795  0.4405 -0.4997 -1.2963
10867TIP3   OH254015   4.151   4.922  11.765  0.3487 -0.2939  0.4741
10867TIP3    H154016   4.144   5.017  11.768  1.3558 -0.2135  0.4956
10867TIP3    H254017   4.120   4.898  11.678  1.7222  0.2109 -0.1648
10868TIP3   OH254018   1.201   2.042  11.431  0.0144  0.4483  0.0993
10868TIP3    H154019   1.149   1.962  11.427 -0.9753  1.1025 -0.3361
10868TIP3    H254020   1.165   2.097  11.361  2.5556  0.1712 -1.5254
10869TIP3   OH254021   1.187   3.599  14.985 -0.1741  0.1979  0.3006
10869TIP3    H154022   1.208   3.534  15.053  1.0935  0.5927  0.2881
10869TIP3    H254023   1.112   3.561  14.938  1.4935 -1.9816 -0.6803
10870TIP3   OH254024   1.850   3.199  14.995  0.2433 -0.2177 -0.3974
10870TIP3    H154025   1.846   3.107  14.969  0.4577 -0.5881  0.8604
10870TIP3    H254026   1.791   3.206  15.070  0.9969  0.4449  0.1481
10871TIP3   OH254027   4.643   5.727  14.168 -0.1147 -0.1936  0.1025
10871TIP3    H154028   4.616   5.816  14.148 -0.0683 -0.0930  0.4823
10871TIP3    H254029   4.561   5.681  14.188 -0.3194 -0.6639 -1.7038
10872TIP3   OH254030   6.593   0.705  13.686 -0.7878 -0.2280 -0.2268
10872TIP3    H154031   6.590   0.612  13.665 -1.8031 -0.6406  1.5841
10872TIP3    H254032   6.532   0.714  13.760  1.5727  1.3220  1.5976
10873TIP3   OH254033   1.685   0.949   2.725 -0.2051 -0.2078 -0.5444
10873TIP3    H154034   1.638   1.010   2.668  1.0057  0.1232 -1.1813
10873TIP3    H254035   1.687   0.993   2.810 -1.3431 -0.3716 -0.4251
10874TIP3   OH254036   0.072   6.151  10.826  0.5066 -0.6822  0.3852
10874TIP3    H154037  -0.019   6.155  10.798  0.9532 -2.0392 -1.3755
10874TIP3    H254038   0.106   6.071  10.785  2.4248 -0.2845  1.1576
10875TIP3   OH254039   2.399   5.527  11.707 -0.0650  0.5291  0.6718
10875TIP3    H154040   2.493   5.542  11.706 -0.1310  0.8760 -0.3336
10875TIP3    H254041   2.388   5.441  11.667 -0.1123  0.0501  1.6749
10876TIP3   OH254042   1.099   2.348   2.597  0.7217  0.0437 -0.0994
10876TIP3    H154043   1.022   2.304   2.633 -0.3656  1.2618 -0.8938
10876TIP3    H254044   1.123   2.412   2.663 -0.4112  1.2950 -0.8595
10877TIP3   OH254045   1.851   4.175  16.411 -0.2390 -0.2435  0.0481
10877TIP3    H154046   1.821   4.177  16.320  1.2030 -0.9355 -0.4577
10877TIP3    H254047   1.851   4.267  16.439 -0.8094 -0.0471 -0.6035
10878TIP3   OH254048   3.895   3.780  15.606  0.1301 -0.0817  0.1459
10878TIP3    H154049   3.966   3.838  15.581  0.4797 -0.1769  0.9124
10878TIP3    H254050   3.932   3.692  15.601  0.3464 -0.0810  1.4041
10879TIP3   OH254051   5.123   5.180  11.341  0.3566  0.2721 -0.4195
10879TIP3    H154052   5.193   5.187  11.276  0.2058 -0.0545 -0.6215
10879TIP3    H254053   5.062   5.116  11.303  0.4046 -0.1240  0.1688
10880TIP3   OH254054   0.295   0.737   2.887 -0.2911 -0.5531 -1.0282
10880TIP3    H154055   0.225   0.749   2.950  0.6731  0.5645 -0.1453
10880TIP3    H254056   0.345   0.662   2.919  0.6241  0.4638 -0.0537
10881TIP3   OH254057   0.972   4.611   1.337  0.7057 -0.1970  0.0512
10881TIP3    H154058   1.015   4.528   1.361  0.3046 -2.0765 -5.0436
10881TIP3    H254059   0.879   4.591   1.343  0.5771 -0.9884 -3.4131
10882TIP3   OH254060   4.061   4.687  13.137  0.7233 -0.2703  0.0229
10882TIP3    H154061   4.036   4.739  13.213 -0.0594 -1.1227  0.3575
10882TIP3    H254062   4.021   4.732  13.063 -2.0336 -1.6969  0.5627
10883TIP3   OH254063   4.046   5.241  13.795  0.3774  0.1143 -0.1118
10883TIP3    H154064   4.073   5.165  13.744 -1.6919 -0.4468 -0.4046
10883TIP3    H254065   3.951   5.239  13.793  0.1495 -0.4074  4.4581
10884TIP3   OH254066   1.950   3.102   6.402  0.5054  1.2105 -0.3239
10884TIP3    H154067   1.861   3.134   6.408  0.3591  0.7747 -0.1791
10884TIP3    H254068   1.966   3.093   6.308 -1.4616 -3.8256 -0.3632
10885TIP3   OH254069   3.696   1.258  15.295  0.2543  0.2974  0.2450
10885TIP3    H154070   3.776   1.236  15.343  0.3590 -0.2416 -0.1756
10885TIP3    H254071   3.629   1.201  15.334 -0.1534  1.4639  1.2941
10886TIP3   OH254072   6.281   2.811  11.684  0.5754 -0.2143  0.1530
10886TIP3    H154073   6.257   2.755  11.611 -0.6621  1.9745 -1.1923
10886TIP3    H254074   6.198   2.835  11.725  0.9881  1.2712  0.1691
10887TIP3   OH254075   0.087   1.353   4.749 -0.2176 -0.2994 -0.0864
10887TIP3    H154076   0.013   1.410   4.727 -1.6305 -1.4401  1.5531
10887TIP3    H254077   0.062   1.314   4.833  3.0053  0.5554  1.3196
10888TIP3   OH254078   1.113   4.352   1.274  0.0576  0.6178  0.0344
10888TIP3    H154079   1.156   4.267   1.289  0.4093  0.7095 -0.4612
10888TIP3    H254080   1.031   4.330   1.230 -0.1088  0.4938  0.4024
10889TIP3   OH254081   1.544   4.393   1.884 -0.3733  0.3130  0.2066
10889TIP3    H154082   1.454   4.413   1.860 -0.6088 -1.0690 -0.1508
10889TIP3    H254083   1.544   4.298   1.897  1.3572  0.1004 -1.2306
10890TIP3   OH254084   5.339   1.632  12.762  0.2235 -0.0078  0.2065
10890TIP3    H154085   5.272   1.687  12.803  0.7127  1.0307 -0.3603
10890TIP3    H254086   5.386   1.592  12.835  0.5775  1.2035  0.6453
10891TIP3   OH254087   1.295   5.698  10.497  0.5767 -0.3785 -0.2080
10891TIP3    H154088   1.375   5.668  10.453  0.6045 -2.7928  1.4156
10891TIP3    H254089   1.309   5.676  10.589 -1.5602  0.0686  0.2388
10892TIP3   OH254090   4.865   6.015   6.031  0.3914  0.2692 -0.6071
10892TIP3    H154091   4.797   5.991   5.968 -1.4138  0.7468  1.1053
10892TIP3    H254092   4.835   6.098   6.067  0.7633 -0.5792  1.7341
10893TIP3   OH254093   5.929   5.475   0.963 -0.0262 -0.5317 -0.1225
10893TIP3    H154094   5.895   5.535   1.029  0.9724 -1.0914  0.9153
10893TIP3    H254095   6.018   5.506   0.945  0.8676 -2.2107  1.1304
10894TIP3   OH254096   0.948   2.409  13.143 -0.2150  0.3576  0.0923
10894TIP3    H154097   1.027   2.444  13.185  0.1031 -1.2344  0.8599
10894TIP3    H254098   0.885   2.400  13.215 -0.3227 -0.5321 -0.1110
10895TIP3   OH254099   6.535   3.135   3.117 -0.7662 -0.6078 -0.1729
10895TIP3    H154100   6.557   3.050   3.156  1.3303 -0.3193 -0.6509
10895TIP3    H254101   6.444   3.150   3.142 -0.0937 -1.3349  2.9541
10896TIP3   OH254102   3.447   0.188   0.267  0.1873  0.4829  0.1603
10896TIP3    H154103   3.459   0.217   0.357  0.7922  1.9732 -0.3788
10896TIP3    H254104   3.434   0.269   0.218 -1.2081 -0.3840 -0.9374
10897TIP3   OH254105   5.131   3.824  14.003  0.2425 -0.2274  0.2156
10897TIP3    H154106   5.114   3.732  13.981 -0.5630  0.1633 -0.8077
10897TIP3    H254107   5.045   3.863  14.014  0.5837  0.4159  0.6780
10898TIP3   OH254108   2.036   0.181  15.792  0.8219 -0.0195 -0.1658
10898TIP3    H154109   1.963   0.235  15.820 -0.0335 -1.3536  0.2311
10898TIP3    H254110   2.114   0.230  15.818  0.0828  1.8743 -1.4869
10899TIP3   OH254111   5.161   1.549  15.241  0.6266  0.0733 -0.1108
10899TIP3    H154112   5.114   1.496  15.305 -1.8319 -0.9608 -2.6424
10899TIP3    H254113   5.103   1.623  15.225  1.6455  0.8000 -0.4566
10900TIP3   OH254114   4.835   1.383  13.659 -0.0566 -0.0414  0.1732
10900TIP3    H154115   4.868   1.399  13.747  0.0482 -1.4863  0.4104
10900TIP3    H254116   4.907   1.340  13.614  0.7241  2.7224 -1.3544
10901TIP3   OH254117   6.666   3.263  15.318 -0.1710 -0.2439  0.8474
10901TIP3    H154118   6.739   3.303  15.272  0.1734 -1.0668  0.6595
10901TIP3    H254119   6.683   3.169  15.314 -0.6282 -0.3848  1.8332
10902TIP3   OH254120   4.610   2.598   6.178  0.4509  0.3579  0.7146
10902TIP3    H154121   4.534   2.607   6.236 -0.5503 -1.0240 -0.3396
10902TIP3    H254122   4.636   2.506   6.186  1.9357  0.7933  0.9638
10903TIP3   OH254123   2.718   1.291  16.184 -0.3811  0.5779 -0.0260
10903TIP3    H154124   2.792   1.256  16.234 -0.6321 -0.2708 -0.2459
10903TIP3    H254125   2.656   1.321  16.250 -0.4137  0.0893  0.1636
10904TIP3   OH254126   3.899   1.535  13.613  0.3320 -0.7035  0.0648
10904TIP3    H154127   3.905   1.628  13.588  1.5002 -1.2835 -2.0292
10904TIP3    H254128   3.806   1.520  13.628  0.1077  0.7842  0.2838
10905TIP3   OH254129   6.256   5.099   3.663 -0.0137 -0.2482 -0.0882
10905TIP3    H154130   6.209   5.088   3.580  0.5399 -0.3837 -0.3812
10905TIP3    H254131   6.332   5.152   3.641 -0.2238  0.2793  0.4620
10906TIP3   OH254132   1.922   6.222  16.849  0.4446  0.2843 -0.2133
10906TIP3    H154133   1.960   6.135  16.859 -1.4664 -0.6714 -0.9816
10906TIP3    H254134   1.835   6.215  16.889  1.0886  2.4565  1.6641
10907TIP3   OH254135   3.222   2.984  11.888 -0.2052 -0.4231 -0.1234
10907TIP3    H154136   3.238   2.890  11.899 -0.4740 -0.0973  3.5458
10907TIP3    H254137   3.307   3.024  11.903 -0.6758  0.1083  1.1224
10908TIP3   OH254138   6.032   4.657   4.918 -0.3994 -0.3127 -0.4385
10908TIP3    H154139   6.004   4.749   4.915  1.8572  0.5610  2.6991
10908TIP3    H254140   6.071   4.641   4.832  0.2155  2.0345 -0.6366
10909TIP3   OH254141   2.007   3.721  15.393 -0.3550 -0.3234 -0.3650
10909TIP3    H154142   1.965   3.705  15.308 -0.4172 -1.3828 -0.1453
10909TIP3    H254143   1.963   3.660  15.453  1.4087 -1.3856 -0.1129
10910TIP3   OH254144   6.255   0.094  12.040 -0.0120  0.0980 -0.0795
10910TIP3    H154145   6.288   0.082  11.951 -0.9141  1.8840 -0.6820
10910TIP3    H254146   6.163   0.069  12.036 -0.2066  0.7460  0.1994
10911TIP3   OH254147   6.017   4.411  16.132 -0.0808  0.4062  0.0952
10911TIP3    H154148   6.060   4.382  16.212  1.0020 -0.4615 -0.7803
10911TIP3    H254149   6.052   4.499  16.116 -2.2394  1.6575  1.9480
10912TIP3   OH254150   3.372   2.941  10.191 -0.3586 -0.2205  0.5643
10912TIP3    H154151   3.459   2.981  10.184 -1.5096  2.7003  1.8503
10912TIP3    H254152   3.374   2.894  10.274 -0.5759  1.4916  1.5749
10913TIP3   OH254153   4.147   0.954   3.882 -0.0971 -0.3918  0.2225
10913TIP3    H154154   4.144   0.989   3.971 -1.0019 -1.8273  0.7773
10913TIP3    H254155   4.055   0.946   3.856  0.1292 -1.3078 -0.3100
10914TIP3   OH254156   6.225   4.334  11.825  0.3624  0.2685 -0.1043
10914TIP3    H154157   6.144   4.354  11.778  0.9182 -0.5359 -1.4333
10914TIP3    H254158   6.272   4.417  11.828 -1.1246  1.0618  1.9115
10915TIP3   OH254159   3.524   0.037   3.394  0.7153 -0.6310 -0.2029
10915TIP3    H154160   3.526   0.096   3.318 -0.5686 -0.5973 -0.2167
10915TIP3    H254161   3.615   0.007   3.403  1.2857  0.9424 -0.5104
10916TIP3   OH254162   4.053   0.743   2.178 -0.1848  0.0057  0.1285
10916TIP3    H154163   4.115   0.719   2.109 -1.2320 -2.5708  0.0678
10916TIP3    H254164   4.083   0.697   2.255 -1.2876 -0.2415  0.4204
10917TIP3   OH254165   1.562   6.492  14.387  0.5240  0.0538  0.3532
10917TIP3    H154166   1.627   6.504  14.457  0.7726  1.3491 -0.0857
10917TIP3    H254167   1.564   6.398  14.369  3.8344  0.3363 -1.1321
10918TIP3   OH254168   5.882   0.333  12.008  0.3783 -0.0863 -0.2091
10918TIP3    H154169   5.830   0.287  12.073  0.0631  0.5699 -0.0011
10918TIP3    H254170   5.973   0.309  12.028  0.1486 -1.4300 -0.7330
10919TIP3   OH254171   3.720   2.061  14.665 -0.2965  0.0476 -0.2917
10919TIP3    H154172   3.725   2.073  14.570 -1.3293  0.0505 -0.3424
10919TIP3    H254173   3.700   1.968  14.676 -2.9963  0.6223 -0.1508
10920TIP3   OH254174   2.356   6.484  12.595 -0.1835  0.1413 -0.1284
10920TIP3    H154175   2.450   6.468  12.605  0.0598  0.5041 -1.6415
10920TIP3    H254176   2.351   6.562  12.539 -1.3836  0.4179  0.3507
10921TIP3   OH254177   1.418   1.610   1.187  0.3997 -0.2388  0.0034
10921TIP3    H154178   1.336   1.656   1.205 -0.4322 -0.5769 -2.6367
10921TIP3    H254179   1.480   1.679   1.165  0.1836 -0.1331 -0.2781
10922TIP3   OH254180   3.136   3.525  14.386  0.1626 -0.1590 -0.3281
10922TIP3    H154181   3.152   3.616  14.411 -1.8386  0.4049 -1.0404
10922TIP3    H254182   3.110   3.483  14.468  0.3392  0.0862 -0.1435
10923TIP3   OH254183   1.157   3.806  15.329 -0.3319  0.9595  0.0022
10923TIP3    H154184   1.062   3.798  15.323 -0.3687  1.5955 -0.3846
10923TIP3    H254185   1.172   3.890  15.372  0.0514  0.4129  0.9505
10924TIP3   OH254186   3.425   5.137  11.981  1.0596 -0.4225  0.6975
10924TIP3    H154187   3.345   5.109  11.936 -0.6890 -0.4154  3.5972
10924TIP3    H254188   3.490   5.072  11.957 -0.1080 -1.0483 -0.8886
10925TIP3   OH254189   1.355   3.197   3.758  0.0290 -0.7758  0.2870
10925TIP3    H154190   1.421   3.260   3.788  1.7143 -2.1098 -0.4677
10925TIP3    H254191   1.319   3.159   3.838  0.0889  0.0521  0.7128
10926TIP3   OH254192   0.446   6.068   0.737  0.2011 -0.0083  0.5126
10926TIP3    H154193   0.452   5.975   0.717 -0.0147  0.4748 -1.9523
10926TIP3    H254194   0.537   6.094   0.754 -0.1410 -1.5030  5.6917
10927TIP3   OH254195   2.554   5.004  11.177 -0.6531 -0.2825 -0.2597
10927TIP3    H154196   2.621   4.940  11.200 -1.4287 -0.4792  1.5054
10927TIP3    H254197   2.485   4.992  11.243 -1.7957  0.8668 -1.2145
10928TIP3   OH254198   1.260   6.438  16.657  0.1272 -0.1069 -0.1662
10928TIP3    H154199   1.279   6.467  16.746  0.0648 -0.4760 -0.0344
10928TIP3    H254200   1.165   6.450  16.647 -0.2682 -2.2614  0.6203
10929TIP3   OH254201   1.801   1.350  14.750 -0.2320 -0.2970  0.5166
10929TIP3    H154202   1.845   1.390  14.825  0.4648 -0.5726  0.2626
10929TIP3    H254203   1.869   1.297  14.708  0.0070  1.6040 -1.5956
10930TIP3   OH254204   4.025   0.988  15.968 -0.2152  0.2641  0.0449
10930TIP3    H154205   4.063   0.928  16.031 -1.3469  1.0654  1.5289
10930TIP3    H254206   3.993   1.061  16.021 -2.2802  0.3844 -1.3028
10931TIP3   OH254207   0.194   3.854  15.752 -0.2626  0.0902 -0.0632
10931TIP3    H154208   0.216   3.928  15.809  0.2943  1.1870 -1.6756
10931TIP3    H254209   0.099   3.855  15.748 -0.2088  2.0452 -1.7482
10932TIP3   OH254210   0.426   6.319   0.171  0.1896  0.3902  0.7399
10932TIP3    H154211   0.381   6.326   0.255 -0.1623  2.3252  0.4276
10932TIP3    H254212   0.514   6.354   0.188  0.6029 -0.5928  0.6458
10933TIP3   OH254213   2.975   2.244  15.656 -0.3163 -0.0841  0.3066
10933TIP3    H154214   2.987   2.317  15.717  1.6505 -0.1183  0.0002
10933TIP3    H254215   2.888   2.209  15.677 -1.0145  1.9383  0.8743
10934TIP3   OH254216   6.104   5.595   2.036  0.2538  0.2897  0.4222
10934TIP3    H154217   6.149   5.524   2.081 -1.1474  0.9052  2.9280
10934TIP3    H254218   6.126   5.584   1.944  1.2404 -2.5149  0.9557
10935TIP3   OH254219   4.853   1.162   5.124 -0.2813 -0.0909  0.2133
10935TIP3    H154220   4.944   1.131   5.132 -0.3190 -0.6649 -1.3195
10935TIP3    H254221   4.851   1.208   5.040 -0.7849  2.2068  1.4331
10936TIP3   OH254222   4.063   1.928  14.680 -0.3412 -0.2417 -0.3861
10936TIP3    H154223   4.140   1.905  14.733 -0.8234  1.9552  1.3752
10936TIP3    H254224   3.990   1.885  14.724 -0.2559 -1.5287 -1.4924
10937TIP3   OH254225   0.167   4.669   3.297 -0.3733 -0.0198  0.1374
10937TIP3    H154226   0.223   4.622   3.358 -1.7395 -1.7969  0.0680
10937TIP3    H254227   0.196   4.639   3.210  1.2979  2.1928 -0.0996
10938TIP3   OH254228   0.822   4.295   6.131 -0.7827  0.5031 -0.3048
10938TIP3    H154229   0.727   4.306   6.137 -0.8077  0.4026 -0.4989
10938TIP3    H254230   0.834   4.201   6.121 -0.7328  0.6326 -1.5231
10939TIP3   OH254231   4.439   2.010  12.073 -0.2862  0.0587 -0.0608
10939TIP3    H154232   4.390   2.084  12.037  0.2849  0.7289  0.5104
10939TIP3    H254233   4.501   2.051  12.134  1.2725 -0.7217 -1.0972
10940TIP3   OH254234   0.202   3.925  14.743  0.5556  0.0161  0.2773
10940TIP3    H154235   0.280   3.965  14.780  0.8110  0.9291 -1.1759
10940TIP3    H254236   0.144   3.999  14.724  0.3706 -0.4251 -0.9573
10941TIP3   OH254237   0.842   6.702  16.348  0.1521  0.1699 -0.0409
10941TIP3    H154238   0.916   6.648  16.376  0.1579 -0.0630 -0.5018
10941TIP3    H254239   0.880   6.769  16.292  0.0943  0.4318  0.2320
10942TIP3   OH254240   5.237   5.228   1.848  0.6680  0.0142 -0.5153
10942TIP3    H154241   5.202   5.317   1.860  0.5085  0.2259 -2.3827
10942TIP3    H254242   5.184   5.174   1.906  0.9423  1.1820  0.8487
10943TIP3   OH254243   4.170   3.184   0.833 -0.3434  0.5553  0.3482
10943TIP3    H154244   4.227   3.107   0.836 -0.5797  0.2671 -1.6418
10943TIP3    H254245   4.202   3.235   0.759 -2.3213  0.6425 -0.4970
10944TIP3   OH254246   3.033   2.005  11.730 -0.2354 -0.9128 -0.0549
10944TIP3    H154247   3.099   2.074  11.725  0.3627 -1.4389  0.5684
10944TIP3    H254248   2.989   2.019  11.814 -0.9495 -0.5429 -0.4823
10945TIP3   OH254249   0.834   3.580  15.165  0.7612 -0.0459  0.1035
10945TIP3    H154250   0.858   3.567  15.257  0.8386  2.0172  0.4058
10945TIP3    H254251   0.748   3.622  15.168  0.3424 -0.8294 -0.7966
10946TIP3   OH254252   4.653   1.790  14.802 -0.3801  0.1933  0.6286
10946TIP3    H154253   4.609   1.727  14.746  0.8438 -0.3356  0.2488
10946TIP3    H254254   4.664   1.745  14.886  2.1792 -0.8240 -0.2029
10947TIP3   OH254255   6.395   6.492   1.107  0.2722  0.1340 -0.5144
10947TIP3    H154256   6.361   6.407   1.078 -0.4121  0.4459 -0.6492
10947TIP3    H254257   6.372   6.496   1.200 -0.7623  0.6768 -0.7873
10948TIP3   OH254258   6.773   6.273  12.729 -0.2829 -0.5105 -0.8707
10948TIP3    H154259   6.796   6.199  12.785 -1.6305 -0.5391 -0.3184
10948TIP3    H254260   6.842   6.337  12.744  0.1561 -1.1119 -0.2899
10949TIP3   OH254261   4.123   1.693   0.458 -0.3734  0.0081  0.5110
10949TIP3    H154262   4.102   1.781   0.429 -2.9130 -0.9512 -0.6951
10949TIP3    H254263   4.047   1.640   0.434  0.7231 -2.3546  1.9793
10950TIP3   OH254264   4.180   1.972  16.189  0.2645 -0.1901  0.2941
10950TIP3    H154265   4.155   2.030  16.261  1.0353 -0.4924  0.8158
10950TIP3    H254266   4.272   1.951  16.207  0.2920 -0.7242 -0.4694
10951TIP3   OH254267   4.700   0.625  12.100  0.1546 -0.1854  0.0890
10951TIP3    H154268   4.656   0.546  12.069 -2.3041  1.4413 -0.7388
10951TIP3    H254269   4.691   0.688  12.028 -0.1725  1.6328  1.6629
10952TIP3   OH254270   1.767   4.767  12.498  0.3113  0.0465  0.1128
10952TIP3    H154271   1.720   4.829  12.442 -2.0849 -1.4371  0.4101
10952TIP3    H254272   1.744   4.681  12.462  4.3968 -0.6991 -0.9385
10953TIP3   OH254273   5.452   1.803   1.754  0.3522  0.3946  0.6162
10953TIP3    H154274   5.384   1.805   1.821  1.3286  0.5343  1.6197
10953TIP3    H254275   5.454   1.892   1.719 -0.2172  0.2995  0.3368
10954TIP3   OH254276   0.609   2.926   5.090  0.1324 -0.1191 -0.5384
10954TIP3    H154277   0.694   2.897   5.057 -0.2663 -1.2558 -0.6234
10954TIP3    H254278   0.558   2.944   5.011  0.7380  1.9525 -0.4766
10955TIP3   OH254279   0.924   6.275   5.365 -0.4090 -0.1349 -0.3526
10955TIP3    H154280   0.970   6.193   5.382 -0.4022 -0.1709 -0.5457
10955TIP3    H254281   0.930   6.286   5.270 -0.0255  0.3120 -0.2777
10956TIP3   OH254282   0.482   3.699  12.379  0.3779  0.4812 -0.5121
10956TIP3    H154283   0.409   3.761  12.381  1.1895  1.4796 -1.2129
10956TIP3    H254284   0.461   3.640  12.307 -0.7105 -0.4646  0.5639
10957TIP3   OH254285   0.220   6.146  11.272  0.3917 -0.1286 -0.5573
10957TIP3    H154286   0.159   6.082  11.309  0.2960  1.7457  2.7091
10957TIP3    H254287   0.305   6.121  11.307  1.0669 -0.9090 -2.6628
10958TIP3   OH254288   2.326   0.911   4.590  0.6391  0.2126 -0.1259
10958TIP3    H154289   2.413   0.917   4.629  1.0243 -0.2087 -0.9205
10958TIP3    H254290   2.271   0.876   4.660  0.7739  1.8951  0.8661
10959TIP3   OH254291   0.946   3.855   3.059  0.1776  0.4980 -0.4651
10959TIP3    H154292   0.911   3.781   3.010 -0.9391  1.2890 -0.8735
10959TIP3    H254293   0.963   3.922   2.993  0.6131  0.8348 -0.0155
10960TIP3   OH254294   5.108   3.207  12.450 -0.0744  0.1797 -0.0483
10960TIP3    H154295   5.091   3.115  12.472 -4.4602  0.0769 -3.1418
10960TIP3    H254296   5.076   3.255  12.526  0.6048 -0.7779  0.8623
10961TIP3   OH254297   2.123   0.810  16.391  0.3633 -0.3356 -0.3710
10961TIP3    H154298   2.119   0.796  16.485  1.2622 -2.7278 -0.6534
10961TIP3    H254299   2.171   0.892  16.381  0.3143 -0.0990  1.2542
10962TIP3   OH254300   1.904   5.684   3.628  0.2370 -0.0583  0.2661
10962TIP3    H154301   1.885   5.748   3.560  1.9648 -0.5611 -0.7376
10962TIP3    H254302   1.821   5.640   3.644 -0.6702  1.5135  0.0156
10963TIP3   OH254303   4.971   5.552   3.481  0.3779  0.2518 -0.0120
10963TIP3    H154304   5.021   5.632   3.495  1.8685 -0.9042  1.4820
10963TIP3    H254305   4.960   5.514   3.569 -1.9234 -0.2520 -0.4616
10964TIP3   OH254306   5.496   2.716   6.803 -0.0394  0.0233  0.7027
10964TIP3    H154307   5.511   2.760   6.886 -0.4821 -0.8206  1.2302
10964TIP3    H254308   5.415   2.666   6.816  0.9911 -1.7409  0.4424
10965TIP3   OH254309   1.468   1.194  17.022 -0.0667  0.0094  0.2192
10965TIP3    H154310   1.447   1.199  17.115 -1.0964  2.8943 -0.1111
10965TIP3    H254311   1.532   1.124  17.015  0.7296  0.3936  3.2356
10966TIP3   OH254312   1.970   4.668   1.300 -0.5879 -0.0748 -0.8070
10966TIP3    H154313   1.916   4.612   1.244 -0.4138 -1.6629  0.5656
10966TIP3    H254314   1.923   4.671   1.383  0.2480  0.4668 -0.3458
10967TIP3   OH254315   6.155   6.597   0.577 -0.8054 -0.3880  0.7879
10967TIP3    H154316   6.190   6.619   0.490  1.3105  0.2804  1.7603
10967TIP3    H254317   6.074   6.647   0.583  2.2497  4.9380  1.6772
10968TIP3   OH254318   5.196   3.494   5.473  0.4021 -0.3322 -0.2035
10968TIP3    H154319   5.186   3.510   5.567 -1.5035  0.6801 -0.5524
10968TIP3    H254320   5.212   3.580   5.435 -2.8878 -0.1184 -1.2645
10969TIP3   OH254321   1.377   6.728   3.029  0.3661 -0.5016 -0.1687
10969TIP3    H154322   1.320   6.683   2.966  1.8577 -0.8586 -1.2906
10969TIP3    H254323   1.466   6.705   3.001  1.0897  1.1842  0.7175
10970TIP3   OH254324   1.461   0.398   2.966 -0.3097  0.5526  0.1388
10970TIP3    H154325   1.386   0.456   2.951 -0.0254  0.9767  0.3324
10970TIP3    H254326   1.426   0.327   3.020 -0.5185  0.8768  0.4381
10971TIP3   OH254327   0.723   4.200   0.659  0.2079  0.1180 -0.1537
10971TIP3    H154328   0.748   4.292   0.660  1.4380 -0.2127 -0.2034
10971TIP3    H254329   0.805   4.152   0.651 -0.4654 -0.9708 -0.7322
10972TIP3   OH254330   5.804   2.676  15.290 -0.0704 -0.0011  0.5743
10972TIP3    H154331   5.868   2.610  15.315  1.5669  0.4943 -2.1038
10972TIP3    H254332   5.846   2.760  15.309 -0.3281  0.3052 -0.1558
10973TIP3   OH254333   0.731   0.978  16.650  0.1288 -0.7130 -0.2793
10973TIP3    H154334   0.749   0.936  16.734 -1.6257 -0.1618  0.3873
10973TIP3    H254335   0.817   0.990  16.611  0.9494 -1.2252  1.3114
10974TIP3   OH254336   6.498   2.844  12.491  0.0496 -0.0477  0.0084
10974TIP3    H154337   6.514   2.764  12.542 -0.6698 -1.6110 -2.1463
10974TIP3    H254338   6.567   2.845  12.425 -1.2440 -0.0938 -1.3683
10975TIP3   OH254339   3.461   4.032  10.528 -0.2215 -0.3291 -0.2904
10975TIP3    H154340   3.509   4.006  10.449 -0.1250  1.2043 -0.7484
10975TIP3    H254341   3.414   4.111  10.502 -2.2362 -1.2616  0.4459
10976TIP3   OH254342   4.213   5.358   4.354  0.0685 -0.2306 -0.5513
10976TIP3    H154343   4.284   5.386   4.296  0.8820 -2.8385 -0.8783
10976TIP3    H254344   4.244   5.378   4.442  1.5064 -1.9860 -0.6533
10977TIP3   OH254345   2.390   5.220  14.162  0.3849 -0.0636 -0.8121
10977TIP3    H154346   2.452   5.163  14.207 -0.2362  0.5325  0.8394
10977TIP3    H254347   2.305   5.196  14.200 -0.0678  0.8572 -1.2482
10978TIP3   OH254348   3.579   1.684   6.154  0.2272  0.5172  0.0520
10978TIP3    H154349   3.483   1.678   6.151  0.2267  0.5532  0.0004
10978TIP3    H254350   3.597   1.778   6.165  0.2393  0.4496  0.6496
10979TIP3   OH254351   6.082   3.007   0.505 -0.3526 -0.0349 -0.2585
10979TIP3    H154352   6.102   3.073   0.572 -0.5446  0.3859 -0.6187
10979TIP3    H254353   6.161   2.954   0.500 -0.7251 -0.7306  1.0748
10980TIP3   OH254354   3.581   1.964   5.541  0.4704  1.0916 -0.8866
10980TIP3    H154355   3.654   2.004   5.589 -0.9541  2.1655  0.3975
10980TIP3    H254356   3.576   2.015   5.460 -0.0015  2.1748 -0.1781
10981TIP3   OH254357   3.468   5.743  16.760  1.2259  0.0974 -0.6035
10981TIP3    H154358   3.533   5.678  16.786  1.9034  0.6764 -0.8320
10981TIP3    H254359   3.513   5.799  16.697  0.4964  0.4868 -0.7876
10982TIP3   OH254360   3.468   2.723  13.510  0.0115 -0.9376 -0.5761
10982TIP3    H154361   3.496   2.661  13.443  1.5602  0.2413 -1.0510
10982TIP3    H254362   3.549   2.765  13.539 -0.9974  0.9001 -0.3223
10983TIP3   OH254363   1.222   0.743   3.870 -0.2476  0.0064 -0.2930
10983TIP3    H154364   1.314   0.770   3.867  0.1199 -1.3084 -0.9989
10983TIP3    H254365   1.189   0.778   3.953  1.0637 -0.0713  0.2660
10984TIP3   OH254366   3.619   0.543   1.075 -0.3626 -0.0853  0.1407
10984TIP3    H154367   3.660   0.549   1.161  1.4902  0.7399 -0.7677
10984TIP3    H254368   3.686   0.575   1.015  0.2048 -5.1845 -2.1584
10985TIP3   OH254369   1.668   3.682  10.244  0.1588  0.1809 -0.6677
10985TIP3    H154370   1.757   3.676  10.209  0.0809 -0.3231 -0.7809
10985TIP3    H254371   1.618   3.617  10.193  0.3301 -1.4995  1.2587
10986TIP3   OH254372   3.196   4.712   0.912  0.4690 -0.2680  0.4569
10986TIP3    H154373   3.111   4.745   0.940  1.0887  0.7236  1.1865
10986TIP3    H254374   3.212   4.753   0.827  0.0761 -0.7238  0.1565
10987TIP3   OH254375   5.665   2.315   3.743  0.0835  0.1456  0.0765
10987TIP3    H154376   5.709   2.292   3.824 -0.0350 -0.2297  0.0352
10987TIP3    H254377   5.614   2.237   3.720  0.1304  0.2396 -0.3643
10988TIP3   OH254378   6.431   2.251   1.635  0.2310  0.5206 -0.1293
10988TIP3    H154379   6.441   2.273   1.542  1.0401  1.4175  0.1654
10988TIP3    H254380   6.355   2.303   1.664 -1.0066 -0.9615 -0.6632
10989TIP3   OH254381   3.710   4.031  10.309 -0.7541 -0.9477 -0.1816
10989TIP3    H154382   3.708   4.119  10.347 -1.9772 -0.6621 -0.9033
10989TIP3    H254383   3.629   4.024  10.259  1.7721 -0.5638 -4.5244
10990TIP3   OH254384   6.189   2.205  13.892 -0.2041 -0.1125  0.1050
10990TIP3    H154385   6.283   2.205  13.906 -0.3178 -0.2298  0.8523
10990TIP3    H254386   6.179   2.183  13.799  0.4897 -0.4022  0.0957
10991TIP3   OH254387   0.019   6.297   1.765  0.1335 -0.2237  0.7146
10991TIP3    H154388  -0.055   6.267   1.819 -1.9471 -0.3030 -2.0544
10991TIP3    H254389   0.074   6.346   1.825 -3.1629  1.4795  2.4809
10992TIP3   OH254390   4.531   4.013  11.020 -0.0895 -0.1639  0.0522
10992TIP3    H154391   4.562   4.070  11.090  1.2987 -0.6604 -0.1424
10992TIP3    H254392   4.518   4.071  10.945  0.0824  0.0958  0.2225
10993TIP3   OH254393   1.415   3.378  10.906 -0.0544  0.1113  0.1784
10993TIP3    H154394   1.427   3.383  10.811 -1.1742 -0.1351  0.0162
10993TIP3    H254395   1.408   3.285  10.924  1.7923  0.0597  0.7305
10994TIP3   OH254396   2.888   5.789  15.469  0.6313  0.0794 -0.0273
10994TIP3    H154397   2.826   5.795  15.397  1.2670  1.4233 -0.4682
10994TIP3    H254398   2.972   5.773  15.427  0.9585  0.5865  0.4315
10995TIP3   OH254399   2.126   4.406   4.093  0.4611  0.6860  0.0307
10995TIP3    H154400   2.101   4.492   4.126 -0.3975  0.6155 -0.4393
10995TIP3    H254401   2.081   4.344   4.151  0.2554  0.5537 -0.2715
10996TIP3   OH254402   0.878   2.270   4.803  0.2042 -0.2492 -0.0466
10996TIP3    H154403   0.789   2.305   4.800  0.5041  0.5723  0.4748
10996TIP3    H254404   0.869   2.186   4.849 -0.0205  0.7436  1.7734
10997TIP3   OH254405   6.440   1.424   2.353  0.1968 -0.5279 -0.0521
10997TIP3    H154406   6.415   1.339   2.388  0.5211  0.3102  2.3021
10997TIP3    H254407   6.376   1.485   2.391  2.1055  0.7662  1.1457
10998TIP3   OH254408   5.948   1.877   2.693  0.3174 -0.0530  0.3282
10998TIP3    H154409   6.038   1.910   2.694 -0.1317  1.2848 -1.0540
10998TIP3    H254410   5.907   1.918   2.770  0.8643 -0.6010  0.9131
10999TIP3   OH254411   0.887   4.181   3.699  0.4159  0.1453  0.2487
10999TIP3    H154412   0.793   4.187   3.714  0.3145  0.2596 -0.4245
10999TIP3    H254413   0.924   4.256   3.748  0.1620  0.1099  0.4964
11000TIP3   OH254414   2.060   0.286  13.008  0.8342 -0.7728 -0.2191
11000TIP3    H154415   2.035   0.378  13.010 -2.1803 -1.5481 -1.0094
11000TIP3    H254416   2.130   0.279  13.073  1.8323  2.2550 -0.8959
11001TIP3   OH254417   4.929   5.645  11.076 -0.0836  0.0805  0.3446
11001TIP3    H154418   4.876   5.698  11.018 -0.5443  0.0438  0.7322
11001TIP3    H254419   4.991   5.600  11.018 -0.3883  0.2236 -0.0897
11002TIP3   OH254420   6.435   1.511   4.261 -0.1051 -0.3495  0.1912
11002TIP3    H154421   6.356   1.457   4.264 -0.4873  0.0981 -1.2382
11002TIP3    H254422   6.500   1.456   4.218  0.6068 -0.9998  2.0678
11003TIP3   OH254423   1.273   4.224  14.809  0.6394  0.2100  0.5524
11003TIP3    H154424   1.273   4.306  14.859  0.9480  1.5033 -1.5272
11003TIP3    H254425   1.366   4.200  14.803  0.6467  0.3166  0.2117
11004TIP3   OH254426   2.388   6.413  15.487  0.0617 -0.0791 -0.5596
11004TIP3    H154427   2.393   6.327  15.445  1.0154 -0.5519  0.5145
11004TIP3    H254428   2.325   6.402  15.558  0.6223 -0.0392 -0.0583
11005TIP3   OH254429   4.713   1.432  15.304  0.3971 -0.1163  0.2066
11005TIP3    H154430   4.762   1.378  15.241 -0.8422 -1.1724  0.1304
11005TIP3    H254431   4.776   1.451  15.374  0.8456 -1.6804  0.2382
11006TIP3   OH254432   1.968   1.481  11.016 -0.4695 -0.3948  0.1172
11006TIP3    H154433   2.030   1.515  11.081  0.8883  0.9169 -1.8266
11006TIP3    H254434   1.941   1.558  10.966 -0.0583 -1.6492 -2.0736
11007TIP3   OH254435   5.941   1.476   1.668 -0.1799 -0.0847  0.0594
11007TIP3    H154436   6.003   1.430   1.612  0.0658 -1.3627  1.3604
11007TIP3    H254437   5.855   1.453   1.633 -0.0387 -1.1653  0.4194
11008TIP3   OH254438   1.558   5.621  15.917  0.1713 -0.5470 -0.2091
11008TIP3    H154439   1.554   5.551  15.851 -1.2199 -0.8365  0.1679
11008TIP3    H254440   1.613   5.688  15.877  2.1870 -2.1759 -0.2628
11009TIP3   OH254441   4.053   2.434   1.237 -0.2718  0.2762  0.7419
11009TIP3    H154442   3.981   2.376   1.214 -0.7382  0.7547  0.9725
11009TIP3    H254443   4.124   2.375   1.264 -0.1174 -0.2442 -0.7333
11010TIP3   OH254444   4.916   0.433  12.182  0.0629  0.0485  0.0108
11010TIP3    H154445   4.823   0.454  12.189 -0.0916 -0.8299  0.6255
11010TIP3    H254446   4.919   0.345  12.145  0.6720  0.3744 -0.7415
11011TIP3   OH254447   3.163   5.212   0.252 -0.0753 -0.3100  0.0926
11011TIP3    H154448   3.231   5.249   0.308  0.5204 -0.6568 -0.4026
11011TIP3    H254449   3.081   5.246   0.289  0.3563  0.0563  0.7249
11012TIP3   OH254450   1.591   6.613  11.059 -0.0795  0.4341 -0.0171
11012TIP3    H154451   1.649   6.684  11.085 -0.8317  0.9795  0.1941
11012TIP3    H254452   1.626   6.535  11.104  0.3586  0.7974  0.2731
11013TIP3   OH254453   3.790   0.684   1.284 -0.1762 -0.5369 -0.2430
11013TIP3    H154454   3.851   0.609   1.284 -0.6041 -0.8892  0.0831
11013TIP3    H254455   3.819   0.738   1.211 -0.0672 -1.1948 -0.6988
11014TIP3   OH254456   5.842   1.915  15.003 -0.0196 -0.0200 -0.4604
11014TIP3    H154457   5.884   1.899  14.918  1.1705 -2.1268  0.4925
11014TIP3    H254458   5.913   1.908  15.067 -1.0291  0.8856  0.7829
11015TIP3   OH254459   5.111   2.227  12.662  0.2612 -0.5520 -0.1023
11015TIP3    H154460   5.026   2.244  12.622  0.7632  0.8281 -0.6258
11015TIP3    H254461   5.103   2.260  12.751  0.0401 -1.0580  0.0704
11016TIP3   OH254462   6.195   1.152  15.979  0.1246  0.1167 -0.6519
11016TIP3    H154463   6.217   1.242  15.955 -0.8054  0.3982 -0.4505
11016TIP3    H254464   6.173   1.110  15.896  1.5163 -0.2101 -0.8796
11017TIP3   OH254465   5.636   6.308   3.054  0.2414 -0.6380 -0.2962
11017TIP3    H154466   5.620   6.364   3.130  0.6823  0.1422 -0.7752
11017TIP3    H254467   5.731   6.310   3.043  0.0954  0.0803 -1.4915
11018TIP3   OH254468   5.565   0.576   1.664 -0.0454  0.0606 -0.0704
11018TIP3    H154469   5.649   0.531   1.657 -0.5268 -1.0542  1.0741
11018TIP3    H254470   5.550   0.614   1.578  0.3621 -1.9878 -1.0640
11019TIP3   OH254471   2.812   4.584  15.380  0.0714  0.1512 -0.3684
11019TIP3    H154472   2.823   4.552  15.290  2.8410 -1.6441  0.5801
11019TIP3    H254473   2.750   4.523  15.420  1.8565 -1.3823  0.0872
11020TIP3   OH254474   0.763   1.682   1.363  0.1216  0.0008 -0.3305
11020TIP3    H154475   0.809   1.752   1.408  1.4745  0.6576 -2.6448
11020TIP3    H254476   0.785   1.694   1.271 -0.6472 -2.7160 -0.9221
11021TIP3   OH254477   5.059   1.302  14.567  0.3992  0.5476  0.0737
11021TIP3    H154478   5.127   1.239  14.540 -0.4893 -0.9426  1.2599
11021TIP3    H254479   5.104   1.360  14.628  1.5994  1.9881 -2.0931
11022TIP3   OH254480   2.476   3.856   4.443  0.1995 -0.6900  1.0823
11022TIP3    H154481   2.572   3.851   4.448  0.1939 -0.3243  1.4913
11022TIP3    H254482   2.459   3.876   4.351  0.5992  1.2865  1.4255
11023TIP3   OH254483   2.524   5.652  11.326 -0.0973  0.5945 -0.0707
11023TIP3    H154484   2.458   5.584  11.317  0.5110 -0.3070  2.1258
11023TIP3    H254485   2.478   5.733  11.306 -1.8071 -0.0461  1.2284
11024TIP3   OH254486   2.350   1.168  16.158 -0.1515  0.2672 -0.0853
11024TIP3    H154487   2.295   1.089  16.158  0.1835  0.0020  1.4668
11024TIP3    H254488   2.438   1.135  16.176  0.2639  0.8417 -1.0569
11025TIP3   OH254489   4.660   1.542   2.025  0.3093 -0.4833 -0.3855
11025TIP3    H154490   4.616   1.488   1.959 -0.1605 -1.3314  0.5987
11025TIP3    H254491   4.595   1.553   2.094  2.0834 -2.9789  1.7641
11026TIP3   OH254492   6.038   0.435   4.350 -0.0263  0.6260 -0.7975
11026TIP3    H154493   6.080   0.450   4.266  0.0026 -0.3180 -0.9580
11026TIP3    H254494   6.030   0.522   4.389 -0.4530  1.1252 -1.9699
11027TIP3   OH254495   5.595   0.376  11.540 -0.4895 -0.3706  0.5541
11027TIP3    H154496   5.544   0.419  11.471 -1.3061 -0.7150  0.9352
11027TIP3    H254497   5.563   0.416  11.621  0.9535  0.5213  0.6827
11028TIP3   OH254498   6.596   0.060   2.491  0.5029 -0.3937  0.0033
11028TIP3    H154499   6.692   0.060   2.487  0.5332  0.9751  0.4794
11028TIP3    H254500   6.575   0.118   2.564 -0.7732  2.1582 -2.2853
11029TIP3   OH254501   2.000   5.085   2.566  0.0564 -0.3746 -0.6328
11029TIP3    H154502   2.079   5.065   2.515 -0.4084  2.4668 -2.5760
11029TIP3    H254503   1.928   5.049   2.514 -0.3094  1.3653 -1.3519
11030TIP3   OH254504   1.091   5.067   5.286 -0.0202 -0.3372  0.2954
11030TIP3    H154505   1.133   5.129   5.227  0.2611 -0.1134  0.7307
11030TIP3    H254506   1.004   5.104   5.302  0.3705  0.2639  1.0494
11031TIP3   OH254507   3.024   5.382   5.772  0.4110  0.5166  0.2445
11031TIP3    H154508   2.960   5.344   5.712  0.5564 -0.2319  0.5602
11031TIP3    H254509   2.984   5.375   5.859  0.4307  1.1018  0.3055
11032TIP3   OH254510   5.353   0.364  15.402  0.0508  0.0467  1.0690
11032TIP3    H154511   5.432   0.378  15.453  0.6806 -0.8347  0.3435
11032TIP3    H254512   5.381   0.368  15.311 -0.7282 -0.2978  0.8043
11033TIP3   OH254513   5.295   2.652   2.986  0.1387  0.1695 -0.0938
11033TIP3    H154514   5.335   2.717   3.043  2.5732 -0.1972 -1.3101
11033TIP3    H254515   5.262   2.585   3.046  1.0940  0.6422  0.9802
11034TIP3   OH254516   2.736   6.356  15.088  0.0276 -0.2790 -0.5969
11034TIP3    H154517   2.682   6.354  15.008 -0.9397  0.0588  0.0350
11034TIP3    H254518   2.763   6.447  15.096 -1.9853  0.2156  0.8325
11035TIP3   OH254519   5.577   6.715   4.494  0.6134  0.7235  0.2102
11035TIP3    H154520   5.658   6.668   4.515  0.4627 -0.3538 -1.5943
11035TIP3    H254521   5.603   6.779   4.428 -0.0592  0.1842 -0.5834
11036TIP3   OH254522   0.796   0.548  16.793  0.0157 -0.4455 -0.3201
11036TIP3    H154523   0.731   0.479  16.810  0.1852 -0.4009  0.5408
11036TIP3    H254524   0.867   0.529  16.854  0.0277  0.5496 -0.0195
11037TIP3   OH254525   4.504   5.641   1.453 -0.4093 -0.0283 -0.1890
11037TIP3    H154526   4.416   5.676   1.442 -0.3843 -0.0627 -0.4977
11037TIP3    H254527   4.536   5.625   1.364  0.1967  0.6961 -0.1103
11038TIP3   OH254528   5.325   3.840   3.315  0.1703  0.2262  0.4183
11038TIP3    H154529   5.261   3.769   3.314 -0.0820  0.4502  0.4021
11038TIP3    H254530   5.311   3.884   3.399  0.0801  0.4759  0.2729
11039TIP3   OH254531   0.690   6.197  12.771  0.3991  0.7083  0.3053
11039TIP3    H154532   0.782   6.216  12.757  0.2605  0.9025 -0.3587
11039TIP3    H254533   0.689   6.112  12.815  0.9266  1.1359  1.1421
11040TIP3   OH254534   4.341   4.870   5.140 -0.0116  0.3282 -0.3235
11040TIP3    H154535   4.435   4.853   5.133  0.2458  1.4893  0.1184
11040TIP3    H254536   4.317   4.838   5.227  0.0724  0.4567 -0.2530
11041TIP3   OH254537   6.658   5.704   4.485 -0.2603 -0.1483  0.4091
11041TIP3    H154538   6.611   5.731   4.406  0.9948 -0.7073 -0.5368
11041TIP3    H254539   6.600   5.729   4.557 -0.5824  2.1071 -0.5830
11042TIP3   OH254540   0.825   5.965   1.628  0.1389  0.1785  0.4635
11042TIP3    H154541   0.878   5.995   1.702 -1.2610  2.1852  0.7054
11042TIP3    H254542   0.745   6.018   1.633 -0.9223 -1.2215 -1.1912
11043TIP3   OH254543   1.394   0.845  15.522  0.5853  0.3668  0.2457
11043TIP3    H154544   1.335   0.775  15.494 -0.6404  1.7022 -0.5682
11043TIP3    H254545   1.479   0.821  15.484 -0.0600 -0.1360 -0.9076
11044TIP3   OH254546   5.288   0.125  16.374 -0.6226  0.4063 -0.1777
11044TIP3    H154547   5.251   0.140  16.287 -0.8949  1.6180  0.1325
11044TIP3    H254548   5.241   0.050  16.408  0.0505 -0.5851 -1.3931
11045TIP3   OH254549   4.059   1.828   1.791 -0.3417 -0.2406 -0.7003
11045TIP3    H154550   4.141   1.867   1.819  0.0577 -1.5194 -0.0389
11045TIP3    H254551   4.032   1.880   1.715  0.9126  0.3657 -0.7415
11046TIP3   OH254552   6.737   4.168   4.989  0.0781  0.1838  0.0484
11046TIP3    H154553   6.807   4.224   5.022  1.1046 -0.1603 -1.4944
11046TIP3    H254554   6.770   4.135   4.905 -0.7668 -2.1924  0.5949
11047TIP3   OH254555   2.080   2.547  11.053  0.0220  0.1547  0.0053
11047TIP3    H154556   2.062   2.454  11.065  0.1525  0.0589 -0.5158
11047TIP3    H254557   2.047   2.566  10.965  1.8242  0.1257 -0.6972
11048TIP3   OH254558   2.409   3.362   0.137  0.3842 -0.4079  0.5329
11048TIP3    H154559   2.415   3.458   0.134  0.2643 -0.3651  1.5241
11048TIP3    H254560   2.429   3.334   0.047 -0.1556  0.5759  0.0975
11049TIP3   OH254561   4.950   1.405   4.124  0.3221  0.3309  0.1322
11049TIP3    H154562   4.902   1.402   4.041  2.7971  0.2568 -1.3362
11049TIP3    H254563   4.939   1.317   4.160 -2.2981  0.8886  0.8361
11050TIP3   OH254564   4.850   5.118  16.216  0.3177 -0.1825 -0.2546
11050TIP3    H154565   4.925   5.060  16.229 -0.8382 -1.3330  1.5582
11050TIP3    H254566   4.800   5.078  16.144 -1.5318 -2.6466  2.2812
11051TIP3   OH254567   6.126   4.348   1.139 -0.5123  0.4600 -0.4174
11051TIP3    H154568   6.154   4.400   1.214 -1.4582  0.4619 -0.0542
11051TIP3    H254569   6.033   4.333   1.154 -0.3907 -0.7834 -0.8532
11052TIP3   OH254570   1.166   4.962  15.092 -0.2056  0.1118  0.2967
11052TIP3    H154571   1.253   4.969  15.130 -0.2890 -0.6610  0.6550
11052TIP3    H254572   1.113   5.026  15.140  0.6148  2.0347 -1.3128
11053TIP3   OH254573   5.095   2.524  16.515  0.5450  0.0510  0.3865
11053TIP3    H154574   5.023   2.587  16.507  0.3088  0.0930  2.6598
11053TIP3    H254575   5.106   2.489  16.427 -2.1942  0.1089 -0.0108
11054TIP3   OH254576   5.303   5.666   4.299 -0.2947 -0.1651 -0.7749
11054TIP3    H154577   5.385   5.628   4.332 -0.6328 -0.9823 -0.8584
11054TIP3    H254578   5.327   5.706   4.216  0.0717 -0.1882 -0.6817
11055TIP3   OH254579   2.857   2.914  12.381 -0.0036 -0.4018  0.4640
11055TIP3    H154580   2.881   2.985  12.440  1.6765  0.3885 -1.1253
11055TIP3    H254581   2.873   2.834  12.432  2.2821  0.2426  0.8029
11056TIP3   OH254582   5.793   1.100   0.640 -0.1912  0.0748  0.1272
11056TIP3    H154583   5.791   1.004   0.644 -0.7715  0.1260  1.0448
11056TIP3    H254584   5.719   1.128   0.692  1.3542  1.0884  1.8337
11057TIP3   OH254585   2.397   0.584  14.176  0.1190 -0.2034  0.8346
11057TIP3    H154586   2.402   0.679  14.191 -0.9698  0.1233 -0.6996
11057TIP3    H254587   2.440   0.572  14.091 -2.5818 -0.6279 -0.5321
11058TIP3   OH254588   4.813   2.349  13.808 -0.3396  0.1123 -0.3768
11058TIP3    H154589   4.851   2.419  13.862 -1.9855  1.5251 -0.9681
11058TIP3    H254590   4.849   2.364  13.721 -2.5438  1.7539 -1.0465
11059TIP3   OH254591   3.432   2.066  16.436 -0.5443  0.3568 -0.2159
11059TIP3    H154592   3.419   2.017  16.518 -0.3343 -0.0798 -0.4409
11059TIP3    H254593   3.392   2.151  16.453  2.0626  1.3230  1.3910
11060TIP3   OH254594   2.916   4.034   1.866 -0.2845  0.2182 -0.5357
11060TIP3    H154595   2.856   4.078   1.806  0.8066  0.0879 -1.7416
11060TIP3    H254596   2.904   3.941   1.850 -1.2712  0.1158  0.7219
11061TIP3   OH254597   5.072   6.576   5.361  0.3531 -0.1185 -0.2373
11061TIP3    H154598   5.128   6.649   5.389 -1.2046  1.0659 -0.1563
11061TIP3    H254599   5.092   6.506   5.422  2.4550 -0.0402 -0.7993
11062TIP3   OH254600   3.770   2.470  13.517  0.0388  0.3971 -0.0103
11062TIP3    H154601   3.819   2.388  13.510  0.1316  0.5399 -1.0769
11062TIP3    H254602   3.678   2.443  13.509 -0.0459  0.1680  1.6556
11063TIP3   OH254603   2.830   3.175   4.668  0.3511 -0.1654  0.1922
11063TIP3    H154604   2.801   3.100   4.616 -0.2696  0.1226  0.1122
11063TIP3    H254605   2.922   3.188   4.643  0.1232 -0.1678 -0.6673
11064TIP3   OH254606   4.060   3.780  13.397  1.0972 -0.3048  0.1303
11064TIP3    H154607   3.994   3.830  13.445 -0.1711 -0.7582 -1.1184
11064TIP3    H254608   4.135   3.839  13.392  0.1725  0.8886  0.0520
11065TIP3   OH254609   2.454   1.937   2.792 -0.0600  0.2246 -0.1701
11065TIP3    H154610   2.526   1.921   2.731 -0.8187 -0.4692 -0.8918
11065TIP3    H254611   2.476   2.021   2.833 -0.0298  1.1779 -2.0990
11066TIP3   OH254612   2.136   4.654   1.612 -0.5339 -0.1366 -0.3671
11066TIP3    H154613   2.145   4.563   1.583  1.0503  0.2363 -1.1188
11066TIP3    H254614   2.063   4.689   1.560 -0.9203 -0.8785 -0.3245
11067TIP3   OH254615   0.488   3.467  13.779 -0.0020 -0.5208 -0.3345
11067TIP3    H154616   0.398   3.496  13.765  0.3886  0.6544 -0.4050
11067TIP3    H254617   0.531   3.479  13.695  0.6961  0.6389  0.1772
11068TIP3   OH254618   1.740   5.217   2.129  0.0877  0.9058 -0.3300
11068TIP3    H154619   1.658   5.169   2.119  0.9539 -1.0385  1.7785
11068TIP3    H254620   1.795   5.185   2.058  0.1534 -0.1397  0.1953
11069TIP3   OH254621   1.996   1.353  16.175  0.5850  0.1226 -0.0440
11069TIP3    H154622   2.051   1.338  16.098  0.3644 -2.8320  0.3055
11069TIP3    H254623   1.908   1.365  16.138  0.5372 -0.9326 -0.2981
11070TIP3   OH254624   2.263   3.424   5.176 -0.0921  0.0269 -0.1542
11070TIP3    H154625   2.300   3.408   5.263  1.8708 -0.9453 -1.1294
11070TIP3    H254626   2.256   3.337   5.136  2.9672  0.7839 -2.5072
11071TIP3   OH254627   4.183   2.234  13.418 -0.0953  0.4649  0.4765
11071TIP3    H154628   4.222   2.299  13.360 -0.3381  1.8224  1.8117
11071TIP3    H254629   4.227   2.246  13.502 -2.1905  0.9032  1.5489
11072TIP3   OH254630   1.191   5.543  12.021  0.5918 -0.3697  0.0771
11072TIP3    H154631   1.119   5.582  11.972  0.2748  0.9724  1.5879
11072TIP3    H254632   1.251   5.509  11.953 -0.5767  0.0828 -1.1978
11073TIP3   OH254633   0.049   5.582   5.570  0.0298 -0.1028  0.1099
11073TIP3    H154634   0.104   5.504   5.562  0.5947  0.3333 -0.2522
11073TIP3    H254635   0.101   5.652   5.530 -0.4073  0.4918  0.5869
11074TIP3   OH254636   1.332   6.653   1.799 -0.3138  0.1764 -0.1214
11074TIP3    H154637   1.351   6.560   1.786  1.4707  0.2483  1.6400
11074TIP3    H254638   1.253   6.654   1.852  0.6045 -0.3957  1.2858
11075TIP3   OH254639   3.292   4.225  13.101  0.3528  0.8872  0.4442
11075TIP3    H154640   3.302   4.190  13.190  1.1166  1.8389  0.7371
11075TIP3    H254641   3.368   4.189  13.054 -0.1903  0.1735  0.0992
11076TIP3   OH254642   1.031   5.458  16.925  0.0726 -0.2513  0.0599
11076TIP3    H154643   0.951   5.418  16.891  0.3158  0.0567 -0.8815
11076TIP3    H254644   1.079   5.386  16.965  0.3011 -0.8315 -1.2387
11077TIP3   OH254645   4.810   2.747   2.595 -0.0885  0.4642  0.0718
11077TIP3    H154646   4.806   2.688   2.670 -0.1423 -0.6374 -0.7993
11077TIP3    H254647   4.890   2.799   2.609  0.0250  0.1005  0.7670
11078TIP3   OH254648   4.427   2.943  16.719 -0.2358  0.0535 -0.2954
11078TIP3    H154649   4.458   2.875  16.660  0.5770 -0.7185  1.0096
11078TIP3    H254650   4.502   3.001  16.730 -0.5200  0.4349 -0.3412
11079TIP3   OH254651   2.830   3.043   1.676  0.1066 -0.0557  0.1072
11079TIP3    H154652   2.736   3.045   1.663  0.2791 -0.4085 -1.4085
11079TIP3    H254653   2.866   3.042   1.587  1.5641  1.4105  0.6551
11080TIP3   OH254654   0.903   2.071  12.214 -0.2071  0.2177  0.1574
11080TIP3    H154655   0.886   2.135  12.283  1.2192 -1.6450  2.3148
11080TIP3    H254656   0.979   2.106  12.168 -0.4500  0.9039  0.2681
11081TIP3   OH254657   2.153   0.134   2.703  0.1041  1.1533  0.1589
11081TIP3    H154658   2.066   0.171   2.687 -0.3266  0.5563  1.0910
11081TIP3    H254659   2.142   0.079   2.780  1.2128  0.7129  0.0133
11082TIP3   OH254660   5.327   0.325  14.910  0.3122  0.4827  0.2733
11082TIP3    H154661   5.271   0.266  14.860  1.4922 -0.7083  0.3246
11082TIP3    H254662   5.416   0.300  14.885  0.8894  0.4498  2.2824
11083TIP3   OH254663   5.925   6.479   5.666  0.1469 -0.8368 -0.3693
11083TIP3    H154664   5.846   6.475   5.720  0.1485 -0.6096 -0.3464
11083TIP3    H254665   5.902   6.539   5.595  0.0663 -1.3193 -0.7517
11084TIP3   OH254666   0.943   1.639   6.449  0.0567 -0.1795  0.4090
11084TIP3    H154667   0.880   1.569   6.434 -0.1658  0.2530 -0.7220
11084TIP3    H254668   0.942   1.691   6.368  1.4746  0.1394  0.5777
11085TIP3   OH254669   1.304   6.281   5.242  0.1694 -0.4458  1.1617
11085TIP3    H154670   1.320   6.188   5.225 -0.2671 -0.8536  2.8833
11085TIP3    H254671   1.387   6.313   5.277  0.2953 -0.2017  0.6419
11086TIP3   OH254672   3.155   3.290  13.407 -0.1527 -0.2005 -0.7487
11086TIP3    H154673   3.114   3.205  13.391 -0.2078  0.1198 -2.4319
11086TIP3    H254674   3.086   3.342  13.448 -0.5334 -0.5735 -0.9062
11087TIP3   OH254675   5.585   0.150  16.584  0.5302 -0.2644  0.6688
11087TIP3    H154676   5.491   0.140  16.570  1.0745 -1.4840 -2.6403
11087TIP3    H254677   5.601   0.244  16.570 -0.2476  0.0336  1.7418
11088TIP3   OH254678   5.568   3.706   4.036 -0.0918  0.1233 -0.0557
11088TIP3    H154679   5.525   3.736   3.956 -0.0046  0.0509 -0.1312
11088TIP3    H254680   5.605   3.785   4.076 -0.4237  0.2043  0.0874
11089TIP3   OH254681   3.813   5.470  16.393 -0.3253  0.6185 -0.3591
11089TIP3    H154682   3.868   5.465  16.315  1.5168  3.0287  0.7153
11089TIP3    H254683   3.834   5.555  16.432 -1.3138 -0.4433  2.6666
11090TIP3   OH254684   3.122   5.000  13.187 -0.3372  0.4482 -0.0109
11090TIP3    H154685   3.143   4.995  13.280  0.0182 -0.5961 -0.1308
11090TIP3    H254686   3.176   4.931  13.147 -2.0087 -0.4989 -0.7046
11091TIP3   OH254687   0.065   6.353   3.882 -0.3204 -0.3103 -0.3605
11091TIP3    H154688   0.095   6.384   3.796 -1.9136  2.1384 -0.1009
11091TIP3    H254689   0.130   6.289   3.909  1.3351  0.4331 -2.4631
11092TIP3   OH254690   4.832   6.407   3.165  0.2500  0.4919  0.0363
11092TIP3    H154691   4.908   6.441   3.213  0.6396  0.3181 -0.4530
11092TIP3    H254692   4.858   6.318   3.140 -0.4304  0.1348  0.5663
11093TIP3   OH254693   4.869   4.202   5.634  0.7947  0.0032  0.7144
11093TIP3    H154694   4.852   4.293   5.657 -1.4855 -0.4175  0.7986
11093TIP3    H254695   4.918   4.166   5.708 -0.7690  0.4154  1.9606
11094TIP3   OH254696   3.817   4.165  14.701  0.0227  0.5360  0.1765
11094TIP3    H154697   3.898   4.215  14.709 -0.3660  1.0250  1.2271
11094TIP3    H254698   3.774   4.176  14.786  0.2713 -2.1958  0.7154
11095TIP3   OH254699   2.190   1.410   1.633 -0.1419 -0.4891  0.3780
11095TIP3    H154700   2.227   1.480   1.687 -0.8203 -0.5228  0.9031
11095TIP3    H254701   2.245   1.407   1.555 -0.4676  1.0262  0.0832
11096TIP3   OH254702   3.823   6.723  17.156 -0.2713  0.3659  0.0685
11096TIP3    H154703   3.742   6.756  17.117 -1.7733 -2.7954  0.3263
11096TIP3    H254704   3.805   6.719  17.250 -0.5732 -2.1426 -0.0470
11097TIP3   OH254705   2.878   6.698   5.959  0.3485  0.7382 -0.7970
11097TIP3    H154706   2.950   6.736   6.008 -1.4445  2.3459  0.6504
11097TIP3    H254707   2.806   6.692   6.022  0.0398 -3.5235 -1.4114
11098TIP3   OH254708   6.164   4.915  11.089 -0.2593  0.2186 -0.1707
11098TIP3    H154709   6.100   4.984  11.071  0.3289  0.7386 -0.2911
11098TIP3    H254710   6.198   4.890  11.003 -0.4635 -0.2205 -0.1289
11099TIP3   OH254711   1.176   6.549  13.537 -0.9611 -0.7293  0.2417
11099TIP3    H154712   1.098   6.497  13.518 -1.5473 -0.8501  2.7400
11099TIP3    H254713   1.162   6.632  13.491 -1.2886 -1.7432 -1.5172
11100TIP3   OH254714   5.572   2.843   4.591 -0.2230  0.2813 -0.9346
11100TIP3    H154715   5.522   2.823   4.670  1.2745  0.4832  0.1038
11100TIP3    H254716   5.507   2.857   4.523 -1.5169 -0.6036  0.1110
11101TIP3   OH254717   4.440   0.020   0.671  0.0206 -0.3852 -0.2652
11101TIP3    H154718   4.473   0.102   0.707 -2.4276  0.2332  0.5915
11101TIP3    H254719   4.495   0.005   0.593  0.6357  1.9151 -0.3091
11102TIP3   OH254720   4.157   1.037  12.648 -0.2040 -0.0285 -0.4016
11102TIP3    H154721   4.100   0.987  12.589  0.0199  0.0446 -0.6782
11102TIP3    H254722   4.177   1.117  12.600 -0.8365  0.4880  0.1751
11103TIP3   OH254723   4.553   6.279  15.378 -0.0998 -0.2591  0.1455
11103TIP3    H154724   4.613   6.344  15.416  1.1139 -0.6775 -1.0075
11103TIP3    H254725   4.609   6.203  15.361 -0.5719  0.0070 -2.6811
11104TIP3   OH254726   4.251   1.915   1.115 -0.0010 -0.1841  0.5090
11104TIP3    H154727   4.342   1.918   1.145  0.4124 -0.8714 -0.6649
11104TIP3    H254728   4.201   1.953   1.188  1.2851  0.8144  0.8934
11105TIP3   OH254729   4.750   2.617  11.883  0.5319 -0.3213  0.0601
11105TIP3    H154730   4.790   2.530  11.878  0.3361 -0.4435  0.5864
11105TIP3    H254731   4.786   2.655  11.963  1.4230  0.4915 -0.7128
11106TIP3   OH254732   5.383   6.131  12.986 -0.1253  0.4439 -0.5304
11106TIP3    H154733   5.290   6.110  12.975  0.3467 -1.1659 -1.6738
11106TIP3    H254734   5.404   6.187  12.912 -0.2094  0.9368 -0.1860
11107TIP3   OH254735   2.831   4.668  16.376 -0.3600  1.0173 -0.5045
11107TIP3    H154736   2.892   4.704  16.311 -0.0856  0.2777 -0.6587
11107TIP3    H254737   2.887   4.646  16.451 -0.7506  2.4154  0.2280
11108TIP3   OH254738   5.897   5.353   4.012  0.6045  0.0191  0.0676
11108TIP3    H154739   5.932   5.441   4.018  1.4936 -0.2041 -1.3814
11108TIP3    H254740   5.839   5.355   3.935  0.4775 -0.6086  0.1392
11109TIP3   OH254741   3.048   2.021   5.535 -0.1958  0.4131  0.4242
11109TIP3    H154742   2.984   1.974   5.482  0.4999  0.0799 -0.1250
11109TIP3    H254743   3.052   1.971   5.617 -2.7855  2.0882  1.6436
11110TIP3   OH254744   5.889   1.135  10.540 -0.0725  0.1014 -0.4761
11110TIP3    H154745   5.870   1.220  10.579 -2.8299 -0.5091 -0.4282
11110TIP3    H254746   5.945   1.156  10.464 -3.2167  2.2981 -2.3115
11111TIP3   OH254747   0.139   1.985  14.265  0.1250 -0.6006  0.0367
11111TIP3    H154748   0.102   2.072  14.249  0.0132 -0.1683  2.4142
11111TIP3    H254749   0.073   1.924  14.231 -1.2413  0.2104  1.1836
11112TIP3   OH254750   5.771   0.993  12.179 -0.1087  0.1865  0.4163
11112TIP3    H154751   5.770   1.087  12.195  0.3303  0.4147 -0.8238
11112TIP3    H254752   5.760   0.954  12.266 -0.6874  1.3762  0.8951
11113TIP3   OH254753   4.616   5.955   3.167  0.1482 -0.1379  0.5406
11113TIP3    H154754   4.541   5.950   3.107 -0.4504 -2.2481  1.4132
11113TIP3    H254755   4.671   5.881   3.143  0.4267 -0.3837  1.8900
11114TIP3   OH254756   4.527   0.082   0.141 -0.3468 -0.4153 -0.3067
11114TIP3    H154757   4.480   0.004   0.112  1.8533 -1.1019 -2.1314
11114TIP3    H254758   4.613   0.050   0.169 -0.1169  1.0920  0.7832
11115TIP3   OH254759   5.227   4.814   1.993 -0.2965 -1.2060 -0.3288
11115TIP3    H154760   5.195   4.895   2.033  0.5414 -1.4733  0.9230
11115TIP3    H254761   5.163   4.748   2.018 -0.8102 -1.0050 -1.0834
11116TIP3   OH254762   6.705   2.526   2.241  0.4009 -0.7915  0.6531
11116TIP3    H154763   6.715   2.601   2.300  0.1816 -2.3740  2.7800
11116TIP3    H254764   6.776   2.535   2.178  0.5990  0.9888  1.1109
11117TIP3   OH254765   4.044   0.655   2.495  0.7195 -0.1794  0.5489
11117TIP3    H154766   4.097   0.733   2.513 -2.1791  1.7041  1.1560
11117TIP3    H254767   4.052   0.603   2.576  0.1960  0.9442  1.3351
11118TIP3   OH254768   1.520   1.346  12.538 -0.3515 -0.1345 -0.2004
11118TIP3    H154769   1.550   1.436  12.542 -0.4402 -0.0989 -0.3462
11118TIP3    H254770   1.512   1.326  12.445  2.0412 -1.0933 -0.2216
11119TIP3   OH254771   2.515   4.634   5.782  0.0770 -0.0616  0.3615
11119TIP3    H154772   2.548   4.676   5.861 -0.7282  0.1358  0.5984
11119TIP3    H254773   2.537   4.542   5.793 -1.0842 -0.2306  1.3737
11120TIP3   OH254774   6.707   2.258  12.173  0.0041  0.9002 -0.7836
11120TIP3    H154775   6.717   2.293  12.261 -0.9154  0.5578 -0.5399
11120TIP3    H254776   6.775   2.302  12.122 -0.2499  1.9990 -0.1823
11121TIP3   OH254777   3.191   3.260   2.145  0.8894  0.4754  0.2240
11121TIP3    H154778   3.282   3.235   2.128  1.7323  2.3680  1.7819
11121TIP3    H254779   3.182   3.253   2.240 -0.3565  1.1068  0.1616
11122TIP3   OH254780   5.598   1.859   2.763 -0.2788  0.4217  0.5305
11122TIP3    H154781   5.518   1.909   2.750  0.2311  0.7679 -1.4138
11122TIP3    H254782   5.657   1.919   2.809 -0.6041  0.6906  0.5974
11123TIP3   OH254783   1.872   5.584  17.193 -0.3316 -0.4583  0.3078
11123TIP3    H154784   1.850   5.564  17.102  0.2749  1.2763 -0.2247
11123TIP3    H254785   1.921   5.507  17.223  1.1215 -0.2258 -1.4142
11124TIP3   OH254786   4.917   3.671  16.177  0.3919 -0.0569 -0.2080
11124TIP3    H154787   4.859   3.597  16.194  0.9935 -0.7195 -0.9668
11124TIP3    H254788   4.904   3.690  16.084 -0.0681  1.0601  0.0815
11125TIP3   OH254789   1.665   1.572   7.126  0.2913  0.1668  0.1278
11125TIP3    H154790   1.702   1.581   7.038  0.2910  0.3811  0.1494
11125TIP3    H254791   1.570   1.578   7.113  0.2054 -1.4234 -0.0568
11126TIP3   OH254792   4.039   2.246  10.571 -0.3150 -0.1970  0.2613
11126TIP3    H154793   4.061   2.207  10.487 -0.1313 -0.3849  0.3953
11126TIP3    H254794   4.110   2.307  10.590 -0.1753 -0.4122  0.4434
11127TIP3   OH254795   3.475   6.027  15.895 -0.1427  0.8676  0.0319
11127TIP3    H154796   3.444   6.072  15.973  0.2426  2.4116 -0.6655
11127TIP3    H254797   3.396   6.001  15.849 -0.3676 -0.7711  1.3260
11128TIP3   OH254798   3.523   1.158   3.466 -1.0096  0.4891 -0.5106
11128TIP3    H154799   3.429   1.169   3.451 -1.0708  1.2207  0.4192
11128TIP3    H254800   3.528   1.094   3.537 -0.7850 -0.2036 -1.1467
11129TIP3   OH254801   5.136   0.865   5.740  0.3233  0.1275  0.0339
11129TIP3    H154802   5.100   0.914   5.665  1.3261  0.1953 -0.4155
11129TIP3    H254803   5.187   0.930   5.788 -0.1196  0.0233  0.6409
11130TIP3   OH254804   6.488   3.435  11.010  0.1800  0.3287  0.4568
11130TIP3    H154805   6.517   3.347  11.036  0.2860 -0.1613 -1.2418
11130TIP3    H254806   6.470   3.480  11.092  1.2342 -0.9169  1.3868
11131TIP3   OH254807   3.445   4.314  15.916  0.1026  0.0869 -0.3959
11131TIP3    H154808   3.413   4.402  15.936 -0.7034 -0.3465  0.2736
11131TIP3    H254809   3.521   4.304  15.973 -0.2949  0.0471  0.1330
11132TIP3   OH254810   0.056   1.607  15.673 -0.0785 -0.2004 -0.3258
11132TIP3    H154811   0.012   1.591  15.756 -0.8303 -0.6802 -0.8174
11132TIP3    H254812   0.129   1.545  15.672  0.8765  0.8699  0.6672
11133TIP3   OH254813   1.840   5.123  14.464  0.7548  0.1281 -0.0731
11133TIP3    H154814   1.916   5.173  14.494 -0.3842  1.2028  1.0767
11133TIP3    H254815   1.777   5.189  14.436 -0.0944 -0.7134 -0.1688
11134TIP3   OH254816   3.749   3.246   4.784 -0.0064  0.6049  0.0266
11134TIP3    H154817   3.733   3.191   4.861  3.0718  0.7970  0.8918
11134TIP3    H254818   3.741   3.335   4.816 -0.9290  0.6860 -0.4164
11135TIP3   OH254819   3.608   6.197  12.789  0.0823  0.2124 -0.1796
11135TIP3    H154820   3.607   6.293  12.780 -0.0209  0.3012  0.7087
11135TIP3    H254821   3.677   6.168  12.729  1.6945  1.0411  1.2086
11136TIP3   OH254822   4.333   2.656  13.875  0.0318 -0.1658 -0.6052
11136TIP3    H154823   4.381   2.720  13.927  0.0399 -1.1846  0.6835
11136TIP3    H254824   4.255   2.637  13.926 -0.5421 -0.3241 -1.5284
11137TIP3   OH254825   4.843   6.483   0.174 -0.1385  0.4061  0.0454
11137TIP3    H154826   4.936   6.496   0.192 -0.3544  2.8063 -0.3772
11137TIP3    H254827   4.801   6.483   0.260  0.1219  0.6109  0.1729
11138TIP3   OH254828   1.589   6.244  15.681  0.1492 -0.0849 -0.8765
11138TIP3    H154829   1.586   6.266  15.587 -2.2434 -2.0432 -1.3050
11138TIP3    H254830   1.635   6.160  15.684  2.0289  0.9314 -0.0376
11139TIP3   OH254831   6.625   4.439  11.525  0.4600 -0.0913 -0.4450
11139TIP3    H154832   6.709   4.404  11.496  0.4808  1.2135 -2.0370
11139TIP3    H254833   6.601   4.384  11.599  0.4462 -3.5270 -2.8643
11140TIP3   OH254834   6.430   4.520   0.420  0.5629  0.1616  0.5247
11140TIP3    H154835   6.478   4.463   0.479  0.3515  0.4228  0.9523
11140TIP3    H254836   6.340   4.519   0.454  0.2356 -0.4348 -0.3444
11141TIP3   OH254837   1.782   6.362  17.135 -0.3796  0.7677 -0.2349
11141TIP3    H154838   1.798   6.269  17.152 -0.2725  0.5559 -1.4418
11141TIP3    H254839   1.777   6.402  17.222  2.0648  0.0577  0.2581
11142TIP3   OH254840   0.147   0.467   1.926 -0.2969 -0.1307  0.0964
11142TIP3    H154841   0.186   0.547   1.962  0.1062 -0.6764  0.9048
11142TIP3    H254842   0.118   0.492   1.839 -0.1420  0.8920  0.3229
11143TIP3   OH254843   1.216   3.717   2.648 -0.1752  0.2150 -0.2034
11143TIP3    H154844   1.197   3.723   2.555 -3.5673  1.5211  0.4925
11143TIP3    H254845   1.150   3.656   2.682  2.3676 -1.9517  1.0426
11144TIP3   OH254846   2.161   4.325   6.217 -0.1444  0.0930  0.1256
11144TIP3    H154847   2.201   4.253   6.168 -1.6196 -0.4677 -0.3088
11144TIP3    H254848   2.179   4.403   6.164 -0.9579 -0.3863 -0.8846
11145TIP3   OH254849   5.619   1.903   0.469  0.0426 -0.2043 -0.4370
11145TIP3    H154850   5.562   1.969   0.508 -0.5714 -0.6782 -0.5237
11145TIP3    H254851   5.613   1.918   0.375 -0.8176 -0.9738 -0.5030
11146TIP3   OH254852   3.075   4.749  15.671 -0.0370  0.1060  0.0089
11146TIP3    H154853   3.108   4.839  15.671 -0.3864  0.2328  0.9801
11146TIP3    H254854   3.151   4.696  15.649  0.2047  0.6267 -0.4192
11147TIP3   OH254855   5.773   3.046   4.613 -0.3736  0.1758 -0.1082
11147TIP3    H154856   5.699   2.986   4.609  0.5047 -0.8352 -1.5760
11147TIP3    H254857   5.817   3.035   4.529  2.2384 -0.2732  1.2767
11148TIP3   OH254858   4.823   3.432   5.306  0.0744 -0.0245 -0.1054
11148TIP3    H154859   4.886   3.455   5.237  0.6536  1.2537  0.8369
11148TIP3    H254860   4.828   3.505   5.368 -2.1144 -0.0679  0.1428
11149TIP3   OH254861   6.257   6.087  12.742 -0.0047 -0.4284 -0.1813
11149TIP3    H154862   6.326   6.021  12.758 -0.5828 -0.8011  0.8163
11149TIP3    H254863   6.183   6.056  12.793 -1.9270 -1.5852 -3.4895
11150TIP3   OH254864   2.803   2.789  10.559  0.0768  0.1364 -0.2404
11150TIP3    H154865   2.749   2.716  10.528  1.0718 -0.4260 -0.6667
11150TIP3    H254866   2.740   2.857  10.582 -0.7895 -0.2895 -1.3108
11151TIP3   OH254867   6.146   3.279  13.721  0.8425  0.1960 -0.7327
11151TIP3    H154868   6.194   3.354  13.756  0.3402  0.2835 -0.2280
11151TIP3    H254869   6.058   3.287  13.758  0.4623 -0.0181 -1.5826
11152TIP3   OH254870   5.585   5.869  13.494  0.3652 -0.9418  0.5849
11152TIP3    H154871   5.610   5.788  13.538  3.3292 -0.7954 -0.7136
11152TIP3    H254872   5.647   5.877  13.421 -2.0710  0.7144 -1.3951
11153TIP3   OH254873   1.662   0.415   1.528 -0.1713 -0.0453  0.0952
11153TIP3    H154874   1.689   0.335   1.482  1.6647 -0.0879  1.1718
11153TIP3    H254875   1.658   0.482   1.460 -0.2380 -0.7174 -0.5690
11154TIP3   OH254876   2.249   5.235  10.651  0.1694  0.3294 -0.1922
11154TIP3    H154877   2.259   5.296  10.577 -0.8332  0.1370 -0.4920
11154TIP3    H254878   2.202   5.160  10.614  0.7786 -0.3284  0.3448
11155TIP3   OH254879   2.158   1.410   0.516  0.1295 -0.2588  0.1013
11155TIP3    H154880   2.222   1.348   0.480  0.1624 -0.3063  0.2436
11155TIP3    H254881   2.210   1.472   0.567  0.2725  0.7635 -1.2443
11156TIP3   OH254882   4.670   2.951   5.429 -0.1157 -0.0851 -0.4895
11156TIP3    H154883   4.603   2.918   5.369 -1.3616 -0.3884  1.0354
11156TIP3    H254884   4.621   2.988   5.502  1.3800  0.3492  0.3199
11157TIP3   OH254885   4.546   2.903  15.271  0.1665  0.1605 -0.3323
11157TIP3    H154886   4.539   2.963  15.197 -0.9272 -1.0903 -1.2752
11157TIP3    H254887   4.621   2.848  15.250 -1.9091 -2.1457 -2.0255
11158TIP3   OH254888   1.933   1.522   2.575 -0.1068 -0.1145  0.6439
11158TIP3    H154889   1.904   1.440   2.614 -1.0793 -1.3285 -2.4836
11158TIP3    H254890   2.029   1.513   2.569 -0.2338 -1.1655  0.0511
11159TIP3   OH254891   3.701   1.058   5.742 -0.1246  0.7133  0.2106
11159TIP3    H154892   3.756   1.052   5.664  0.0982 -1.0346  0.4839
11159TIP3    H254893   3.622   1.008   5.719 -0.0030  0.0809  1.1439
11160TIP3   OH254894   4.510   0.225   6.197  0.0708 -0.5886 -0.2471
11160TIP3    H154895   4.587   0.280   6.213  0.4193 -0.0597 -3.4059
11160TIP3    H254896   4.534   0.140   6.234  1.4803  0.0506  0.3599
11161TIP3   OH254897   5.762   2.386  14.732 -0.4513  0.0236 -0.1386
11161TIP3    H154898   5.698   2.321  14.759 -1.1415  1.5638  2.0136
11161TIP3    H254899   5.834   2.376  14.794 -1.4005  2.5652  1.4394
11162TIP3   OH254900   4.153   5.830  13.532  0.4577  0.5095  0.4207
11162TIP3    H154901   4.073   5.852  13.578  0.6499  0.7434  0.6401
11162TIP3    H254902   4.151   5.734  13.524  0.7173  0.4185  1.4403
11163TIP3   OH254903   0.855   5.692   6.780  0.3669  0.1380 -0.4597
11163TIP3    H154904   0.926   5.671   6.842  2.2321 -0.0488 -2.5831
11163TIP3    H254905   0.811   5.609   6.765  0.8637 -0.1168 -0.5308
11164TIP3   OH254906   0.606   2.623  11.619 -0.2428  0.0232  0.3375
11164TIP3    H154907   0.626   2.669  11.700  0.8496  0.5570 -0.2158
11164TIP3    H254908   0.644   2.535  11.631 -0.7548 -0.1495  0.6968
11165TIP3   OH254909   1.818   6.249   1.203 -0.2811  0.2083  0.1687
11165TIP3    H154910   1.765   6.225   1.126  1.2006 -2.3669 -0.1024
11165TIP3    H254911   1.874   6.320   1.172 -1.8607  1.3377 -0.2063
11166TIP3   OH254912   6.119   1.671  12.811  0.6048 -0.8638  0.1288
11166TIP3    H154913   6.122   1.638  12.901 -0.5283  1.8504  1.2209
11166TIP3    H254914   6.028   1.693  12.796  1.2460  1.3997 -0.6503
11167TIP3   OH254915   0.462   1.582   2.679 -0.7380 -0.7092  0.1173
11167TIP3    H154916   0.538   1.636   2.703  0.2666 -1.7766 -0.6093
11167TIP3    H254917   0.397   1.601   2.747 -0.5699  1.7167 -0.3280
11168TIP3   OH254918   2.008   5.248   3.483  0.2340 -0.4148 -0.1562
11168TIP3    H154919   2.032   5.192   3.408 -0.0268  0.5273 -0.9500
11168TIP3    H254920   2.092   5.280   3.515  0.1801  1.5646 -1.9140
11169TIP3   OH254921   6.083   1.898  15.540  0.4740 -0.2874  0.0311
11169TIP3    H154922   6.114   1.952  15.467 -0.2524 -0.2769 -0.2768
11169TIP3    H254923   6.110   1.946  15.618  2.6974 -1.1074 -0.2024
11170TIP3   OH254924   2.664   5.629   1.278 -0.5282  0.5846  0.0637
11170TIP3    H154925   2.587   5.686   1.275  0.1683  1.5143 -0.9880
11170TIP3    H254926   2.636   5.553   1.328 -2.3555  0.5823 -0.9132
11171TIP3   OH254927   2.502   1.739   6.710 -0.0393 -0.1671  0.4529
11171TIP3    H154928   2.453   1.706   6.785 -0.4875  1.6689  1.0036
11171TIP3    H254929   2.463   1.825   6.693  1.4172  0.2934 -0.6016
11172TIP3   OH254930   1.291   3.339   1.217 -0.2884 -0.5932  0.1816
11172TIP3    H154931   1.274   3.405   1.150  0.0284 -0.0227  0.6554
11172TIP3    H254932   1.386   3.344   1.233 -0.2238 -1.3150  0.0665
11173TIP3   OH254933   4.352   2.672   2.359  0.1033  0.2345 -0.3479
11173TIP3    H154934   4.315   2.755   2.390 -0.7061  0.3705 -1.6453
11173TIP3    H254935   4.446   2.680   2.379 -0.1967  0.8468  0.8667
11174TIP3   OH254936   0.384   5.199   6.071 -0.5915  0.4182 -0.3133
11174TIP3    H154937   0.312   5.141   6.093  0.9619 -1.5297 -0.2273
11174TIP3    H254938   0.342   5.276   6.031 -2.6951 -0.5890 -0.0948
11175TIP3   OH254939   0.854   3.647   6.600 -0.1677 -0.1913  0.0362
11175TIP3    H154940   0.767   3.635   6.560  0.6462 -1.2638 -1.4684
11175TIP3    H254941   0.900   3.707   6.542  0.0127  0.6152  0.9942
11176TIP3   OH254942   3.065   3.993   5.791 -0.0908  0.7511  0.2780
11176TIP3    H154943   3.085   3.940   5.868 -0.3731 -1.0003 -0.8217
11176TIP3    H254944   3.059   3.930   5.719  1.1761  2.4667 -1.3803
11177TIP3   OH254945   3.810   1.132  14.425 -0.7687 -0.5357  0.6436
11177TIP3    H154946   3.734   1.165  14.377  0.2615  1.0056  0.0591
11177TIP3    H254947   3.885   1.161  14.374  0.2513 -1.2058  1.7543
11178TIP3   OH254948   4.309   2.580  15.525  0.1308 -0.4917  0.4140
11178TIP3    H154949   4.223   2.585  15.485  0.0289 -2.7870  0.2599
11178TIP3    H254950   4.292   2.549  15.615  0.7562 -0.8447  0.4155
11179TIP3   OH254951   1.110   5.676  15.671  0.4507  0.1419  0.5433
11179TIP3    H154952   1.022   5.653  15.700  0.7447 -1.1004  0.4932
11179TIP3    H254953   1.166   5.659  15.747  0.6653  0.7942  0.5349
11180TIP3   OH254954   5.979   1.707  16.445  0.2922  0.6077  0.3829
11180TIP3    H154955   6.039   1.739  16.513  1.5059 -0.4155 -0.1908
11180TIP3    H254956   5.905   1.767  16.449  0.9016  1.3041  1.7773
11181TIP3   OH254957   0.451   2.284   1.034 -0.2077 -0.3251 -0.5508
11181TIP3    H154958   0.505   2.229   0.978 -0.1495 -2.5398  1.5752
11181TIP3    H254959   0.415   2.223   1.099 -2.9209  1.5873 -0.1734
11182TIP3   OH254960   5.302   6.204  17.103  0.1493 -0.1763 -0.6407
11182TIP3    H154961   5.335   6.145  17.035 -3.1477  0.2742 -2.7608
11182TIP3    H254962   5.217   6.167  17.127 -0.1135  1.4223  1.0362
11183TIP3   OH254963   4.202   1.791   3.312 -0.3578 -0.3706  0.6923
11183TIP3    H154964   4.152   1.827   3.239 -1.5850 -2.7752  0.2819
11183TIP3    H254965   4.169   1.838   3.389  0.8606  2.0976 -0.2540
11184TIP3   OH254966   6.626   0.812   4.994 -0.2222 -0.5011 -0.0206
11184TIP3    H154967   6.708   0.783   5.034 -0.9970 -0.2438  1.7801
11184TIP3    H254968   6.571   0.734   4.994  0.3830 -0.9609 -2.2439
11185TIP3   OH254969   1.519   2.061  15.133  0.1177  0.0995  0.0516
11185TIP3    H154970   1.451   2.013  15.086 -1.6649  3.9593 -1.4845
11185TIP3    H254971   1.526   2.145  15.087  4.7776  0.4707  1.1916
11186TIP3   OH254972   0.783   1.034  14.945  0.1700  0.1241  0.0633
11186TIP3    H154973   0.754   1.124  14.931 -0.8525 -0.3148 -0.6897
11186TIP3    H254974   0.732   0.982  14.882 -0.4138 -1.1848  1.5728
11187TIP3   OH254975   4.736   2.444  11.242 -0.3094  0.0059 -0.0444
11187TIP3    H154976   4.786   2.500  11.182  2.2384 -1.8222  0.3020
11187TIP3    H254977   4.718   2.365  11.191 -2.2085  0.3258  0.0996
11188TIP3   OH254978   0.102   2.883   4.368  0.1561 -0.4754  0.9502
11188TIP3    H154979   0.075   2.850   4.454  0.4683 -0.8659  0.8970
11188TIP3    H254980   0.120   2.805   4.317 -1.1680 -0.2834  0.1526
11189TIP3   OH254981   6.519   1.964  13.826 -0.1294 -0.3570 -0.1233
11189TIP3    H154982   6.518   1.983  13.732 -1.1850  0.0015 -0.0495
11189TIP3    H254983   6.436   1.918  13.842  0.0597 -0.4399  0.6260
11190TIP3   OH254984   5.416   1.239  15.022 -0.5525  0.1563 -0.3057
11190TIP3    H154985   5.449   1.158  15.061 -1.1657 -0.2541 -0.6410
11190TIP3    H254986   5.465   1.308  15.067 -0.6188 -0.3578  0.5670
11191TIP3   OH254987   0.135   5.072   2.410  0.3376 -0.1364  0.0190
11191TIP3    H154988   0.065   5.137   2.405 -0.0980 -0.5137  1.1955
11191TIP3    H254989   0.189   5.101   2.483  1.0529 -0.2128 -0.4764
11192TIP3   OH254990   1.972   0.768  13.357 -0.1481 -0.1925 -0.3696
11192TIP3    H154991   1.931   0.851  13.334  0.9147  0.5392  0.3333
11192TIP3    H254992   1.900   0.713  13.387 -1.0084  0.1184 -1.7870
11193TIP3   OH254993   2.086   4.219   0.673  0.0494 -0.0605 -0.0399
11193TIP3    H154994   2.153   4.204   0.605 -0.6571  1.9931 -1.2466
11193TIP3    H254995   2.083   4.137   0.722  0.9679 -1.4197 -2.1706
11194TIP3   OH254996   2.049   5.441   4.388 -0.0620 -0.6414  0.0028
11194TIP3    H154997   1.972   5.440   4.444 -0.0477  2.7061  0.1692
11194TIP3    H254998   2.114   5.387   4.434 -1.1498 -0.6651  1.5237
11195TIP3   OH254999   1.099   4.984  16.244  0.3052  0.2276  0.1532
11195TIP3    H155000   1.031   5.050  16.255 -0.2090 -0.3899  0.7403
11195TIP3    H255001   1.068   4.909  16.295  0.5466 -0.7181 -1.0802
11196TIP3   OH255002   3.686   4.168  15.012 -0.5801 -0.3131  0.2742
11196TIP3    H155003   3.711   4.212  15.093  0.6659  0.1332 -0.3409
11196TIP3    H255004   3.591   4.172  15.011 -0.5543  0.6923  1.1485
11197TIP3   OH255005   2.831   1.345  15.939 -0.8982 -0.4070 -0.6724
11197TIP3    H155006   2.772   1.351  16.014  0.2294 -2.4705  0.4467
11197TIP3    H255007   2.917   1.331  15.978 -0.1949 -0.8455 -2.3344
11198TIP3   OH255008   4.706   6.684   4.907  0.4582 -0.0259 -0.0276
11198TIP3    H155009   4.728   6.737   4.830 -0.7178 -0.8620 -0.9595
11198TIP3    H255010   4.623   6.721   4.937  1.1384  0.5909  1.1287
11199TIP3   OH255011   6.013   3.841   0.944 -0.0904 -0.3469 -0.0015
11199TIP3    H155012   6.078   3.854   1.013 -0.1164 -1.2954  0.2121
11199TIP3    H255013   5.973   3.927   0.932  1.1114  0.2185 -0.0491
11200TIP3   OH255014   1.981   3.556   0.849 -0.3106 -0.1550 -0.1908
11200TIP3    H155015   2.044   3.596   0.910  0.0781 -0.4070 -0.4291
11200TIP3    H255016   1.965   3.624   0.784 -1.4816  0.4816  0.7247
11201TIP3   OH255017   5.078   4.684  13.659 -0.1605  0.6697  0.2868
11201TIP3    H155018   5.128   4.697  13.579  1.9680 -1.9928  1.0650
11201TIP3    H255019   5.015   4.615  13.637  0.2563  0.1180  0.7875
11202TIP3   OH255020   5.776   6.639  14.447  0.3129 -0.2195  0.1462
11202TIP3    H155021   5.854   6.642  14.503  1.2066  4.0355 -1.1345
11202TIP3    H255022   5.702   6.647  14.508  1.1138  0.7608  0.9992
11203TIP3   OH255023   6.286   3.509   4.148 -0.0300  0.1345  0.4203
11203TIP3    H155024   6.218   3.531   4.084 -0.0840  1.0407  0.7805
11203TIP3    H255025   6.296   3.414   4.141 -0.2144  0.1918 -0.7517
11204TIP3   OH255026   4.346   3.886   4.706 -0.1676  0.2836 -0.0607
11204TIP3    H155027   4.289   3.833   4.650 -0.5212 -1.5473  1.9405
11204TIP3    H255028   4.286   3.948   4.748 -0.2304  0.2537 -0.1058
11205TIP3   OH255029   5.518   2.907   5.359 -0.4359  0.6335 -0.4034
11205TIP3    H155030   5.436   2.922   5.312 -0.6927  1.0094  0.1603
11205TIP3    H255031   5.584   2.950   5.305 -1.1157  3.5768  1.0096
11206TIP3   OH255032   2.663   2.764  11.544  0.2185  0.2230  0.1024
11206TIP3    H155033   2.604   2.692  11.568 -0.4451  1.3163  1.9009
11206TIP3    H255034   2.736   2.722  11.500 -0.7420 -1.4236  0.0552
11207TIP3   OH255035   1.384   1.463   1.431 -0.1230 -0.1727  0.1189
11207TIP3    H155036   1.451   1.500   1.488  0.5038 -2.1156  0.6643
11207TIP3    H255037   1.392   1.513   1.349 -0.3850  1.9766  1.3509
11208TIP3   OH255038   6.665   6.649   1.325 -0.0677  1.3004 -0.3011
11208TIP3    H155039   6.652   6.627   1.233  0.1521 -0.8223  0.1601
11208TIP3    H255040   6.709   6.734   1.323  2.2294  0.1205 -2.2287
11209TIP3   OH255041   0.118   4.355  11.503 -0.6010  0.0796  0.0733
11209TIP3    H155042   0.154   4.422  11.561 -2.6365  0.9821  0.3348
11209TIP3    H255043   0.122   4.395  11.416 -0.6944  0.0640  0.0623
11210TIP3   OH255044   1.991   2.824   6.251 -0.4520 -0.2467  0.1880
11210TIP3    H155045   2.010   2.889   6.183  1.7565 -0.7335  0.2836
11210TIP3    H255046   2.055   2.843   6.320  0.0332 -2.3042  0.3368
11211TIP3   OH255047   1.349   1.049   4.638  0.4120 -0.1918 -0.0285
11211TIP3    H155048   1.338   1.105   4.715 -2.0936 -2.4551  1.3488
11211TIP3    H255049   1.403   1.101   4.578  0.4606  2.5568  2.2831
11212TIP3   OH255050   4.446   0.333   0.478  0.1620  0.4098 -0.1118
11212TIP3    H155051   4.427   0.377   0.395 -0.5564  1.0744  0.3972
11212TIP3    H255052   4.442   0.240   0.458 -1.5287  0.5534 -0.4956
11213TIP3   OH255053   0.572   3.574   4.282 -0.6010 -0.2370  0.6583
11213TIP3    H155054   0.559   3.600   4.373  0.4874  0.9837  0.4850
11213TIP3    H255055   0.608   3.486   4.287  1.3055  0.5492  1.5204
11214TIP3   OH255056   2.181   4.865   4.491 -0.1826 -0.8966  0.2542
11214TIP3    H155057   2.222   4.915   4.421 -2.3171 -0.2476 -0.5749
11214TIP3    H255058   2.200   4.915   4.570  0.6900 -0.6635 -0.0906
11215TIP3   OH255059   3.951   1.999   2.359  0.3839 -0.1656  0.1351
11215TIP3    H155060   3.962   2.062   2.287  0.5035  0.4193  0.6578
11215TIP3    H255061   3.927   1.918   2.316 -0.5542  0.4394 -0.5020
11216TIP3   OH255062   5.304   4.205  17.073  0.1212 -0.3906 -0.1276
11216TIP3    H155063   5.262   4.289  17.089  0.8583  0.1732 -1.0949
11216TIP3    H255064   5.289   4.188  16.980  2.0959 -0.1091 -0.5317
11217TIP3   OH255065   2.501   2.619  16.013 -0.0985 -0.0300  0.7382
11217TIP3    H155066   2.538   2.674  15.945 -0.2751 -3.2471 -2.0799
11217TIP3    H255067   2.432   2.673  16.052  0.3793  2.0838 -1.2056
11218TIP3   OH255068   5.070   3.963   3.506  0.6021  0.4190 -0.2525
11218TIP3    H155069   5.136   4.007   3.559  1.0282  0.7311 -1.0300
11218TIP3    H255070   4.987   3.977   3.552  0.7856  1.7260 -0.3194
11219TIP3   OH255071   6.559   5.955  12.136  0.7563  0.5089  1.0995
11219TIP3    H155072   6.594   5.948  12.047  1.3167  3.4547  1.0244
11219TIP3    H255073   6.623   5.911  12.191  1.0938 -0.1511  0.1893
11220TIP3   OH255074   1.244   6.770  16.832 -0.2505 -0.1277  0.4217
11220TIP3    H155075   1.255   6.845  16.891 -1.2744  1.0808 -0.9007
11220TIP3    H255076   1.330   6.728  16.830  0.1816  0.6757  1.6252
11221TIP3   OH255077   2.015   2.598   5.690 -0.2207  0.4029 -0.1985
11221TIP3    H155078   2.106   2.607   5.662 -0.1305 -2.5731 -1.0082
11221TIP3    H255079   2.019   2.599   5.785  1.1658 -3.6077 -0.1524
11222TIP3   OH255080   6.087   4.598  16.561  0.3092 -0.5811  0.2101
11222TIP3    H155081   6.071   4.683  16.603  0.5487  0.9475 -2.6858
11222TIP3    H255082   6.181   4.596  16.545  0.0739 -0.6002 -1.2830
11223TIP3   OH255083   3.529   6.744   2.254  0.1010  0.4092  0.0564
11223TIP3    H155084   3.528   6.652   2.279 -0.4383 -0.0871 -1.6723
11223TIP3    H255085   3.605   6.752   2.197 -0.4331  0.7934 -0.6147
11224TIP3   OH255086   6.631   6.690   3.151  0.0937 -0.0542  0.1806
11224TIP3    H155087   6.609   6.681   3.059  1.0737 -0.8001  0.0070
11224TIP3    H255088   6.727   6.690   3.153  0.0908 -1.2137  1.2890
11225TIP3   OH255089   5.850   3.204  17.126 -0.6234 -0.6894 -0.4333
11225TIP3    H155090   5.861   3.299  17.137  1.5996 -0.6182 -2.5873
11225TIP3    H255091   5.787   3.179  17.192 -1.6423  2.4053 -0.1413
11226TIP3   OH255092   2.677   0.418   5.197  0.3008 -0.1997 -0.2362
11226TIP3    H155093   2.603   0.470   5.228  2.1487  0.6933  2.8321
11226TIP3    H255094   2.659   0.329   5.227 -0.4506 -0.3871 -1.2088
11227TIP3   OH255095   5.592   1.933  17.129  0.0825 -0.8448 -0.2448
11227TIP3    H155096   5.608   1.856  17.074  0.0205  0.2559 -1.8680
11227TIP3    H255097   5.515   1.975  17.089  1.4404  1.2393 -0.7515
11228TIP3   OH255098   5.617   0.402  11.966 -0.2816 -0.0739  0.2562
11228TIP3    H155099   5.590   0.447  11.885  2.2967 -1.4208 -1.4138
11228TIP3    H255100   5.703   0.439  11.986  0.4390 -1.9506  0.6877
11229TIP3   OH255101   3.140   6.622   4.197  0.1310 -0.6004 -0.1360
11229TIP3    H155102   3.194   6.637   4.275  0.1998  0.0957 -0.3163
11229TIP3    H255103   3.063   6.575   4.231  0.8288 -1.5878  0.1192
11230TIP3   OH255104   5.747   1.362  14.389  0.3510  0.3477  0.0057
11230TIP3    H155105   5.676   1.426  14.400  0.6490  0.9326 -1.3749
11230TIP3    H255106   5.822   1.415  14.363  1.0339 -0.3864  0.4674
11231TIP3   OH255107   4.938   3.763  11.266  0.0544 -0.5259  0.0238
11231TIP3    H155108   5.032   3.778  11.270  0.3457 -1.5268 -2.0251
11231TIP3    H255109   4.930   3.668  11.252 -1.3274 -0.7136  1.8903
11232TIP3   OH255110   1.470   4.886   5.362  0.8615 -0.4400 -0.2900
11232TIP3    H155111   1.495   4.794   5.349  2.0648  0.0849 -1.9115
11232TIP3    H255112   1.383   4.882   5.400  0.3038 -2.2634 -1.6596
11233TIP3   OH255113   1.230   3.158   1.849 -0.1770  0.2675  0.1881
11233TIP3    H155114   1.149   3.195   1.814 -0.7420 -0.6284  0.5178
11233TIP3    H255115   1.280   3.131   1.772 -0.5366  0.1134  0.0076
11234TIP3   OH255116   2.705   4.464  16.026 -0.2355  0.8242 -0.5232
11234TIP3    H155117   2.752   4.541  15.992 -0.0465 -0.0066 -2.1853
11234TIP3    H255118   2.743   4.449  16.112  0.5972  1.8582 -0.7005
11235TIP3   OH255119   4.230   5.800  15.308  0.0854 -0.2755  0.1027
11235TIP3    H155120   4.219   5.706  15.321  1.1646 -0.2024  1.7138
11235TIP3    H255121   4.141   5.836  15.311 -0.2467 -1.1318  0.4676
11236TIP3   OH255122   5.715   3.203  12.379  0.2316  0.3640 -0.3227
11236TIP3    H155123   5.782   3.175  12.441 -2.8407 -4.3100  1.1059
11236TIP3    H255124   5.662   3.267  12.427  0.8231  0.5349  0.0996
11237TIP3   OH255125   3.579   5.215   5.364  0.0949  0.3438  0.2450
11237TIP3    H155126   3.536   5.213   5.450  1.2413 -0.2968  0.8085
11237TIP3    H255127   3.608   5.125   5.349 -1.1546  0.1979 -1.3671
11238TIP3   OH255128   3.290   3.318  13.977 -0.1944  0.5878  0.3861
11238TIP3    H155129   3.272   3.408  14.002  0.6905  1.1724 -1.0473
11238TIP3    H255130   3.314   3.323  13.885  2.5311 -0.7607  0.9739
11239TIP3   OH255131   6.724   4.299   1.010 -0.6259  0.4619 -0.5401
11239TIP3    H155132   6.768   4.224   1.051  1.1669  1.9577  0.3187
11239TIP3    H255133   6.633   4.293   1.040  0.2729  0.5304  2.2462
11240TIP3   OH255134   3.007   4.545   0.699 -0.3695 -0.4060 -0.0579
11240TIP3    H155135   3.060   4.471   0.728 -0.8835 -0.8165 -0.1651
11240TIP3    H255136   3.069   4.617   0.689  0.2964 -1.1184 -1.0454
11241TIP3   OH255137   5.862   0.295  15.500 -0.3026 -0.3871 -0.6334
11241TIP3    H155138   5.820   0.218  15.462  0.4714 -0.5369 -1.1815
11241TIP3    H255139   5.941   0.308  15.449 -1.1097  1.5841 -1.4289
11242TIP3   OH255140   3.901   3.170  15.198 -0.4843 -0.5380  0.3768
11242TIP3    H155141   3.930   3.253  15.161  0.3232 -0.2988  1.5070
11242TIP3    H255142   3.889   3.113  15.123  1.7749 -0.2722 -0.2235
11243TIP3   OH255143   2.596   2.255  13.366  0.1459 -0.1131  0.5205
11243TIP3    H155144   2.657   2.199  13.415 -0.4990 -1.6264 -0.3553
11243TIP3    H255145   2.611   2.343  13.400 -0.6898 -1.1839  3.8485
11244TIP3   OH255146   4.160   6.542  16.766  0.4413 -0.2650 -0.2064
11244TIP3    H155147   4.105   6.545  16.844 -0.2168  1.3085 -0.7073
11244TIP3    H255148   4.248   6.522  16.799  0.4426  1.7993  1.1009
11245TIP3   OH255149   5.692   6.089  16.001 -0.2343  0.1836 -0.3696
11245TIP3    H155150   5.650   6.113  15.919  1.2830  1.3217 -0.8305
11245TIP3    H255151   5.620   6.070  16.060 -1.3958  1.6817 -1.2761
11246TIP3   OH255152   3.426   0.001   5.943  0.2036 -0.1252 -0.3407
11246TIP3    H155153   3.449   0.044   5.861  0.2572  2.8569  1.1530
11246TIP3    H255154   3.501   0.016   6.000 -0.9681  0.2903  1.1203
11247TIP3   OH255155   3.255   4.776  13.276 -0.1006 -0.2472 -0.7206
11247TIP3    H155156   3.251   4.684  13.249 -0.4788  0.0807 -1.8223
11247TIP3    H255157   3.343   4.805  13.251  0.2384 -0.4810  0.1991
11248TIP3   OH255158   1.544   4.444   3.139  0.7599  0.7888  0.1696
11248TIP3    H155159   1.545   4.535   3.170  0.5047  0.9233 -0.2022
11248TIP3    H255160   1.456   4.412   3.161 -0.2141  1.5804 -2.3400
11249TIP3   OH255161   4.449   5.345  14.442  0.0133 -0.0590 -1.0229
11249TIP3    H155162   4.516   5.276  14.437  1.4936  1.3206 -0.5277
11249TIP3    H255163   4.375   5.310  14.393  0.5290 -2.2540 -0.2855
11250TIP3   OH255164   3.206   6.342  13.027 -0.3503  0.2025  0.1665
11250TIP3    H155165   3.215   6.338  12.932 -0.1573 -1.1862  0.2358
11250TIP3    H255166   3.122   6.301  13.045  0.4005 -1.1151  0.7196
11251TIP3   OH255167   0.826   1.517   0.244 -0.2688  0.7047 -0.4262
11251TIP3    H155168   0.789   1.506   0.332 -0.4141  0.3264 -0.5318
11251TIP3    H255169   0.772   1.584   0.203 -0.6705  0.3406 -0.4889
11252TIP3   OH255170   3.880   4.622  11.379 -0.1344  0.1104 -0.6369
11252TIP3    H155171   3.972   4.608  11.358 -0.5515  0.2054 -2.6536
11252TIP3    H255172   3.881   4.680  11.455  1.4745  0.5674 -0.9906
11253TIP3   OH255173   5.243   1.228  11.527 -0.2035  0.0455 -0.3178
11253TIP3    H155174   5.320   1.185  11.562 -1.1655 -0.6746  0.9703
11253TIP3    H255175   5.209   1.167  11.461  0.6027  0.5990 -1.2640
11254TIP3   OH255176   5.784   0.982  11.716 -0.2426 -0.7083 -0.4360
11254TIP3    H155177   5.814   0.893  11.700  0.1444 -0.7401  0.4231
11254TIP3    H255178   5.711   0.973  11.777 -2.2043 -0.6492 -2.7244
11255TIP3   OH255179   3.235   2.362  16.776  0.0359 -0.1673  0.2243
11255TIP3    H155180   3.208   2.281  16.819  1.2985 -0.2329  0.9183
11255TIP3    H255181   3.159   2.420  16.784 -0.9111 -1.3047 -0.3613
11256TIP3   OH255182   2.315   1.325   2.310  0.1259  0.4110 -0.6448
11256TIP3    H155183   2.289   1.303   2.220 -1.6848 -4.3930  0.8647
11256TIP3    H255184   2.244   1.381   2.342 -1.2016 -0.9963 -1.0539
11257TIP3   OH255185   2.837   0.844  12.752 -0.1011  0.2992  0.0558
11257TIP3    H155186   2.929   0.840  12.726 -0.3419 -0.4615 -0.7091
11257TIP3    H255187   2.839   0.853  12.848  0.7708  0.9913 -0.0243
11258TIP3   OH255188   5.258   0.617  10.933 -0.4673  0.2501  0.1439
11258TIP3    H155189   5.188   0.667  10.892 -2.3234 -1.8219  0.6723
11258TIP3    H255190   5.328   0.614  10.867 -1.8335  0.2783 -1.3271
11259TIP3   OH255191   4.425   4.247  15.648 -0.5173 -0.2352  0.0779
11259TIP3    H155192   4.503   4.281  15.605  0.0864 -0.6134  0.8469
11259TIP3    H255193   4.453   4.228  15.738 -0.9181 -2.3919 -0.2077
11260TIP3   OH255194   4.127   2.819  10.419 -0.0921  0.7966 -0.0001
11260TIP3    H155195   4.192   2.799  10.486  0.0359 -0.2573 -0.4291
11260TIP3    H255196   4.157   2.902  10.381  1.5047 -0.1077 -0.7788
11261TIP3   OH255197   2.565   4.658  16.414  0.1959 -0.2126  0.0710
11261TIP3    H155198   2.660   4.651  16.418  0.3446  1.2254 -0.7148
11261TIP3    H255199   2.546   4.671  16.321 -0.7760 -0.6066  0.2141
11262TIP3   OH255200   3.017   5.927   2.379 -0.1168 -0.5598  0.0260
11262TIP3    H155201   2.932   5.895   2.410 -0.3796  0.6935  0.6080
11262TIP3    H255202   3.031   6.009   2.425 -0.2856  1.1055 -2.7927
11263TIP3   OH255203   0.016   1.020   3.960  0.1852  0.0432  0.1571
11263TIP3    H155204  -0.054   1.008   4.024 -0.3851 -0.1286 -0.4938
11263TIP3    H255205   0.066   1.095   3.992  0.6598 -0.8350  1.4774
11264TIP3   OH255206   1.926   0.761   3.002  0.4775  0.1964 -0.3486
11264TIP3    H155207   1.964   0.674   2.994  2.2833  1.1625 -3.0295
11264TIP3    H255208   1.885   0.777   2.917 -1.0905  1.4238  0.5982
11265TIP3   OH255209   1.090   4.716   3.570  0.4141 -0.1037  0.1450
11265TIP3    H155210   1.026   4.767   3.521  0.4161 -0.5208 -0.2978
11265TIP3    H255211   1.095   4.759   3.655  0.4640  0.6769 -0.2458
11266TIP3   OH255212   0.941   4.632  14.227 -0.0834  0.2914 -0.3541
11266TIP3    H155213   0.924   4.627  14.133  1.0372  1.4086 -0.6321
11266TIP3    H255214   1.014   4.571  14.241 -0.0949  0.2993 -0.2624
11267TIP3   OH255215   3.696   1.101  11.957 -0.4230  0.2027  0.1846
11267TIP3    H155216   3.702   1.149  12.039 -0.0879  0.3000  0.1034
11267TIP3    H255217   3.642   1.156  11.900 -0.1867  0.3940  0.1502
11268TIP3   OH255218   2.732   4.675   5.286  0.3286  0.0872  0.8390
11268TIP3    H155219   2.666   4.741   5.306  0.6329  1.0485 -1.1747
11268TIP3    H255220   2.682   4.601   5.251  0.1973  0.1986  0.7912
11269TIP3   OH255221   1.023   0.245  15.490  0.2690 -0.2502  0.4627
11269TIP3    H155222   1.039   0.150  15.481  2.3658  0.1215 -0.0702
11269TIP3    H255223   0.944   0.261  15.439  0.1713 -1.6552  0.1464
11270TIP3   OH255224   1.942   0.838   6.397  1.0080  0.6842  0.2293
11270TIP3    H155225   1.972   0.770   6.458  0.3107 -1.0060 -1.2779
11270TIP3    H255226   1.849   0.849   6.417  0.4171 -0.9612 -1.5174
11271TIP3   OH255227   6.245   5.989  14.859  0.2533 -0.3506  0.1122
11271TIP3    H155228   6.221   5.977  14.768  0.4550 -0.0945  0.0228
11271TIP3    H255229   6.315   5.926  14.875 -0.0348 -0.6515  0.1919
11272TIP3   OH255230   1.002   5.321   0.525 -0.4843  0.2814 -0.2775
11272TIP3    H155231   0.951   5.297   0.602  0.7937 -0.8627  0.2386
11272TIP3    H255232   0.941   5.369   0.469 -1.8958 -0.4221  0.6470
11273TIP3   OH255233   2.160   3.338   3.129  0.1796 -0.2202 -0.1328
11273TIP3    H155234   2.201   3.391   3.062  0.5792 -1.0167 -0.5282
11273TIP3    H255235   2.107   3.274   3.080 -1.5817  0.8119  0.3615
11274TIP3   OH255236   0.806   3.875  15.804  0.0636 -0.6198  0.2945
11274TIP3    H155237   0.743   3.947  15.809 -0.3530 -0.8779 -1.1868
11274TIP3    H255238   0.812   3.842  15.894 -0.3785  0.7156  0.8187
11275TIP3   OH255239   0.410   1.597   5.758  0.2351 -0.2740  0.5213
11275TIP3    H155240   0.477   1.530   5.747 -0.7713 -1.0437 -1.1445
11275TIP3    H255241   0.376   1.612   5.670 -1.0278  0.8841  1.1787
11276TIP3   OH255242   6.557   6.278   2.425 -0.9040 -0.2235  0.2169
11276TIP3    H155243   6.627   6.341   2.408 -1.7924  0.2554 -1.8872
11276TIP3    H255244   6.488   6.330   2.467 -0.6799 -0.3201  0.7053
11277TIP3   OH255245   4.570   5.299   3.965 -0.4140 -0.2772  0.0535
11277TIP3    H155246   4.561   5.266   3.876 -0.2798  0.4435 -0.2329
11277TIP3    H255247   4.570   5.394   3.955 -0.5038 -0.1930  0.8331
11278TIP3   OH255248   4.087   3.674  12.879  0.5713 -0.1636 -0.0803
11278TIP3    H155249   4.083   3.769  12.867 -0.2618 -0.1877 -0.0439
11278TIP3    H255250   4.075   3.639  12.791  0.1615 -0.2438  0.0056
11279TIP3   OH255251   3.124   4.402  17.023  0.1393  0.1996  0.4664
11279TIP3    H155252   3.171   4.327  17.060 -0.8450 -1.5099 -1.6030
11279TIP3    H255253   3.034   4.371  17.014 -0.0263  1.1945 -1.5667
11280TIP3   OH255254   2.004   5.625  11.975  0.5900 -0.1961  0.5038
11280TIP3    H155255   2.014   5.716  11.947  0.1919 -0.7128 -1.3718
11280TIP3    H255256   1.924   5.595  11.934 -0.0529 -0.9988  2.2689
11281TIP3   OH255257   6.237   0.029  16.397 -0.1597 -0.1504 -0.3570
11281TIP3    H155258   6.299   0.071  16.337 -0.6792  1.2233  0.0428
11281TIP3    H255259   6.151   0.058  16.367 -0.3550  1.9918  2.0585
11282TIP3   OH255260   3.005   0.782  13.750  0.1402  0.1001 -0.2008
11282TIP3    H155261   2.955   0.841  13.806 -1.1783 -0.4397 -0.7744
11282TIP3    H255262   3.038   0.715  13.809 -0.2922  0.1540  0.1050
11283TIP3   OH255263   2.581   3.165   1.931 -0.1909 -0.3164  0.2556
11283TIP3    H155264   2.556   3.235   1.991 -1.2546  0.1730 -0.7422
11283TIP3    H255265   2.500   3.116   1.916  0.2440 -0.9134 -0.1565
11284TIP3   OH255266   4.472   0.375   3.775 -0.0698 -0.1124  0.0677
11284TIP3    H155267   4.413   0.412   3.840  1.0063 -1.3143  1.7657
11284TIP3    H255268   4.422   0.306   3.732 -0.8405  0.8057 -0.5316
11285TIP3   OH255269   5.918   3.611   4.193 -0.1902 -0.6023 -0.3367
11285TIP3    H155270   5.942   3.667   4.119 -0.8958  0.7999  0.4675
11285TIP3    H255271   5.831   3.577   4.170 -1.0615  1.0109  0.4794
11286TIP3   OH255272   3.821   4.188   1.443 -0.2735  0.4240 -0.6023
11286TIP3    H155273   3.757   4.117   1.457  1.0517 -0.7892 -0.5594
11286TIP3    H255274   3.891   4.169   1.505  1.4106  0.1853 -2.5432
11287TIP3   OH255275   5.045   4.135   1.525 -0.5000 -0.6381 -0.1951
11287TIP3    H155276   4.950   4.122   1.528 -0.8428  1.5051 -0.9032
11287TIP3    H255277   5.068   4.119   1.434 -0.3338 -0.1540 -0.2370
11288TIP3   OH255278   6.482   0.909   0.771  0.1144 -0.5017  0.2486
11288TIP3    H155279   6.397   0.952   0.764  0.0543 -0.3696  1.7103
11288TIP3    H255280   6.464   0.826   0.816  0.4837 -1.3199 -1.0815
11289TIP3   OH255281   1.922   4.209   3.897 -0.7073  0.1215 -0.1292
11289TIP3    H155282   1.830   4.182   3.896 -0.1293 -1.9274 -0.2340
11289TIP3    H255283   1.949   4.207   3.805 -0.3523 -0.0507 -0.0248
11290TIP3   OH255284   2.900   5.103   4.651 -0.3983  0.5155  0.0854
11290TIP3    H155285   2.822   5.081   4.600 -0.6390  0.7703  0.3428
11290TIP3    H255286   2.973   5.090   4.590 -0.2780 -3.5080  0.9536
11291TIP3   OH255287   0.810   3.002   4.534 -0.0965 -0.4835  0.2371
11291TIP3    H155288   0.787   3.024   4.444  0.1593  0.2359  0.3403
11291TIP3    H255289   0.726   2.990   4.578 -0.2293 -0.4117  0.0063
11292TIP3   OH255290   2.426   0.968   3.711  0.5815  0.0762 -0.1957
11292TIP3    H155291   2.337   0.955   3.677  1.4481 -1.3976 -1.9720
11292TIP3    H255292   2.460   0.879   3.723  1.4414  0.6245  1.4827
11293TIP3   OH255293   5.087   4.364   2.022  0.6544  0.0283 -0.4498
11293TIP3    H155294   5.069   4.277   1.988  2.4351 -0.4624 -0.1664
11293TIP3    H255295   5.017   4.381   2.085  0.1583 -1.0802 -0.7050
11294TIP3   OH255296   3.163   0.543   2.803  0.3567 -0.0886  0.1389
11294TIP3    H155297   3.086   0.599   2.804 -0.6204 -1.3910 -0.5409
11294TIP3    H255298   3.129   0.454   2.816  1.6815 -0.7335 -0.6389
11295TIP3   OH255299   6.078   5.072  15.089 -0.7483 -0.4037 -0.4457
11295TIP3    H155300   6.167   5.094  15.117  0.1400 -3.9410 -0.2992
11295TIP3    H255301   6.072   5.106  15.000  0.1475  1.3596  0.1450
11296TIP3   OH255302   2.703   3.273   6.274  0.3455  0.0697  0.4033
11296TIP3    H155303   2.790   3.307   6.252  0.1957 -0.2167 -0.6579
11296TIP3    H255304   2.643   3.333   6.230 -0.0362  0.8701  1.9700
11297TIP3   OH255305   0.030   2.624   4.824  0.5958 -0.7465 -0.1485
11297TIP3    H155306   0.079   2.583   4.895  0.8972 -2.6537 -1.4301
11297TIP3    H255307  -0.061   2.608   4.845  0.6677 -0.8526  0.0803
11298TIP3   OH255308   3.588   4.460   4.318 -0.1357  0.4996  0.0767
11298TIP3    H155309   3.588   4.502   4.232 -0.3179  1.7773  0.6845
11298TIP3    H255310   3.660   4.397   4.314 -0.6219  0.0244 -1.2632
11299TIP3   OH255311   3.248   4.286   4.311  0.1261  0.4306 -0.0469
11299TIP3    H155312   3.218   4.376   4.327 -1.0955  0.0208  0.0476
11299TIP3    H255313   3.305   4.293   4.235 -2.4373  0.8588 -1.9839
11300TIP3   OH255314   5.390   1.240   4.632  0.0286 -0.0361  0.4539
11300TIP3    H155315   5.318   1.205   4.580 -0.4230  0.4607  0.7345
11300TIP3    H255316   5.468   1.220   4.581 -0.1571 -1.9146  0.8685
11301TIP3   OH255317   2.858   1.362   1.811 -0.2509  0.4871 -0.0420
11301TIP3    H155318   2.837   1.456   1.810  0.5868  0.6873  0.5102
11301TIP3    H255319   2.920   1.351   1.739 -1.5642  0.0574 -1.1213
11302TIP3   OH255320   1.471   0.110  16.192 -0.3575  0.0836  0.0638
11302TIP3    H155321   1.551   0.083  16.145 -2.1003 -1.0609 -2.3336
11302TIP3    H255322   1.458   0.201  16.165 -0.5366 -0.1184 -0.5528
11303TIP3   OH255323   3.314   0.775  11.402 -0.3553 -0.0122  0.2162
11303TIP3    H155324   3.377   0.785  11.473  0.0722 -0.7946 -0.0354
11303TIP3    H255325   3.350   0.828  11.330 -1.0231  1.1451  0.7235
11304TIP3   OH255326   2.104   1.839   5.947  0.0331  0.0179 -0.1693
11304TIP3    H155327   2.149   1.833   6.032  0.5770  0.7843 -0.3968
11304TIP3    H255328   2.133   1.760   5.900 -1.3595 -1.1370  0.8557
11305TIP3   OH255329   0.229   5.173   1.959  0.1105 -0.5604 -0.4997
11305TIP3    H155330   0.209   5.243   1.898 -1.6812 -0.0943  0.5986
11305TIP3    H255331   0.209   5.092   1.911 -0.3186 -0.2375 -0.8592
11306TIP3   OH255332   6.461   4.093   2.265 -0.0491 -0.0565 -0.2353
11306TIP3    H155333   6.556   4.094   2.261 -0.0581  0.8564 -0.2520
11306TIP3    H255334   6.440   4.104   2.358 -0.1685  2.5675 -0.5508
11307TIP3   OH255335   6.005   2.658  13.522  0.2012  0.0657  0.2812
11307TIP3    H155336   6.067   2.628  13.455  0.5775  2.5217 -0.5509
11307TIP3    H255337   6.060   2.683  13.596  0.1220  0.9313  0.0596
11308TIP3   OH255338   2.986   3.763   0.340  0.6502 -0.2551  0.1073
11308TIP3    H155339   2.949   3.820   0.407  1.9643  0.4166  0.2786
11308TIP3    H255340   2.926   3.771   0.266 -1.4089 -1.8536  1.5565
11309TIP3   OH255341   2.686   5.664   1.912  0.2026 -0.1773 -0.3306
11309TIP3    H155342   2.612   5.613   1.942  1.1099 -1.3559 -0.0430
11309TIP3    H255343   2.670   5.677   1.818  0.4131 -1.8363 -0.6253
11310TIP3   OH255344   2.543   6.308   2.726 -0.3102 -0.1487 -0.1762
11310TIP3    H155345   2.569   6.302   2.634 -1.3438 -0.2036 -0.4713
11310TIP3    H255346   2.601   6.375   2.763 -0.9178  1.0009 -1.2453
11311TIP3   OH255347   1.188   4.876  14.167  0.0792  0.0207 -0.0696
11311TIP3    H155348   1.221   4.855  14.255 -0.4961  1.8186  0.6090
11311TIP3    H255349   1.094   4.863  14.172  0.4047 -3.2747 -1.4666
11312TIP3   OH255350   1.561   6.597  14.015 -0.1717  0.2152 -0.6683
11312TIP3    H155351   1.487   6.537  14.006  0.9104 -1.2435 -0.1287
11312TIP3    H255352   1.585   6.619  13.925 -0.1541 -0.7120 -0.8940
11313TIP3   OH255353   4.757   4.672  14.621  0.5153  0.5846 -0.0056
11313TIP3    H155354   4.847   4.705  14.627  0.3359  0.6997  2.7937
11313TIP3    H255355   4.745   4.622  14.702 -1.8597  0.3456 -0.4804
11314TIP3   OH255356   0.570   0.408  15.396  0.0609  0.1186  0.4775
11314TIP3    H155357   0.493   0.465  15.400 -0.4415 -0.4958 -0.1803
11314TIP3    H255358   0.544   0.330  15.445 -1.2190 -1.7694 -3.0381
11315TIP3   OH255359   4.415   2.012   0.756  0.4525 -0.8711  0.2646
11315TIP3    H155360   4.394   1.959   0.679  4.5880 -0.7677 -1.0319
11315TIP3    H255361   4.479   1.959   0.805  0.9441  0.8351  1.5153
11316TIP3   OH255362   4.406   3.170   1.437  0.4024  0.5376 -0.4253
11316TIP3    H155363   4.487   3.163   1.488  0.1460  0.0068 -0.0924
11316TIP3    H255364   4.397   3.264   1.419  0.0629  0.8209  1.1943
11317TIP3   OH255365   0.701   4.957  14.586 -0.3632  0.2099 -0.1466
11317TIP3    H155366   0.791   4.928  14.597  1.0776  3.9670 -1.2027
11317TIP3    H255367   0.705   5.026  14.519 -4.3897 -1.1630 -2.0084
11318TIP3   OH255368   5.768   4.450  11.522 -0.4084  0.2768  0.0096
11318TIP3    H155369   5.782   4.505  11.445  0.1087 -0.7910 -0.6797
11318TIP3    H255370   5.854   4.446  11.565 -0.8293  1.3419  0.9713
11319TIP3   OH255371   0.538   5.637   1.898  0.2166 -0.0779  0.0865
11319TIP3    H155372   0.586   5.716   1.923  0.5054 -0.9996  2.6763
11319TIP3    H255373   0.449   5.667   1.881  0.1566  0.7365  1.7263
11320TIP3   OH255374   4.851   4.906  13.669 -0.5505 -0.0745  0.1208
11320TIP3    H155375   4.866   4.963  13.744 -0.3802  1.6429 -1.1716
11320TIP3    H255376   4.936   4.865  13.652 -0.7729 -1.0352  1.3036
11321TIP3   OH255377   6.064   6.106  16.210 -0.4774 -0.4571  0.0551
11321TIP3    H155378   6.068   6.011  16.204  0.2334 -0.2839 -2.8158
11321TIP3    H255379   6.155   6.135  16.195 -0.3803  0.6224  2.4861
11322TIP3   OH255380   2.836   4.356  12.842  0.0243  0.2366  0.4820
11322TIP3    H155381   2.820   4.450  12.835  1.5031  0.5508  1.1226
11322TIP3    H255382   2.931   4.348  12.852 -0.1232 -1.2953  0.8642
11323TIP3   OH255383   2.822   1.131   1.561 -0.4597  0.0228  0.1882
11323TIP3    H155384   2.819   1.114   1.655  1.4435 -0.5887  0.1480
11323TIP3    H255385   2.893   1.195   1.550 -0.3864 -0.2235 -0.8706
11324TIP3   OH255386   5.953   1.876   4.600  0.2756  0.0339  0.0572
11324TIP3    H155387   5.974   1.953   4.653  0.8587  0.4354 -0.7273
11324TIP3    H255388   6.038   1.834   4.584 -0.0088 -0.6111  0.2439
11325TIP3   OH255389   5.955   4.993  17.009 -0.1241 -0.2840  0.1332
11325TIP3    H155390   6.042   4.999  16.970 -0.0139 -0.3337  0.3664
11325TIP3    H255391   5.902   5.056  16.961 -0.0372 -0.4848 -0.2267
11326TIP3   OH255392   5.038   0.964  13.789 -0.1665  0.2205 -0.3369
11326TIP3    H155393   5.076   0.916  13.714  0.5042  0.2486 -0.0219
11326TIP3    H255394   5.071   0.917  13.866 -1.2546 -0.1096 -0.0571
11327TIP3   OH255395   1.529   2.782  17.211 -0.4904  0.2235  0.0166
11327TIP3    H155396   1.563   2.698  17.179 -0.6570  0.1238  0.0956
11327TIP3    H255397   1.463   2.807  17.146 -2.3874 -1.0535  1.3872
11328TIP3   OH255398   1.559   5.977   5.725  0.1789 -0.0795  0.4272
11328TIP3    H155399   1.598   6.011   5.806 -0.0967 -0.8665  0.8933
11328TIP3    H255400   1.616   6.009   5.655  0.2933  0.7839  0.9186
11329TIP3   OH255401   4.118   6.711   4.078  0.5483  0.1895  0.5715
11329TIP3    H155402   4.038   6.760   4.097 -0.0469 -0.6277  0.2128
11329TIP3    H255403   4.098   6.621   4.105  2.4918  0.5907  3.5884
11330TIP3   OH255404   6.120   0.249   3.418 -0.1425 -1.0754  0.0050
11330TIP3    H155405   6.097   0.307   3.345 -0.1262  0.2875  1.0620
11330TIP3    H255406   6.082   0.165   3.395  0.9303 -1.0098 -2.1780
11331TIP3   OH255407   0.941   5.662   3.976  0.0487  0.3473 -0.7123
11331TIP3    H155408   1.013   5.662   3.913  0.5558 -1.4374 -0.1628
11331TIP3    H255409   0.982   5.635   4.059 -0.7742  1.7760  0.1876
11332TIP3   OH255410   1.813   3.007  11.574 -0.5048  0.0477  0.0258
11332TIP3    H155411   1.889   2.950  11.564  0.2522  1.3857 -2.0653
11332TIP3    H255412   1.779   2.987  11.662  2.2153 -0.5646  0.9690
11333TIP3   OH255413   3.230   3.218  12.395 -0.4123 -0.3669  0.4656
11333TIP3    H155414   3.256   3.177  12.312 -0.2405 -3.1411  1.8187
11333TIP3    H255415   3.310   3.260  12.427  0.6635 -2.8339  1.1718
11334TIP3   OH255416   5.279   4.342   5.649  0.7565  0.4576 -0.0794
11334TIP3    H155417   5.331   4.272   5.608  1.1980  1.6931 -1.6796
11334TIP3    H255418   5.234   4.299   5.722  1.1807 -1.4515 -0.9095
11335TIP3   OH255419   3.400   2.353  13.459  0.0856  0.3074 -0.4933
11335TIP3    H155420   3.320   2.323  13.416  0.7295  0.8853 -2.1407
11335TIP3    H255421   3.390   2.448  13.466 -0.0888  0.2084  0.8377
11336TIP3   OH255422   2.656   6.411  16.063  0.0251  0.3838  0.3525
11336TIP3    H155423   2.728   6.422  16.125 -0.1104 -2.8220  1.1544
11336TIP3    H255424   2.590   6.363  16.112 -0.3723 -1.5816 -2.0362
11337TIP3   OH255425   3.130   6.138   4.768  0.2049  0.2200  0.3302
11337TIP3    H155426   3.049   6.134   4.819 -0.6591  0.1335 -1.0257
11337TIP3    H255427   3.150   6.231   4.762  0.8262  0.1810  1.6066
11338TIP3   OH255428   2.249   0.105   3.753 -0.3635  1.0337 -0.0017
11338TIP3    H155429   2.217   0.193   3.731 -0.5403  1.4631  1.8396
11338TIP3    H255430   2.171   0.057   3.780 -0.2875  0.2497 -1.1530
11339TIP3   OH255431   6.694   4.870  14.740  0.3840  0.2600  0.8292
11339TIP3    H155432   6.749   4.918  14.678  0.4485 -0.8287  0.0242
11339TIP3    H255433   6.691   4.781  14.705 -1.8548  0.2830  0.8619
11340TIP3   OH255434   0.076   3.419   2.572 -0.4134 -0.4046 -0.4316
11340TIP3    H155435   0.115   3.504   2.556  0.1546 -0.6223 -0.2092
11340TIP3    H255436  -0.008   3.422   2.526 -0.0651  0.0002 -1.0427
11341TIP3   OH255437   3.097   6.003  11.549 -0.0301  0.4844  0.8045
11341TIP3    H155438   3.045   5.923  11.554 -0.5442  0.8025  0.5200
11341TIP3    H255439   3.182   5.978  11.585  0.3367 -0.6279 -0.7785
11342TIP3   OH255440   0.437   4.821   1.686  0.2284  0.2544  0.2945
11342TIP3    H155441   0.412   4.765   1.760  0.2066 -1.6328 -1.1245
11342TIP3    H255442   0.366   4.886   1.681 -1.6522 -1.7699 -0.2807
11343TIP3   OH255443   2.085   3.876  17.102  0.2407  0.1657  0.6109
11343TIP3    H155444   2.098   3.969  17.089 -0.5919  0.2827  0.5887
11343TIP3    H255445   1.996   3.868  17.137 -0.1193 -0.7007 -0.4514
11344TIP3   OH255446   2.612   5.055  16.097 -0.5070  0.2233  0.3205
11344TIP3    H155447   2.601   5.075  16.190 -0.7311  0.8648  0.1560
11344TIP3    H255448   2.531   5.012  16.071 -1.1060  1.5059  0.0328
11345TIP3   OH255449   6.426   4.550  16.191 -0.0607  0.3359 -0.1763
11345TIP3    H155450   6.449   4.462  16.163 -0.2876  0.1964  0.0671
11345TIP3    H255451   6.486   4.607  16.144  1.5185 -0.0957  1.2643
11346TIP3   OH255452   6.439   5.513   3.397 -0.1490 -0.2483  0.6256
11346TIP3    H155453   6.386   5.574   3.448 -0.8478  0.8438 -1.3590
11346TIP3    H255454   6.515   5.564   3.368  0.2731 -0.8729  0.6030
11347TIP3   OH255455   5.041   0.420   4.549 -0.4051  0.0064  0.0122
11347TIP3    H155456   5.104   0.366   4.596 -1.0017 -1.3407 -0.6999
11347TIP3    H255457   5.072   0.419   4.458 -1.0268 -0.0510 -0.2016
11348TIP3   OH255458   5.009   3.994  15.140 -0.1157  0.6086  0.5024
11348TIP3    H155459   5.004   3.920  15.079 -0.3067  0.4678  0.6875
11348TIP3    H255460   4.977   3.959  15.223  0.0344  0.8314  0.6562
11349TIP3   OH255461   1.297   2.450   2.416 -0.1006  0.8254 -0.3987
11349TIP3    H155462   1.316   2.529   2.467  2.0691  0.5628 -0.7350
11349TIP3    H255463   1.248   2.394   2.476  0.1892  1.5669  0.5412
11350TIP3   OH255464   5.352   2.117   2.285  0.2787  0.2847 -0.2344
11350TIP3    H155465   5.291   2.115   2.359 -0.4349 -2.2302 -0.8409
11350TIP3    H255466   5.436   2.143   2.324 -0.7010  1.7899  0.9431
11351TIP3   OH255467   0.890   1.792   1.133 -0.0937 -0.3391  0.3009
11351TIP3    H155468   0.872   1.872   1.083 -0.9173 -0.5744  0.2142
11351TIP3    H255469   0.984   1.795   1.150  0.0498  0.1435 -0.5621
11352TIP3   OH255470   3.475   4.377  14.752  0.4914  0.3727 -0.2439
11352TIP3    H155471   3.562   4.361  14.787  0.3499 -0.8534 -0.4097
11352TIP3    H255472   3.436   4.442  14.810  1.1681  0.1960  0.4052
11353TIP3   OH255473   5.821   3.663   2.263 -0.6561  0.2584  0.1598
11353TIP3    H155474   5.826   3.579   2.218  1.9330 -0.0792  1.0227
11353TIP3    H255475   5.796   3.726   2.195  0.2329 -0.7321 -1.0842
11354TIP3   OH255476   1.276   4.476   1.093 -0.3083  0.2376  0.0129
11354TIP3    H155477   1.200   4.447   1.144  0.5021 -1.2206  0.4172
11354TIP3    H255478   1.307   4.553   1.140 -0.0151 -0.6543  1.3340
11355TIP3   OH255479   1.194   3.181  16.621  0.6534 -0.2791  0.0199
11355TIP3    H155480   1.123   3.125  16.591 -0.4354 -0.5483  2.9218
11355TIP3    H255481   1.167   3.270  16.596  0.0543 -0.5450 -0.2833
11356TIP3   OH255482   3.064   2.828  12.184 -0.9113  0.5434 -0.0460
11356TIP3    H155483   3.037   2.737  12.178 -1.6877  0.7152  0.7448
11356TIP3    H255484   2.988   2.873  12.221  0.7208  0.8708  3.0780
11357TIP3   OH255485   1.815   6.060   2.087 -0.3035  0.0561  0.0990
11357TIP3    H155486   1.796   5.970   2.062 -3.3323  0.9384 -1.0416
11357TIP3    H255487   1.761   6.076   2.164  1.0501  0.5771  0.9618
11358TIP3   OH255488   0.889   4.838  10.888  0.7821  0.0332  0.1334
11358TIP3    H155489   0.887   4.842  10.983 -0.9131 -2.1449  0.2319
11358TIP3    H255490   0.961   4.779  10.867  1.3954  0.8080  0.0458
11359TIP3   OH255491   3.443   2.015  14.921  0.0603  0.0082 -0.1699
11359TIP3    H155492   3.535   2.019  14.947 -0.3043  2.3590  0.9283
11359TIP3    H255493   3.411   2.105  14.934 -1.6347 -0.0779 -3.3573
11360TIP3   OH255494   3.611   1.298   4.494  0.3891  0.3640 -0.2150
11360TIP3    H155495   3.664   1.376   4.475 -0.7898  1.3311  0.4071
11360TIP3    H255496   3.665   1.225   4.464  0.8592  1.5057 -2.2982
11361TIP3   OH255497   1.737   2.339   5.024  0.4404 -0.2654 -0.2843
11361TIP3    H155498   1.775   2.352   5.111  0.2538  1.1665 -0.4147
11361TIP3    H255499   1.672   2.270   5.037 -0.8120  1.1186  1.0773
11362TIP3   OH255500   1.441   1.079   6.127 -0.1254 -0.5436  1.0365
11362TIP3    H155501   1.431   1.049   6.036 -0.2534  2.0827  0.1605
11362TIP3    H255502   1.380   1.025   6.176 -2.4741  0.2043 -0.9442
11363TIP3   OH255503   4.987   6.377  16.909 -0.0799 -0.2940  0.4197
11363TIP3    H155504   4.980   6.287  16.941 -1.3822  0.4246  2.2338
11363TIP3    H255505   5.078   6.401  16.925  0.0705 -1.0158  0.6582
11364TIP3   OH255506   0.297   5.089  11.854 -0.4764 -0.3695 -0.5759
11364TIP3    H155507   0.269   5.124  11.938 -2.8590 -0.3143 -1.3723
11364TIP3    H255508   0.270   5.154  11.790  1.4164 -0.3571 -1.4201
11365TIP3   OH255509   4.840   4.183  11.480  0.4314  0.7279 -0.4349
11365TIP3    H155510   4.850   4.267  11.436  2.5593  0.7544  0.0486
11365TIP3    H255511   4.808   4.205  11.567 -0.3554  0.9263 -0.7678
11366TIP3   OH255512   2.406   3.681  14.461  0.2823  0.5402  0.6298
11366TIP3    H155513   2.462   3.662  14.386 -0.3331 -0.8967  0.5175
11366TIP3    H255514   2.391   3.596  14.502  0.4161  1.2712  2.2537
11367TIP3   OH255515   5.321   5.203   5.329 -0.3859 -0.0453  0.8341
11367TIP3    H155516   5.261   5.183   5.258 -0.8950  0.2199  1.1878
11367TIP3    H255517   5.399   5.150   5.310 -0.8258 -0.5803  0.5093
11368TIP3   OH255518   3.921   2.092  13.779 -0.2709  0.2776  0.0220
11368TIP3    H155519   3.851   2.129  13.833  0.8292  2.9977 -0.3616
11368TIP3    H255520   3.990   2.070  13.842  0.1465  1.4165 -0.0339
11369TIP3   OH255521   5.447   0.930   3.090  0.1058  0.3216  0.5172
11369TIP3    H155522   5.369   0.955   3.140 -0.3303 -0.1423  0.0781
11369TIP3    H255523   5.420   0.938   2.998  0.1235 -1.2105  0.3609
11370TIP3   OH255524   1.011   5.478   4.428 -0.0596  0.5004  0.4819
11370TIP3    H155525   1.096   5.499   4.466 -0.6232  0.9206  1.5446
11370TIP3    H255526   0.985   5.557   4.381  1.9516 -0.9749 -3.3487
11371TIP3   OH255527   5.718   0.412  16.025 -0.6037 -0.4126  0.3561
11371TIP3    H155528   5.677   0.467  16.092  0.4787 -0.8102  1.3742
11371TIP3    H255529   5.699   0.456  15.942 -1.3320  0.4930  0.9916
11372TIP3   OH255530   4.116   3.098   5.196  0.6229  0.0192  0.4076
11372TIP3    H155531   4.176   3.126   5.264  0.8165 -1.6127  0.9414
11372TIP3    H255532   4.156   3.129   5.114  1.6452 -0.1106  0.8505
11373TIP3   OH255533   5.278   0.168  11.877  0.3429  0.3037  0.3367
11373TIP3    H155534   5.243   0.252  11.846  1.2406  1.5451  2.5627
11373TIP3    H255535   5.364   0.162  11.836 -0.8651 -0.9884 -2.1707
11374TIP3   OH255536   4.422   0.782  13.366  0.3841  0.4847 -0.2971
11374TIP3    H155537   4.432   0.688  13.381  1.0419  0.6573  0.3689
11374TIP3    H255538   4.332   0.801  13.392 -0.2103 -0.2256 -1.8207
11375TIP3   OH255539   6.095   6.509   4.505 -0.0428  0.3304  0.2105
11375TIP3    H155540   6.066   6.430   4.551 -1.5467 -0.9803 -2.8652
11375TIP3    H255541   6.181   6.529   4.542 -0.2210 -1.9804  1.9349
11376TIP3   OH255542   4.164   6.345   3.330 -0.4595 -0.2413  0.3717
11376TIP3    H155543   4.197   6.262   3.366 -1.3759 -0.8450 -0.1745
11376TIP3    H255544   4.069   6.336   3.330 -0.6012  1.1221  1.0366
11377TIP3   OH255545   0.018   5.090  14.134 -0.3001  0.0830  0.0684
11377TIP3    H155546   0.029   5.050  14.220  0.3312 -1.2680 -0.6275
11377TIP3    H255547   0.088   5.051  14.081 -0.9509  0.5931 -1.1660
11378TIP3   OH255548   0.290   1.491   4.434 -0.0395  0.1988 -0.6162
11378TIP3    H155549   0.274   1.396   4.436 -0.9441  0.3376 -0.9839
11378TIP3    H255550   0.316   1.512   4.524  0.5140 -0.4588 -0.6213
11379TIP3   OH255551   0.429   6.414  17.155 -0.3888  0.1018  0.3105
11379TIP3    H155552   0.403   6.412  17.247  0.1190  1.0790  0.4839
11379TIP3    H255553   0.357   6.370  17.109  0.3929 -2.3515  1.3924
11380TIP3   OH255554   3.871   2.260   4.450  0.1423 -0.0006 -0.0248
11380TIP3    H155555   3.796   2.319   4.452 -0.0348 -0.1715 -1.1314
11380TIP3    H255556   3.930   2.299   4.385  0.8633 -0.0495  0.5926
11381TIP3   OH255557   1.829   2.347   5.287 -0.3797 -0.7126  0.3013
11381TIP3    H155558   1.797   2.416   5.346 -0.5266  0.4645 -1.1241
11381TIP3    H255559   1.918   2.374   5.265 -0.6307 -0.6881 -0.6899
11382TIP3   OH255560   3.189   6.020  12.708 -1.4023  0.5906 -0.5163
11382TIP3    H155561   3.167   6.108  12.739 -2.1471  0.2874 -0.1678
11382TIP3    H255562   3.119   5.964  12.743  0.6526 -0.6391  1.8206
11383TIP3   OH255563   0.383   4.569  17.217 -0.0234 -0.7034 -0.4646
11383TIP3    H155564   0.311   4.524  17.261 -1.5743 -0.0861 -2.3211
11383TIP3    H255565   0.394   4.522  17.134  1.2422 -0.3472 -0.5163
11384TIP3   OH255566   4.791   5.392  15.886  0.1406 -0.4527 -0.5362
11384TIP3    H155567   4.784   5.486  15.870 -1.1580 -0.4075  0.2786
11384TIP3    H255568   4.830   5.357  15.805  1.4727  0.8897 -0.4881
11385TIP3   OH255569   6.581   0.955  14.785  0.1341 -0.3176  0.2158
11385TIP3    H155570   6.555   1.041  14.817 -1.8729 -0.8267  0.0454
11385TIP3    H255571   6.547   0.952  14.695  0.2888 -1.2455  0.1847
11386TIP3   OH255572   6.028   1.936  14.771  0.0149  0.1890 -0.0357
11386TIP3    H155573   6.104   1.991  14.790  1.6449 -0.9061 -3.0057
11386TIP3    H255574   5.966   1.994  14.728 -0.5060  0.9036  1.6612
11387TIP3   OH255575   1.907   3.756   6.020 -0.4923  0.1808 -0.6308
11387TIP3    H155576   1.812   3.751   6.010 -0.4985 -0.8483 -0.0720
11387TIP3    H255577   1.922   3.842   6.059 -1.3775 -0.5078  1.2998
11388TIP3   OH255578   3.822   4.814  12.980 -0.2888 -0.0272  0.7085
11388TIP3    H155579   3.745   4.805  13.035  1.0461 -0.7012  2.5376
11388TIP3    H255580   3.853   4.903  12.996 -1.1140  0.5206 -0.6380
11389TIP3   OH255581   6.090   0.304   0.492 -0.4419 -0.4339 -0.8265
11389TIP3    H155582   6.094   0.393   0.458 -0.4083 -0.6887 -1.4784
11389TIP3    H255583   6.000   0.275   0.474 -0.5443 -0.4308 -0.3489
11390TIP3   OH255584   0.936   5.412  11.129  0.2042 -0.0490  0.3552
11390TIP3    H155585   0.925   5.341  11.066  1.4552  0.7733 -0.8349
11390TIP3    H255586   1.031   5.426  11.132 -0.0883  2.1955 -0.1609
11391TIP3   OH255587   1.306   2.867  13.758 -0.2932  0.1236  0.1036
11391TIP3    H155588   1.379   2.901  13.809  0.4484  1.5263 -1.8385
11391TIP3    H255589   1.336   2.872  13.667 -2.1055 -1.0295 -0.5894
11392TIP3   OH255590   5.842   1.092   3.089  0.0270 -0.1809  0.2713
11392TIP3    H155591   5.879   1.179   3.077 -0.5613  0.0083 -0.1766
11392TIP3    H255592   5.793   1.075   3.009 -0.2979 -0.7086  0.5743
11393TIP3   OH255593   5.895   0.981   4.033  0.3972 -0.0707  0.7712
11393TIP3    H155594   5.830   0.974   4.103 -0.1157  1.3241  0.4534
11393TIP3    H255595   5.845   1.002   3.955  1.2610  1.5910  0.6353
11394TIP3   OH255596   1.072   3.195  14.831 -0.0389 -0.2324  0.4349
11394TIP3    H155597   1.151   3.210  14.883 -0.9952 -1.8547  2.4372
11394TIP3    H255598   1.007   3.255  14.867  0.7720  2.6133 -2.5752
11395TIP3   OH255599   6.154   3.159   4.502 -0.0476  0.4323 -0.4407
11395TIP3    H155600   6.168   3.238   4.554 -0.4738 -1.0938  2.0568
11395TIP3    H255601   6.241   3.120   4.494 -0.1994 -0.0488  0.2864
11396TIP3   OH255602   1.011   0.023  14.538  0.0492  0.2200 -0.5571
11396TIP3    H155603   1.062   0.091  14.494  0.2091  2.2079  2.5427
11396TIP3    H255604   1.076  -0.035  14.577 -0.0844 -0.7245 -1.7347
11397TIP3   OH255605   1.064   0.213   5.296 -0.1272 -0.3340  0.3786
11397TIP3    H155606   1.086   0.189   5.206 -0.1049  1.0749 -0.0066
11397TIP3    H255607   1.114   0.151   5.350  1.2015 -0.1128 -0.5561
11398TIP3   OH255608   3.673   3.048  13.037 -0.3121  0.4438 -0.0331
11398TIP3    H155609   3.757   3.033  12.993 -0.4396  1.8873 -0.7814
11398TIP3    H255610   3.678   2.996  13.117  1.2515  0.4407 -0.1299
11399TIP3   OH255611   0.787   3.849   5.486 -0.4139  0.8451  0.1919
11399TIP3    H155612   0.746   3.793   5.420  1.1250  0.0113 -0.0895
11399TIP3    H255613   0.804   3.791   5.560 -0.1171  1.2650  0.4590
11400TIP3   OH255614   0.596   5.985  13.012 -0.9573  0.0316  0.0539
11400TIP3    H155615   0.689   5.991  12.990 -1.1320  1.1674 -0.4162
11400TIP3    H255616   0.590   6.019  13.102 -0.8960 -0.1799  0.1376
11401TIP3   OH255617   5.545   4.060   0.537  0.4858  0.2143 -0.1937
11401TIP3    H155618   5.606   4.086   0.605  0.8788  2.8700 -1.4937
11401TIP3    H255619   5.577   3.976   0.506  0.9562 -0.4617  2.0846
11402TIP3   OH255620   0.090   3.258  16.422 -0.2830  0.3023 -0.2468
11402TIP3    H155621   0.117   3.206  16.499 -0.1734 -0.7162 -0.9602
11402TIP3    H255622   0.033   3.326  16.458 -0.0647 -0.0404  0.7674
11403TIP3   OH255623   3.391   1.013   3.940  0.1216  0.3514 -0.1822
11403TIP3    H155624   3.391   0.950   4.012  1.1564 -0.7139 -1.1019
11403TIP3    H255625   3.477   1.055   3.946  0.3210  0.0507 -0.9863
11404TIP3   OH255626   3.293   0.083  15.612 -0.1945  0.0218  0.1941
11404TIP3    H155627   3.228   0.137  15.658 -0.6765  0.1823 -0.6653
11404TIP3    H255628   3.361   0.068  15.677  0.1224  1.9901  0.3492
11405TIP3   OH255629   0.164   6.674   1.586  0.2964 -0.3572  0.4419
11405TIP3    H155630   0.148   6.768   1.572  0.7688 -0.2874  0.3775
11405TIP3    H255631   0.156   6.635   1.499 -4.0614 -1.0019  1.0162
11406TIP3   OH255632   0.898   2.642  14.703 -0.1475  0.6556 -0.0480
11406TIP3    H155633   0.825   2.694  14.669  0.0183  0.4872 -0.6656
11406TIP3    H255634   0.857   2.563  14.737 -0.3226  0.8667  0.2436
11407TIP3   OH255635   3.937   3.982  11.735 -0.3327  0.1546  0.4057
11407TIP3    H155636   4.015   4.029  11.705 -1.9827  1.9859 -1.1046
11407TIP3    H255637   3.931   4.005  11.828 -0.0916  1.5180  0.1069
11408TIP3   OH255638   1.679   1.960   2.461 -0.3820 -0.4253 -0.5517
11408TIP3    H155639   1.663   1.977   2.368 -1.1305 -0.7863 -0.4976
11408TIP3    H255640   1.743   1.889   2.462  1.4559  1.1793 -0.7785
11409TIP3   OH255641   5.574   6.526   5.715 -0.4502  0.3913 -0.2195
11409TIP3    H155642   5.589   6.537   5.621  0.1454  0.5727 -0.1039
11409TIP3    H255643   5.653   6.560   5.756  0.1420 -1.5114  0.2687
11410TIP3   OH255644   5.455   4.790   2.837  0.8426 -0.0996  0.0081
11410TIP3    H155645   5.538   4.794   2.789  0.7846  0.5341 -0.0395
11410TIP3    H255646   5.391   4.833   2.780  0.2348 -1.5844 -0.4552
11411TIP3   OH255647   3.652   4.541  13.473 -0.1246 -0.2787 -0.2791
11411TIP3    H155648   3.618   4.617  13.520  1.9495  0.6310 -0.2023
11411TIP3    H255649   3.574   4.487  13.456 -1.9414  2.7383 -2.0448
11412TIP3   OH255650   5.048   4.132  13.324 -0.1585 -0.0178  0.1681
11412TIP3    H155651   5.111   4.203  13.314 -0.4490  0.1817 -0.2774
11412TIP3    H255652   5.099   4.052  13.313 -0.2204  0.1722 -1.5241
11413TIP3   OH255653   1.365   3.712  11.378  0.4604  0.3127  0.5069
11413TIP3    H155654   1.316   3.727  11.297 -0.2779 -0.3181  0.8357
11413TIP3    H255655   1.453   3.746  11.359 -0.0946  1.4340 -0.0781
11414TIP3   OH255656   6.289   6.316  12.578  0.5426 -0.0803  0.9508
11414TIP3    H155657   6.299   6.226  12.611 -1.2884 -0.2799  1.0147
11414TIP3    H255658   6.239   6.361  12.646 -0.5998  0.3324 -0.1398
11415TIP3   OH255659   2.383   0.759  12.191 -0.0131 -0.0445 -0.6589
11415TIP3    H155660   2.357   0.694  12.126  0.7276 -1.0321  0.0224
11415TIP3    H255661   2.307   0.766  12.250 -1.1567  1.7214 -2.2596
11416TIP3   OH255662   3.786   5.275  12.903 -0.2051  0.3789  0.2061
11416TIP3    H155663   3.713   5.284  12.843  1.7425  0.0681 -2.2991
11416TIP3    H255664   3.754   5.311  12.986 -3.8588 -1.6500 -0.2153
11417TIP3   OH255665   3.261   1.380  16.730 -0.5518 -0.0419  0.2781
11417TIP3    H155666   3.307   1.334  16.801  0.1904 -0.7186 -0.6222
11417TIP3    H255667   3.191   1.428  16.774 -0.6150 -1.1135  1.3713
11418TIP3   OH255668   1.750   1.122   4.148  0.2401 -0.4940  0.1839
11418TIP3    H155669   1.763   1.215   4.129 -1.4883 -0.1993  0.4206
11418TIP3    H255670   1.839   1.086   4.148  0.9229  1.1216 -0.0425
11419TIP3   OH255671   3.357   4.298   2.879  0.0596 -0.1815 -0.2996
11419TIP3    H155672   3.274   4.285   2.925  0.9721  0.7345  1.6629
11419TIP3    H255673   3.407   4.218   2.897  0.7246  0.5139  1.0035
11420TIP3   OH255674   1.317   2.677  12.800  0.3582  0.0935  0.2080
11420TIP3    H155675   1.300   2.614  12.731 -0.3431 -0.9418  1.3127
11420TIP3    H255676   1.352   2.625  12.872  2.0572  1.3001  0.2775
11421TIP3   OH255677   0.778   4.514   1.791  0.1004 -0.3092  0.4019
11421TIP3    H155678   0.718   4.545   1.723  1.3774  0.2244 -0.5111
11421TIP3    H255679   0.844   4.464   1.743  1.4420  0.7063  1.1679
11422TIP3   OH255680   5.355   0.090   3.929 -0.4417  0.2084  0.4068
11422TIP3    H155681   5.266   0.060   3.945 -0.6214  0.8254  0.5720
11422TIP3    H255682   5.345   0.178   3.892  0.0050 -0.6654 -1.9354
11423TIP3   OH255683   0.970   4.731  16.318  0.0399 -0.2669 -0.4186
11423TIP3    H155684   1.055   4.693  16.296 -0.3180 -1.4002  0.1425
11423TIP3    H255685   0.906   4.667  16.288 -0.6040  0.3868 -0.4433
11424TIP3   OH255686   1.532   4.367  15.279  0.1485  0.0165  0.2643
11424TIP3    H155687   1.474   4.307  15.232 -0.3163 -0.0274  0.8855
11424TIP3    H255688   1.594   4.397  15.213  0.0373 -0.7160 -0.1778
11425TIP3   OH255689   0.158   3.428   1.462 -0.2007 -0.1238 -0.3051
11425TIP3    H155690   0.129   3.457   1.549 -0.4150 -3.4701  0.8140
11425TIP3    H255691   0.077   3.417   1.412 -0.1616  0.6143 -0.5285
11426TIP3   OH255692   0.439   3.568  16.142  0.0358  0.3006 -0.2019
11426TIP3    H155693   0.380   3.530  16.208  0.0030 -0.8327 -0.8755
11426TIP3    H255694   0.387   3.570  16.062  0.7158 -0.1693 -0.6620
11427TIP3   OH255695   6.315   1.420  13.575 -0.0421 -0.3837  0.6695
11427TIP3    H155696   6.303   1.514  13.563 -0.8999 -0.5882 -0.0677
11427TIP3    H255697   6.399   1.401  13.534  0.3741  0.1438  1.2679
11428TIP3   OH255698   3.200   4.107  14.481  0.6261  0.0769 -0.3094
11428TIP3    H155699   3.193   4.094  14.386  1.0478 -0.0714 -0.3208
11428TIP3    H255700   3.149   4.186  14.498 -0.7634 -0.7783 -0.4442
11429TIP3   OH255701   2.544   6.454   5.079 -0.0658 -0.0479 -0.4024
11429TIP3    H155702   2.529   6.489   4.991  0.7889  1.5302  0.0588
11429TIP3    H255703   2.632   6.485   5.102 -0.7698  0.6097  1.4982
11430TIP3   OH255704   1.046   4.494  13.439  0.4438  0.1501  0.1242
11430TIP3    H155705   0.983   4.499  13.367  0.9357  0.7750 -0.2732
11430TIP3    H255706   1.106   4.424  13.415  2.0313  1.9471 -1.2470
11431TIP3   OH255707   5.149   6.355   1.013  0.5110  0.1376  0.3430
11431TIP3    H155708   5.178   6.433   1.060 -0.0766  0.2619  0.5000
11431TIP3    H255709   5.220   6.337   0.951 -0.3687  2.1622 -1.3332
11432TIP3   OH255710   3.250   5.080  15.290  0.0649 -0.1409 -0.1158
11432TIP3    H155711   3.301   5.119  15.362 -1.3687 -0.0429  0.8596
11432TIP3    H255712   3.260   5.143  15.218 -0.7096  1.1351  0.8612
11433TIP3   OH255713   5.136   6.731  16.519 -0.5674  0.4266 -0.4958
11433TIP3    H155714   5.074   6.701  16.453  0.1804  1.0480 -1.4807
11433TIP3    H255715   5.206   6.666  16.517 -1.2075 -0.3311  0.6885
11434TIP3   OH255716   1.429   2.930   4.944  0.5525 -0.1003  0.4573
11434TIP3    H155717   1.418   2.969   4.857  0.4882  1.5265  1.1783
11434TIP3    H255718   1.507   2.973   4.980  0.0428 -0.0667  1.5579
11435TIP3   OH255719   4.051   2.717  12.701  0.0449  0.0014  0.3462
11435TIP3    H155720   4.069   2.804  12.735  0.9547 -0.2694  0.5520
11435TIP3    H255721   3.959   2.721  12.674  0.4823  1.4756 -1.0004
11436TIP3   OH255722   3.404   0.531   2.672 -0.0515 -0.3197  0.2160
11436TIP3    H155723   3.412   0.619   2.634  1.7196  0.5611  2.5309
11436TIP3    H255724   3.312   0.523   2.695 -0.4390  0.5017 -1.0182
11437TIP3   OH255725   1.854   6.202  14.252  0.2075 -0.2158  0.0033
11437TIP3    H155726   1.827   6.167  14.167 -0.3574 -0.3209  0.2232
11437TIP3    H255727   1.803   6.152  14.316  1.7288 -1.1996  0.5002
11438TIP3   OH255728   0.776   1.960  15.937 -0.3602  0.1161  0.1666
11438TIP3    H155729   0.780   1.887  15.875  1.4642 -0.4975  0.9804
11438TIP3    H255730   0.827   1.931  16.012 -0.6081  1.7711  0.9979
11439TIP3   OH255731   5.660   0.295   3.574  0.2388  0.3487 -0.2170
11439TIP3    H155732   5.625   0.257   3.654  1.4841 -0.1447  0.1088
11439TIP3    H255733   5.631   0.386   3.575 -0.2541  0.1841  0.4909
11440TIP3   OH255734   6.624   4.431   3.868 -0.4791 -0.1733 -0.1005
11440TIP3    H155735   6.546   4.455   3.919 -0.1396 -0.7287  0.6785
11440TIP3    H255736   6.603   4.346   3.830 -1.7000  1.2905 -2.9057
11441TIP3   OH255737   3.091   0.567  17.185 -0.9068  0.3449 -0.4484
11441TIP3    H155738   3.034   0.525  17.249 -1.4066 -1.0167 -1.7582
11441TIP3    H255739   3.031   0.610  17.124 -0.4387  1.4817 -0.1202
11442TIP3   OH255740   3.125   2.669  11.616 -0.4844  0.1539  0.2104
11442TIP3    H155741   3.041   2.683  11.659 -1.0250  0.7172 -0.9807
11442TIP3    H255742   3.168   2.601  11.667 -1.8174 -0.3887  0.6200
11443TIP3   OH255743   4.877   2.371  11.887 -0.1466  0.1576  0.0288
11443TIP3    H155744   4.855   2.279  11.903  0.6785 -0.0150  0.2244
11443TIP3    H255745   4.959   2.367  11.837 -1.6874  0.7194 -2.6323
11444TIP3   OH255746   3.138   0.842   1.020 -0.0941  0.6374 -0.6654
11444TIP3    H155747   3.170   0.931   1.032  1.4990 -0.1691  1.4048
11444TIP3    H255748   3.214   0.786   1.040 -2.0042 -1.2607  1.5955
11445TIP3   OH255749   4.496   1.488   4.943 -0.0621 -0.1883  0.0450
11445TIP3    H155750   4.465   1.576   4.963 -0.1913 -0.2094 -0.0619
11445TIP3    H255751   4.579   1.501   4.898 -1.0270 -0.0519 -1.7335
11446TIP3   OH255752   4.631   2.012  12.321 -0.3685  0.1754  0.3744
11446TIP3    H155753   4.702   2.067  12.289 -1.2933  1.0122 -0.2634
11446TIP3    H255754   4.665   1.923  12.315 -0.6199  0.2353 -3.3397
11447TIP3   OH255755   4.403   2.516  12.947 -0.0047  0.4892 -0.5340
11447TIP3    H155756   4.466   2.457  12.907 -0.6402  0.9336 -2.2357
11447TIP3    H255757   4.318   2.478  12.925 -0.3735  0.9298  0.1114
11448TIP3   OH255758   5.929   6.041  11.122 -0.0282 -0.0347 -0.5541
11448TIP3    H155759   6.022   6.037  11.097  0.6471  1.8650  1.4715
11448TIP3    H255760   5.919   6.128  11.161 -1.9258 -1.4142  2.1259
11449TIP3   OH255761   5.520   1.728   3.409 -0.2023 -0.3458 -0.1725
11449TIP3    H155762   5.518   1.804   3.468  1.0025  0.1432 -0.7414
11449TIP3    H255763   5.555   1.657   3.463 -0.1273 -0.1787  0.0008
11450TIP3   OH255764   2.373   1.097  15.877  0.0878  0.1697  0.0213
11450TIP3    H155765   2.377   1.120  15.970 -0.5427  1.0823 -0.1764
11450TIP3    H255766   2.456   1.131  15.841  0.3951 -0.3072  0.2718
11451TIP3   OH255767   5.486   4.518   1.060 -0.1638  0.1983 -0.2507
11451TIP3    H155768   5.553   4.459   1.026 -1.0526 -0.5230 -0.7959
11451TIP3    H255769   5.513   4.605   1.030 -0.5941 -0.3457 -2.3245
11452TIP3   OH255770   2.020   2.478   2.321 -0.0939 -0.2249  0.2371
11452TIP3    H155771   2.001   2.392   2.284  0.0826 -0.9469  1.7745
11452TIP3    H255772   2.109   2.470   2.355 -0.4478  0.2161  1.3080
11453TIP3   OH255773   6.579   1.441  13.426 -0.2399 -0.0707 -0.7001
11453TIP3    H155774   6.546   1.441  13.336  0.6271 -0.2153 -1.0250
11453TIP3    H255775   6.673   1.423  13.417  0.2953  2.1936  0.0788
11454TIP3   OH255776   5.996   1.832  11.178  0.3964 -0.2834  0.2658
11454TIP3    H155777   5.949   1.850  11.096 -1.0302 -0.4773  1.0271
11454TIP3    H255778   5.980   1.910  11.231 -0.5121 -1.0857  1.1828
11455TIP3   OH255779   5.163   2.628  13.906  0.4155 -0.5243 -0.3527
11455TIP3    H155780   5.214   2.708  13.893  1.6647 -1.4324 -1.1519
11455TIP3    H255781   5.228   2.562  13.928 -0.2040 -2.0589 -2.9392
11456TIP3   OH255782   5.772   3.261  14.029 -0.0883 -0.1941  0.3095
11456TIP3    H155783   5.716   3.212  13.969 -0.3231  1.4063 -0.8244
11456TIP3    H255784   5.711   3.310  14.085  0.1550 -0.4549  0.8118
11457TIP3   OH255785   2.912   0.091   2.011 -0.2792 -0.6034  0.4426
11457TIP3    H155786   3.007   0.080   2.010 -0.2689 -0.9533  2.6086
11457TIP3    H255787   2.899   0.184   2.029 -0.3444 -0.5874  0.3135
11458TIP3   OH255788   1.468   0.089  14.219 -0.2810  0.7303 -0.5874
11458TIP3    H155789   1.516   0.006  14.214 -2.6504 -0.6875 -0.5378
11458TIP3    H255790   1.468   0.122  14.130 -0.8181 -0.2207 -0.9539
11459TIP3   OH255791   0.882   1.922  17.124  0.6093  0.3497 -0.7522
11459TIP3    H155792   0.894   1.831  17.095  0.0642 -0.2377  0.8390
11459TIP3    H255793   0.925   1.926  17.209  0.3845  1.5113 -0.6951
11460TIP3   OH255794   4.353   6.621  15.299 -0.5319 -0.2478 -0.3522
11460TIP3    H155795   4.432   6.621  15.245 -0.2746 -0.3204  0.0224
11460TIP3    H255796   4.281   6.623  15.236 -0.2223  0.4521 -0.6851
11461TIP3   OH255797   0.412   5.177  15.572 -0.4213 -0.6051 -0.0503
11461TIP3    H155798   0.354   5.136  15.508  0.5638  0.0935 -1.4299
11461TIP3    H255799   0.376   5.265  15.583 -0.3107 -0.5640 -0.0158
11462TIP3   OH255800   1.458   0.274   2.138 -0.0876  0.0349  0.0936
11462TIP3    H155801   1.446   0.292   2.232  2.4102  1.2161  0.2449
11462TIP3    H255802   1.531   0.212   2.135  0.5468  0.8100 -1.0929
11463TIP3   OH255803   2.700   3.076  12.237 -0.0524 -0.1034 -0.2178
11463TIP3    H155804   2.637   3.053  12.305 -1.1172  0.1261 -1.0975
11463TIP3    H255805   2.782   3.036  12.265 -0.1769  1.0399  1.7953
11464TIP3   OH255806   6.178   3.602   3.697  0.3052  0.0388  0.3929
11464TIP3    H155807   6.117   3.554   3.752  0.0339  1.0615  1.0012
11464TIP3    H255808   6.216   3.668   3.755  0.9298  0.3282 -0.3356
11465TIP3   OH255809   2.712   2.551  10.706  0.1344 -0.1580 -0.0796
11465TIP3    H155810   2.674   2.469  10.737 -0.8907  1.4527  3.1095
11465TIP3    H255811   2.806   2.543  10.726 -0.1729 -0.0416  1.4844
11466TIP3   OH255812   1.521   5.770   4.776  0.0385 -0.1060  0.3293
11466TIP3    H155813   1.495   5.774   4.868  1.5772 -1.4127  0.8584
11466TIP3    H255814   1.610   5.804   4.775  0.0049 -0.0404 -0.6809
11467TIP3   OH255815   3.928   1.150  13.751  0.2488  0.5510  0.2797
11467TIP3    H155816   3.873   1.074  13.736  0.0082  0.7325  0.2412
11467TIP3    H255817   3.989   1.150  13.677  1.1292 -0.3746  0.9952
11468TIP3   OH255818   0.319   4.211  15.026 -0.1970  0.1168  0.4014
11468TIP3    H155819   0.387   4.161  14.982  0.2800  0.1148  1.1404
11468TIP3    H255820   0.364   4.286  15.064 -0.6898  0.4086  0.4219
11469TIP3   OH255821   4.279   3.490  15.490  0.0436 -0.2903 -0.2224
11469TIP3    H155822   4.288   3.538  15.407 -0.0481 -1.3622 -0.8505
11469TIP3    H255823   4.351   3.428  15.489  0.8539  0.6075  1.1352
11470TIP3   OH255824   3.312   2.893   0.257  0.5691  0.2232  0.5074
11470TIP3    H155825   3.270   2.850   0.332  0.0150 -1.2795 -0.6423
11470TIP3    H255826   3.254   2.965   0.234 -0.6570 -0.9672 -0.1680
11471TIP3   OH255827   4.442   6.436   4.586 -0.0476  0.5766 -0.0712
11471TIP3    H155828   4.457   6.528   4.564 -1.1729  0.7527 -0.1065
11471TIP3    H255829   4.349   6.422   4.571  0.0730 -0.5193  0.1369
11472TIP3   OH255830   4.610   4.735  13.666  0.0361 -0.4553  0.3155
11472TIP3    H155831   4.689   4.778  13.699 -0.9835  1.5861  0.1713
11472TIP3    H255832   4.635   4.701  13.580  1.3172 -1.6003  1.1158
11473TIP3   OH255833   5.326   5.722  12.123  0.0768  0.1065  0.6560
11473TIP3    H155834   5.371   5.685  12.047  0.5112 -0.0480  0.9860
11473TIP3    H255835   5.395   5.736  12.188 -0.2677  0.3876  0.9652
11474TIP3   OH255836   3.786   6.500  15.356 -0.3003  0.0071 -0.0652
11474TIP3    H155837   3.846   6.435  15.321 -0.1309  0.4676 -0.6544
11474TIP3    H255838   3.765   6.469  15.444  2.6377  1.0158  1.0762
11475TIP3   OH255839   6.749   3.297   0.069 -0.1232  0.4802 -0.2644
11475TIP3    H155840   6.735   3.204   0.085 -2.5466  0.9607  0.5950
11475TIP3    H255841   6.765   3.335   0.156 -0.1766  1.0191 -0.4843
11476TIP3   OH255842   1.494   4.146   0.085  0.6277  0.4288 -0.1737
11476TIP3    H155843   1.430   4.075   0.089  1.3310 -0.3413 -2.2435
11476TIP3    H255844   1.520   4.159   0.176  0.3588 -1.8529  0.2568
11477TIP3   OH255845   2.032   3.958   0.143 -0.3190  0.0114 -0.4527
11477TIP3    H155846   2.006   3.868   0.122 -0.4708  0.1206 -0.7288
11477TIP3    H255847   1.986   3.977   0.224  0.7925 -0.6485  0.3481
11478TIP3   OH255848   2.690   0.857  13.210 -0.1651  0.5692  0.5921
11478TIP3    H155849   2.620   0.911  13.173 -0.8844 -0.1712  0.8379
11478TIP3    H255850   2.729   0.813  13.134 -1.0913 -0.3095  0.6063
11479TIP3   OH255851   6.746   4.117   0.014 -0.0623 -0.1849  0.1426
11479TIP3    H155852   6.762   4.155  -0.072  0.6771 -2.6240 -0.8470
11479TIP3    H255853   6.809   4.159   0.072  1.2654 -0.4715 -1.0891
11480TIP3   OH255854   3.041   5.735  16.287 -0.3297  0.2914  0.6862
11480TIP3    H155855   2.982   5.673  16.244 -0.0962 -0.0365  0.8375
11480TIP3    H255856   3.029   5.817  16.239 -0.5802  0.1072  0.4330
11481TIP3   OH255857   6.591   6.243   6.607  0.3726 -0.4187 -0.1194
11481TIP3    H155858   6.579   6.154   6.574  2.4624 -0.1547 -1.7042
11481TIP3    H255859   6.507   6.286   6.592 -0.4718 -1.9407  0.1074
11482TIP3   OH255860   1.443   4.691   2.728  0.0958 -0.0876 -0.4337
11482TIP3    H155861   1.404   4.699   2.815  0.3900 -1.5319 -0.1552
11482TIP3    H255862   1.528   4.735   2.736 -0.2062  0.4619 -0.2126
11483TIP3   OH255863   6.056   3.337   5.740 -0.5365  0.1423 -0.0793
11483TIP3    H155864   6.115   3.286   5.684  0.3220 -0.3626  1.2448
11483TIP3    H255865   6.084   3.428   5.728  0.2011 -0.0469  0.1574
11484TIP3   OH255866   0.487   1.293   5.696 -0.4712  0.3539 -0.4601
11484TIP3    H155867   0.500   1.202   5.720 -3.1131  0.2584  0.7106
11484TIP3    H255868   0.448   1.291   5.609  0.2644  0.4305 -0.8037
11485TIP3   OH255869   5.453   3.255   0.850  0.2113  0.2886 -0.3729
11485TIP3    H155870   5.549   3.250   0.853  0.2995  1.6770 -0.4951
11485TIP3    H255871   5.424   3.164   0.853  1.5124 -0.1145  0.5059
11486TIP3   OH255872   3.222   4.927   3.761 -0.1048  0.3807 -1.0801
11486TIP3    H155873   3.176   4.965   3.686 -1.4792  1.4183  0.2572
11486TIP3    H255874   3.264   5.002   3.804  2.0281 -0.4207 -1.7037
11487TIP3   OH255875   4.052   6.674  11.202 -0.4558 -0.2758  0.3231
11487TIP3    H155876   4.130   6.693  11.150 -0.2738 -1.5903  0.0899
11487TIP3    H255877   3.980   6.712  11.151 -0.1474 -0.5182 -0.2986
11488TIP3   OH255878   0.884   0.214  17.009  0.3514  0.2118  0.0280
11488TIP3    H155879   0.843   0.136  17.046  1.7800 -1.2691 -1.4472
11488TIP3    H255880   0.812   0.260  16.966 -0.1659 -1.3620 -0.8486
11489TIP3   OH255881   2.117   0.792  15.817 -0.2465  0.0278 -0.1758
11489TIP3    H155882   2.033   0.777  15.861 -0.4097 -0.6773 -0.7335
11489TIP3    H255883   2.180   0.799  15.889 -0.6177 -0.4922  0.2069
11490TIP3   OH255884   5.454   5.937   4.355 -0.4394  0.5697 -0.2273
11490TIP3    H155885   5.386   5.959   4.290  0.5066  0.4203 -1.2847
11490TIP3    H255886   5.536   5.958   4.311  0.2022  1.0056  1.1487
11491TIP3   OH255887   0.376   0.418  16.590 -0.7510  0.0465  0.1782
11491TIP3    H155888   0.444   0.418  16.658  0.0776  0.7828 -0.6493
11491TIP3    H255889   0.417   0.376  16.515 -1.0892  0.8221 -0.4491
11492TIP3   OH255890   3.316   2.065   2.141  0.5607 -0.4592 -0.8346
11492TIP3    H155891   3.328   2.064   2.236 -1.1969  1.5223 -0.5579
11492TIP3    H255892   3.399   2.099   2.107  0.2979  1.2907  0.1968
11493TIP3   OH255893   3.775   2.402  11.796  0.4666 -0.1881  0.1190
11493TIP3    H155894   3.683   2.414  11.818 -0.2432 -2.2564 -1.5727
11493TIP3    H255895   3.801   2.485  11.755 -0.8961  0.0844 -0.2113
11494TIP3   OH255896   4.606   3.958   6.196 -0.0880  0.0105 -0.0133
11494TIP3    H155897   4.549   3.906   6.252  0.5954 -0.2205  0.4851
11494TIP3    H255898   4.617   4.041   6.243 -1.5284  0.7881 -1.0156
11495TIP3   OH255899   5.458   2.463   1.864 -0.1127  0.1997 -0.3679
11495TIP3    H155900   5.465   2.371   1.891 -0.7237  0.1301 -0.4224
11495TIP3    H255901   5.433   2.509   1.944  0.9752  0.4424 -0.1624
11496TIP3   OH255902   5.805   0.790   4.265 -0.5890  0.2674  0.6810
11496TIP3    H155903   5.735   0.798   4.330  1.7121 -2.3097  3.6322
11496TIP3    H255904   5.802   0.698   4.239  0.3050  0.6424 -0.7819
11497TIP3   OH255905   0.560   4.159   3.235 -0.9880 -0.6676  0.3763
11497TIP3    H155906   0.565   4.253   3.250 -3.4572 -0.8866  2.8668
11497TIP3    H255907   0.637   4.124   3.279 -1.0480  0.0326  1.0602
11498TIP3   OH255908   6.048   4.476   2.934  0.2559 -0.1843 -0.4746
11498TIP3    H155909   6.101   4.417   2.988 -2.6843 -1.1146  1.5009
11498TIP3    H255910   6.055   4.561   2.977  1.4909  0.0992 -1.2054
11499TIP3   OH255911   2.709   1.588  13.828 -0.0866 -0.0853  0.3307
11499TIP3    H155912   2.694   1.646  13.753 -1.6909  0.0765  0.7667
11499TIP3    H255913   2.797   1.554  13.814  1.1076  2.8676  0.3234
11500TIP3   OH255914   4.332   4.840  12.206 -0.9197 -0.0786 -0.3582
11500TIP3    H155915   4.406   4.809  12.258 -2.8456 -2.7408  0.9394
11500TIP3    H255916   4.276   4.886  12.269 -1.1959  0.4013 -0.9526
11501TIP3   OH255917   3.975   5.730  15.055 -0.0647  0.1918  0.7880
11501TIP3    H155918   3.942   5.703  14.969  0.6565 -0.2201  0.6399
11501TIP3    H255919   4.031   5.658  15.084 -0.5648  0.1766  1.7571
11502TIP3   OH255920   1.383   1.587   7.080 -0.3438 -0.0011 -0.2569
11502TIP3    H155921   1.308   1.610   7.025 -1.3939 -0.4493  0.9845
11502TIP3    H255922   1.346   1.540   7.154  1.1380  0.0344  0.5310
11503TIP3   OH255923   3.916   4.909  16.084 -0.1195  0.2666  0.0056
11503TIP3    H155924   3.882   4.923  16.173  0.7568 -2.2210  0.7889
11503TIP3    H255925   3.840   4.921  16.027 -0.5117  2.7275  1.0067
11504TIP3   OH255926   5.373   6.459   3.618 -0.0889  0.0265  0.1059
11504TIP3    H155927   5.411   6.418   3.695  1.8337  1.2781 -0.1294
11504TIP3    H255928   5.390   6.397   3.547  0.0121 -0.1826  0.3121
11505TIP3   OH255929   5.665   6.756  12.506  0.3420 -0.2023 -0.6186
11505TIP3    H155930   5.632   6.720  12.424  0.2907 -2.7472  0.4915
11505TIP3    H255931   5.590   6.804  12.543 -0.8031 -2.2458 -0.2405
11506TIP3   OH255932   1.903   6.118   0.011  0.6815 -0.0648 -0.4209
11506TIP3    H155933   1.915   6.023   0.012 -0.8336 -0.2505  0.5667
11506TIP3    H255934   1.980   6.152   0.057 -0.0687 -0.9796  1.5697
11507TIP3   OH255935   5.649   5.451  14.855  0.8345 -0.0750 -0.2903
11507TIP3    H155936   5.720   5.513  14.874  2.4859 -1.8922 -0.4039
11507TIP3    H255937   5.649   5.442  14.760  1.6421 -1.3910 -0.1890
11508TIP3   OH255938   2.309   5.977  13.906  0.0051 -0.0550  0.1173
11508TIP3    H155939   2.398   6.012  13.899 -0.3694  0.7206 -0.7869
11508TIP3    H255940   2.293   5.972  14.000  0.4976  1.0845  0.2663
11509TIP3   OH255941   4.727   4.565  12.501 -0.0102  0.3323  0.4296
11509TIP3    H155942   4.791   4.525  12.442 -2.8067 -0.8395 -1.9191
11509TIP3    H255943   4.675   4.491  12.532 -1.8790  1.5378  0.2335
11510TIP3   OH255944   0.070   3.931   2.210 -0.4228 -0.7707 -0.1383
11510TIP3    H155945   0.064   3.955   2.302  0.4383 -0.5528 -0.1341
11510TIP3    H255946   0.016   3.996   2.165  0.3317  0.0049  0.0687
11511TIP3   OH255947   5.022   0.974  12.355  0.1926  0.3185 -0.1552
11511TIP3    H155948   4.960   0.931  12.297 -0.5979 -1.7670  2.1270
11511TIP3    H255949   5.012   1.068  12.337 -1.9158 -0.1400 -1.4871
11512TIP3   OH255950   2.726   0.329  11.592  0.0686  0.0089 -0.6377
11512TIP3    H155951   2.645   0.351  11.546  0.9849 -0.1343 -2.3876
11512TIP3    H255952   2.704   0.252  11.645 -0.8479 -0.2533 -1.3863
11513TIP3   OH255953   0.159   1.290   4.211  0.2927  0.2366  0.2111
11513TIP3    H155954   0.212   1.333   4.143 -0.7086 -0.9729 -1.3799
11513TIP3    H255955   0.223   1.245   4.266  0.9956 -1.0039 -1.5452
11514TIP3   OH255956   4.012   6.489  10.638 -0.4140 -0.3101 -0.1554
11514TIP3    H155957   4.071   6.539  10.580 -0.3266  1.1216  1.1342
11514TIP3    H255958   4.051   6.498  10.725 -0.2149 -2.9474  0.0671
11515TIP3   OH255959   3.820   4.391   5.742  0.2088  0.4991 -0.1737
11515TIP3    H155960   3.785   4.345   5.818  0.4876  0.6927  0.0764
11515TIP3    H255961   3.834   4.480   5.773 -0.8845  0.9061 -0.8237
11516TIP3   OH255962   3.693   2.705  15.024 -0.2502 -0.4109  0.6472
11516TIP3    H155963   3.636   2.651  14.970  0.4360 -1.3257  0.8184
11516TIP3    H255964   3.688   2.666  15.112 -1.3496  1.0589  1.2467
11517TIP3   OH255965   0.009   4.350  16.371  0.0053  0.3522  0.1839
11517TIP3    H155966  -0.055   4.287  16.338  1.4570 -0.1649 -1.7697
11517TIP3    H255967  -0.037   4.397  16.441 -1.3341 -2.3861  1.2259
11518TIP3   OH255968   5.071   1.412   4.596  0.4968 -1.0358  0.0451
11518TIP3    H155969   5.094   1.326   4.560 -0.0643 -0.8070 -0.8772
11518TIP3    H255970   4.975   1.413   4.595  0.4956 -0.6158  0.5763
11519TIP3   OH255971   0.004   0.236   4.974 -0.1996 -0.1337 -0.0280
11519TIP3    H155972   0.097   0.215   4.968 -0.2341  0.0455 -1.4078
11519TIP3    H255973  -0.025   0.196   5.056  1.5911  1.7778  1.6040
11520TIP3   OH255974   6.660   6.278   4.485  0.2509  0.3823  0.0808
11520TIP3    H155975   6.754   6.276   4.504  0.8934 -0.8884 -2.9532
11520TIP3    H255976   6.648   6.357   4.432 -0.5296  0.8895  0.9918
11521TIP3   OH255977   1.468   3.708   4.686  0.0998 -0.2469  0.1938
11521TIP3    H155978   1.406   3.719   4.758 -0.6870  0.5767 -0.5922
11521TIP3    H255979   1.510   3.794   4.677 -0.7788  0.0529 -1.1929
11522TIP3   OH255980   5.081   1.632  14.852  0.1272  0.0740 -0.4882
11522TIP3    H155981   5.076   1.662  14.761 -2.3598 -1.2931 -0.8434
11522TIP3    H255982   5.160   1.579  14.855  0.8760  1.0982 -1.5499
11523TIP3   OH255983   0.214   2.798  15.565 -0.0415 -0.0984  0.1257
11523TIP3    H155984   0.220   2.838  15.478  1.2401  0.5698  0.5111
11523TIP3    H255985   0.161   2.860  15.615 -0.5044 -0.3224 -0.0824
11524TIP3   OH255986   2.010   3.157   0.023  0.3638  0.1762  0.4262
11524TIP3    H155987   1.976   3.150   0.113  0.5126  0.2151  0.4857
11524TIP3    H255988   2.049   3.245   0.019  2.5246 -0.7171  1.0722
11525TIP3   OH255989   3.250   0.548   1.298 -0.6268 -0.4552 -0.0286
11525TIP3    H155990   3.301   0.601   1.360  1.6197 -2.9747  0.3317
11525TIP3    H255991   3.167   0.532   1.343 -1.0712  2.1126  0.1499
11526TIP3   OH255992   0.472   4.979  17.097  0.0172 -0.3889 -0.0451
11526TIP3    H155993   0.520   4.918  17.041  0.6612  0.5612 -0.5362
11526TIP3    H255994   0.528   4.992  17.173 -1.1281 -2.1542  1.1405
11527TIP3   OH255995   4.223   1.863  12.915 -0.1873  0.1123  0.2862
11527TIP3    H155996   4.228   1.794  12.849 -1.6150 -0.2812  0.5661
11527TIP3    H255997   4.312   1.871  12.949  0.3722 -0.2771 -1.0797
11528TIP3   OH255998   2.079   6.607   0.025  0.3219 -0.1803 -0.1173
11528TIP3    H155999   2.151   6.604   0.087  0.0232  0.6616  0.2807
11528TIP3    H256000   2.104   6.676  -0.037 -0.1419  0.1285  0.0325
11529TIP3   OH256001   5.483   1.464   1.250  0.1864 -0.1286  0.0098
11529TIP3    H156002   5.451   1.498   1.166  0.7705  1.8663  0.5834
11529TIP3    H256003   5.577   1.456   1.238  0.6370  2.6515  1.2918
11530TIP3   OH256004   5.757   4.650  12.783 -0.2530 -0.4587  0.2630
11530TIP3    H156005   5.719   4.575  12.827 -0.8587 -0.2524  0.1046
11530TIP3    H256006   5.704   4.725  12.813  0.6829 -0.0184  0.8366
11531TIP3   OH256007   6.606   0.178   1.582  0.4410 -0.7309 -0.0074
11531TIP3    H156008   6.624   0.147   1.670  1.0462 -0.0472  0.1203
11531TIP3    H256009   6.526   0.230   1.590 -0.0232 -1.4455 -0.0380
11532TIP3   OH256010   1.285   0.424  16.577 -0.0755 -0.1182 -0.6795
11532TIP3    H156011   1.190   0.411  16.574  0.0552 -1.2491 -0.2841
11532TIP3    H256012   1.315   0.364  16.646  1.0615 -0.6820 -1.6466
11533TIP3   OH256013   3.445   5.527   2.678  0.2619 -0.2735 -0.0186
11533TIP3    H156014   3.492   5.444   2.686  2.2370  0.9062  1.1708
11533TIP3    H256015   3.514   5.591   2.657 -1.4192  0.8388 -2.3844
11534TIP3   OH256016   5.171   2.190  13.659  0.6160  0.4897 -0.1361
11534TIP3    H156017   5.114   2.113  13.659  0.8224  0.3171  1.2214
11534TIP3    H256018   5.249   2.162  13.707 -0.0758  2.0673  2.0292
11535TIP3   OH256019   3.072   3.736  15.463 -0.3740  0.1129  0.0622
11535TIP3    H156020   3.042   3.765  15.550 -0.3917 -0.6552  0.3184
11535TIP3    H256021   3.007   3.772  15.402 -1.4458 -0.9527  0.5531
11536TIP3   OH256022   3.906   5.809   5.350 -0.0211  0.3680 -0.5855
11536TIP3    H156023   3.881   5.719   5.373  0.3026  0.0822 -1.3217
11536TIP3    H256024   3.826   5.860   5.361  0.3138  0.4229  1.9920
11537TIP3   OH256025   0.352   2.864  17.094  0.1425 -0.1782 -0.2540
11537TIP3    H156026   0.324   2.778  17.063 -1.7303 -0.6088  2.4665
11537TIP3    H256027   0.430   2.847  17.146 -0.3295 -0.2902  0.4314
11538TIP3   OH256028   4.921   3.934  12.881 -0.0400  0.2820  0.4913
11538TIP3    H156029   4.930   3.852  12.833  0.3413  0.7330 -0.2288
11538TIP3    H256030   4.847   3.920  12.939  0.6715 -0.9301  1.1229
11539TIP3   OH256031   3.959   6.688  11.726 -0.2405 -0.3047  0.5054
11539TIP3    H156032   4.019   6.668  11.654 -0.1818 -1.4781  0.8776
11539TIP3    H256033   3.911   6.766  11.696  1.0987  0.3338 -0.0038
11540TIP3   OH256034   2.196   6.335   4.690  0.1116  0.0344 -0.4080
11540TIP3    H156035   2.136   6.272   4.730 -0.0281 -0.4905 -1.4414
11540TIP3    H256036   2.275   6.329   4.743 -0.3307 -0.1180  0.2474
11541TIP3   OH256037   2.422   3.412   2.706  0.1858 -0.4208  0.0384
11541TIP3    H156038   2.421   3.447   2.617  0.4457  0.2138  0.2807
11541TIP3    H256039   2.509   3.374   2.716  0.4418  0.2190  0.2878
11542TIP3   OH256040   4.150   5.508  16.509 -0.2001  0.4414  0.6658
11542TIP3    H156041   4.080   5.452  16.540  0.6812 -0.8339  0.3817
11542TIP3    H256042   4.216   5.505  16.577  0.1042  0.6674  0.3853
11543TIP3   OH256043   0.692   5.995  11.695 -0.0444  0.0257  0.7765
11543TIP3    H156044   0.688   5.980  11.601  0.5405  1.1065  0.5600
11543TIP3    H256045   0.603   5.980  11.726 -0.0287 -1.3225  0.2173
11544TIP3   OH256046   1.521   0.835   5.720  0.0443 -0.2103  0.0217
11544TIP3    H156047   1.574   0.914   5.727 -0.6098  0.1414  1.1711
11544TIP3    H256048   1.460   0.840   5.794 -0.0565 -1.7525  0.0674
11545TIP3   OH256049   2.306   4.364   1.242 -0.3136 -0.1271  0.1671
11545TIP3    H156050   2.292   4.458   1.235 -2.5370 -0.2594  2.1046
11545TIP3    H256051   2.302   4.333   1.151  1.0463  1.6791 -0.5466
11546TIP3   OH256052   2.738   6.105  11.857 -0.0230  0.1452 -0.4058
11546TIP3    H156053   2.745   6.183  11.802  2.0315 -0.9502 -1.7721
11546TIP3    H256054   2.694   6.041  11.801 -2.0717  0.3795  0.8491
11547TIP3   OH256055   1.802   5.001  10.967 -0.8376  0.9072 -0.9930
11547TIP3    H156056   1.881   5.040  10.931 -0.8343  2.2854  0.4310
11547TIP3    H256057   1.799   5.033  11.058 -1.4123 -1.5598 -0.1018
11548TIP3   OH256058   3.790   4.492  11.607  0.1703 -0.0713 -0.2407
11548TIP3    H156059   3.805   4.490  11.512 -0.6033 -0.8355 -0.3551
11548TIP3    H256060   3.717   4.553  11.618 -2.0286 -2.5805 -0.4863
11549TIP3   OH256061   0.413   5.135  14.460 -0.5253 -0.1461 -0.3299
11549TIP3    H156062   0.435   5.213  14.410 -1.1746 -0.2365 -0.7746
11549TIP3    H256063   0.436   5.156  14.550  0.7890 -0.0300 -0.6912
11550TIP3   OH256064   3.214   6.605   4.598  0.3918 -0.5404  0.3798
11550TIP3    H156065   3.217   6.689   4.553  0.7392  0.3560  2.0514
11550TIP3    H256066   3.225   6.627   4.690 -1.6928 -2.2148  1.0619
11551TIP3   OH256067   3.578   0.242   4.092  0.1390  0.9651  0.2096
11551TIP3    H156068   3.616   0.256   4.178  0.4938 -0.0336  0.2177
11551TIP3    H256069   3.589   0.326   4.047  1.8063  0.8732  0.4233
11552TIP3   OH256070   0.627   2.942  15.716 -0.4588  0.0814 -0.0800
11552TIP3    H156071   0.673   3.025  15.727  0.1572 -0.1338 -1.0132
11552TIP3    H256072   0.536   2.968  15.697 -0.2801  0.5341 -0.3278
11553TIP3   OH256073   3.246   0.318   4.081  0.5608  0.3673 -0.2144
11553TIP3    H156074   3.176   0.288   4.140  1.5633  0.0229  0.8006
11553TIP3    H256075   3.327   0.297   4.127  1.3164  2.4777 -0.5454
11554TIP3   OH256076   3.340   2.703   4.069 -0.0026 -0.8678  0.2125
11554TIP3    H156077   3.350   2.656   3.986 -1.7532 -1.6238  0.4227
11554TIP3    H256078   3.411   2.668   4.124  1.0821 -0.4662 -0.8980
11555TIP3   OH256079   0.084   5.564   1.725  0.1123 -0.1893  0.1563
11555TIP3    H156080   0.136   5.501   1.676 -0.2270 -0.5496  0.2634
11555TIP3    H256081  -0.006   5.534   1.717 -0.2703  1.2542 -1.2626
11556TIP3   OH256082   5.509   1.819   5.928  0.0098 -0.1975  0.5658
11556TIP3    H156083   5.478   1.904   5.959 -1.3418  0.5258 -2.6668
11556TIP3    H256084   5.449   1.756   5.967  0.3545  0.3917  2.0868
11557TIP3   OH256085   0.895   6.135  16.422  0.5345 -0.7459 -0.0653
11557TIP3    H156086   0.959   6.200  16.395  2.0121 -1.6134  1.2612
11557TIP3    H256087   0.892   6.072  16.351  1.1587 -0.7031 -0.1268
11558TIP3   OH256088   2.427   5.529  12.292 -0.3205 -0.1467 -0.6267
11558TIP3    H156089   2.382   5.528  12.377  2.8604 -0.9826  1.1061
11558TIP3    H256090   2.448   5.438  12.275  3.6922  0.5141  0.2979
11559TIP3   OH256091   1.015   4.171   1.908  0.2640 -0.0742  0.7355
11559TIP3    H156092   0.926   4.137   1.895  0.9762 -1.7197  0.0019
11559TIP3    H256093   1.009   4.224   1.987 -1.6806  0.9930 -0.0848
11560TIP3   OH256094   3.021   1.246   5.997 -0.4387  0.0794 -0.2567
11560TIP3    H156095   3.013   1.200   6.081  0.1072 -1.6685 -1.1233
11560TIP3    H256096   3.115   1.254   5.983 -0.5321  0.9469 -0.4001
11561TIP3   OH256097   3.376   4.869   3.364 -0.2183 -0.5277 -0.1725
11561TIP3    H156098   3.324   4.929   3.312  0.5592  0.4735  0.1818
11561TIP3    H256099   3.385   4.791   3.309  0.7588  0.5861 -1.6320
11562TIP3   OH256100   5.581   6.194  15.752 -0.1683  0.1140 -0.2669
11562TIP3    H156101   5.647   6.190  15.682 -1.5104 -1.8845 -1.4925
11562TIP3    H256102   5.512   6.249  15.716 -0.1079  0.4660  0.1599
11563TIP3   OH256103   1.074   6.143  13.143 -0.2710 -0.0678  0.3798
11563TIP3    H156104   1.021   6.125  13.065  0.4219 -0.8980  0.0944
11563TIP3    H256105   1.161   6.112  13.120  0.0043 -0.0466  1.3876
11564TIP3   OH256106   2.541   3.614  13.293  0.2747  0.3496 -0.3304
11564TIP3    H156107   2.580   3.551  13.353 -1.3803  0.7515  1.2142
11564TIP3    H256108   2.592   3.694  13.305  1.0442 -0.0769 -0.7483
11565TIP3   OH256109   2.834   0.369  14.504  0.4271 -0.3313 -0.4011
11565TIP3    H156110   2.912   0.385  14.451  0.4438  1.1937  0.0397
11565TIP3    H256111   2.856   0.293  14.558  2.2841  1.1604  0.9921
11566TIP3   OH256112   3.301   2.097   5.480  0.0803 -0.3968 -0.4603
11566TIP3    H156113   3.226   2.040   5.498 -1.3336  1.1772 -1.2475
11566TIP3    H256114   3.306   2.101   5.385 -0.4630  1.5670 -0.4305
11567TIP3   OH256115   6.528   5.376  11.716 -0.1591  0.3372  0.2829
11567TIP3    H156116   6.581   5.306  11.677 -0.3396  1.2705 -1.7122
11567TIP3    H256117   6.592   5.433  11.759  0.1750 -0.1261  0.3981
11568TIP3   OH256118   2.459   3.073  12.709  0.1483 -0.2814  0.8930
11568TIP3    H156119   2.439   3.024  12.788 -1.4074  0.4766  0.9698
11568TIP3    H256120   2.375   3.084  12.665  0.7290  0.9006  0.0502
11569TIP3   OH256121   5.689   4.260   0.361 -0.1061  0.3644  0.3054
11569TIP3    H156122   5.752   4.235   0.294 -1.6239  2.2744 -1.9263
11569TIP3    H256123   5.699   4.194   0.430  2.3229 -0.9565 -1.2456
11570TIP3   OH256124   1.698   1.166   3.476  0.5038  0.0798  0.9049
11570TIP3    H156125   1.692   1.258   3.501  2.6683  0.6956 -0.6262
11570TIP3    H256126   1.687   1.166   3.381  1.9013 -1.0496  0.7149
11571TIP3   OH256127   0.564   4.742  11.251 -0.6875 -0.5542  0.4223
11571TIP3    H156128   0.609   4.827  11.248 -2.5330  0.4049 -0.4418
11571TIP3    H256129   0.548   4.727  11.344 -0.5674  0.1488  0.5580
11572TIP3   OH256130   4.401   3.558  16.666  0.0194  0.6522  0.0399
11572TIP3    H156131   4.403   3.540  16.760 -0.0947  1.2728  0.1623
11572TIP3    H256132   4.413   3.472  16.625 -0.7533  0.2585  0.6134
11573TIP3   OH256133   6.256   1.111   0.463  0.4179  0.4687  0.3162
11573TIP3    H156134   6.200   1.186   0.444  2.7260  1.5748 -2.5517
11573TIP3    H256135   6.233   1.046   0.396 -0.0116 -0.5169  1.4038
11574TIP3   OH256136   2.124   6.627   3.267 -0.3594 -0.4867  0.1911
11574TIP3    H156137   2.126   6.658   3.357  1.1941  1.1650 -0.3778
11574TIP3    H256138   2.215   6.606   3.247 -0.3371  1.2153 -1.6569
11575TIP3   OH256139   4.090   3.595   3.142 -0.5322 -0.5881 -0.0339
11575TIP3    H156140   4.123   3.677   3.179 -0.8072  0.2258 -1.5541
11575TIP3    H256141   4.169   3.547   3.115 -0.3844 -0.6938  0.5846
11576TIP3   OH256142   0.499   6.183  15.106 -0.2395  0.3889 -0.0768
11576TIP3    H156143   0.477   6.268  15.068 -1.5881 -1.3597 -3.4528
11576TIP3    H256144   0.540   6.135  15.033  0.2640 -1.9308  1.6830
11577TIP3   OH256145   2.612   3.009   3.694  0.5630  0.3532 -0.1648
11577TIP3    H156146   2.668   2.936   3.719 -0.8809 -0.9249 -0.6391
11577TIP3    H256147   2.539   2.969   3.648 -1.3359  1.8937  1.4250
11578TIP3   OH256148   2.864   4.859  14.435 -0.2294 -0.4949 -0.4008
11578TIP3    H156149   2.777   4.835  14.402 -0.7553  1.6604 -0.6198
11578TIP3    H256150   2.851   4.873  14.529  0.1833 -1.5208 -0.1837
11579TIP3   OH256151   3.619   5.201   4.745  0.8280 -0.1738  0.6155
11579TIP3    H156152   3.673   5.268   4.704 -1.2325  1.6301  0.7310
11579TIP3    H256153   3.615   5.130   4.680 -0.8649  1.8575 -1.5971
11580TIP3   OH256154   2.641   5.276  15.524 -0.2962 -0.1348  0.3666
11580TIP3    H156155   2.663   5.231  15.443  0.1478  1.1542 -0.2475
11580TIP3    H256156   2.657   5.212  15.593 -0.3959 -1.1439 -0.5385
11581TIP3   OH256157   6.239   0.154  16.946 -0.4361 -0.0134  0.3312
11581TIP3    H156158   6.329   0.163  16.916 -0.9787 -0.6530 -1.5721
11581TIP3    H256159   6.191   0.127  16.868 -2.0033 -1.1520  1.6640
11582TIP3   OH256160   6.397   0.768   4.503 -0.4004 -0.0810  0.2853
11582TIP3    H156161   6.403   0.673   4.495  0.7731 -0.0404  0.4772
11582TIP3    H256162   6.400   0.784   4.598 -0.6576  0.1419  0.2553
11583TIP3   OH256163   6.730   3.356   0.471 -0.2241 -0.1427 -0.3395
11583TIP3    H156164   6.722   3.261   0.461 -0.7270 -0.1667  0.2658
11583TIP3    H256165   6.668   3.378   0.541 -0.0416  0.6178 -0.4152
11584TIP3   OH256166   6.465   2.955   6.141  0.2772  0.0671  0.0175
11584TIP3    H156167   6.451   3.030   6.200 -1.2796 -0.5259  0.4279
11584TIP3    H256168   6.386   2.902   6.150  1.8746 -2.3016  0.6960
11585TIP3   OH256169   0.015   0.170  10.470  0.4510  0.0379 -0.1488
11585TIP3    H156170   0.105   0.186  10.499  1.0599 -0.1267 -1.8517
11585TIP3    H256171   0.023   0.099  10.407 -0.8471  0.1974 -0.5032
11586TIP3   OH256172   5.545   0.194   6.700  0.4561 -0.2508  0.3344
11586TIP3    H156173   5.482   0.264   6.680 -0.2483 -0.9151  0.2171
11586TIP3    H256174   5.627   0.225   6.660 -0.4210 -0.5760 -1.8177
11587TIP3   OH256175   2.568   3.467  13.782 -0.3572 -0.3872 -0.1935
11587TIP3    H156176   2.545   3.461  13.690  0.9800 -1.2755 -0.4723
11587TIP3    H256177   2.663   3.457  13.785 -0.3454 -0.0552  1.2507
11588TIP3   OH256178   0.218   5.131  10.943  0.2124 -0.3315 -0.1469
11588TIP3    H156179   0.260   5.212  10.916 -0.1005  0.0873  0.6180
11588TIP3    H256180   0.161   5.108  10.870  1.7459 -0.8885 -1.1751
11589TIP3   OH256181   3.401   1.214  16.317 -0.1934 -0.5278 -0.6761
11589TIP3    H156182   3.437   1.303  16.306  1.9113 -1.2452  0.2076
11589TIP3    H256183   3.360   1.215  16.403 -1.1020 -0.1045 -1.1124
11590TIP3   OH256184   5.476   6.145   0.953 -0.4244  0.2228  0.4262
11590TIP3    H156185   5.486   6.209   0.882 -1.0817 -1.1322 -0.9270
11590TIP3    H256186   5.410   6.083   0.920  1.4326 -2.1273  0.9582
11591TIP3   OH256187   2.718   1.481  14.913 -0.2089  0.1975 -0.0750
11591TIP3    H156188   2.790   1.430  14.950 -1.7112 -1.0393  1.2357
11591TIP3    H256189   2.729   1.569  14.948 -1.9040 -1.0595  3.9039
11592TIP3   OH256190   0.066   4.952   1.456 -0.0786  0.1539 -0.3580
11592TIP3    H156191   0.096   5.037   1.489 -0.4070  0.6776 -1.4102
11592TIP3    H256192   0.119   4.936   1.379 -0.1980 -0.4853 -0.3059
11593TIP3   OH256193   5.501   0.679  13.127  0.3325 -0.3885 -0.0220
11593TIP3    H156194   5.414   0.661  13.092  0.5819 -4.1557  1.0909
11593TIP3    H256195   5.487   0.693  13.221  0.6112  2.0753 -0.3041
11594TIP3   OH256196   2.906   6.503  12.719  0.0878 -0.0568  0.0543
11594TIP3    H156197   2.946   6.556  12.788 -0.5220  0.8388 -0.2782
11594TIP3    H256198   2.825   6.470  12.758 -0.1059  0.2041 -0.1210
11595TIP3   OH256199   5.747   5.689  14.909 -0.0730 -0.1083  0.3031
11595TIP3    H156200   5.768   5.755  14.843 -2.5078  0.5293  0.1247
11595TIP3    H256201   5.755   5.735  14.992  1.6957 -0.5683  0.4250
11596TIP3   OH256202   3.654   0.394   2.279 -0.1420 -0.4163 -0.1039
11596TIP3    H156203   3.695   0.461   2.333 -0.3230  1.1211 -1.8176
11596TIP3    H256204   3.717   0.376   2.209  0.0466 -2.2932  0.5045
11597TIP3   OH256205   6.306   2.701  14.050  0.5061 -0.2485  0.0976
11597TIP3    H156206   6.317   2.686  14.144  1.3163 -0.1236  0.0271
11597TIP3    H256207   6.327   2.616  14.010 -0.9643 -0.6287  0.0950
11598TIP3   OH256208   2.185   1.178  16.957  0.0266  0.3110 -0.1745
11598TIP3    H156209   2.229   1.139  17.033  0.9740  0.2000 -0.7761
11598TIP3    H256210   2.255   1.217  16.906 -0.5797  0.1874 -1.1143
11599TIP3   OH256211   4.353   5.380   4.818 -0.2669  0.4393  0.6458
11599TIP3    H156212   4.402   5.388   4.900 -3.3602 -1.9904  2.8613
11599TIP3    H256213   4.396   5.308   4.771  0.3435  0.5481  1.0359
11600TIP3   OH256214   1.852   3.780   1.539  0.1985 -0.3989  0.1154
11600TIP3    H156215   1.777   3.737   1.499 -0.4307 -1.1972  2.1027
11600TIP3    H256216   1.921   3.714   1.539 -0.0411 -0.6520  1.0396
11601TIP3   OH256217   6.670   3.641   2.654 -0.2714  0.6917 -0.5489
11601TIP3    H156218   6.675   3.603   2.566  0.1450 -0.1096 -0.1856
11601TIP3    H256219   6.598   3.593   2.696 -0.3912  0.9917 -0.4131
11602TIP3   OH256220   4.890   5.754  14.375  0.5986  0.4843  0.4459
11602TIP3    H156221   4.880   5.773  14.468  2.1417  3.1659  0.1141
11602TIP3    H256222   4.878   5.838  14.331  2.5055 -0.2188 -1.5639
11603TIP3   OH256223   5.255   5.186   5.620 -1.3084 -0.3889  0.2612
11603TIP3    H156224   5.165   5.196   5.587 -0.8717  0.4879 -0.7149
11603TIP3    H256225   5.309   5.180   5.541 -0.3934  0.1957  0.8291
11604TIP3   OH256226   6.101   1.267   2.441 -0.2651 -0.0845  0.0266
11604TIP3    H156227   6.010   1.297   2.437 -0.7526 -1.6056 -0.6951
11604TIP3    H256228   6.112   1.214   2.362  1.6577  1.1730 -0.5897
11605TIP3   OH256229   2.048   4.404  13.985 -0.1995 -0.4910  0.5791
11605TIP3    H156230   2.035   4.395  13.891  1.7790 -1.5556  0.3880
11605TIP3    H256231   2.007   4.327  14.023  0.9997 -1.2172  0.4019
11606TIP3   OH256232   2.161   1.208   6.010 -0.4611 -0.1089  0.3707
11606TIP3    H156233   2.132   1.249   5.928  0.6328 -0.1786 -0.0724
11606TIP3    H256234   2.207   1.129   5.981  0.5890  0.2605  0.9991
11607TIP3   OH256235   2.404   1.337   5.830 -0.3719 -0.8589 -0.3783
11607TIP3    H156236   2.388   1.259   5.883 -0.2744  0.7825  2.1415
11607TIP3    H256237   2.317   1.373   5.815 -0.1870  0.2341  1.1168
11608TIP3   OH256238   6.635   6.703   2.858  0.1756 -0.1891 -0.0546
11608TIP3    H156239   6.630   6.798   2.847  0.9808 -0.5643 -4.7411
11608TIP3    H256240   6.727   6.687   2.879  0.1201  0.0475  0.3685
11609TIP3   OH256241   5.125   3.234   5.970 -0.3475  0.4957 -0.2561
11609TIP3    H156242   5.086   3.230   6.057 -0.4727 -0.4642 -0.3516
11609TIP3    H256243   5.158   3.323   5.962 -0.9970  0.8059  0.4877
11610TIP3   OH256244   4.622   5.325  15.542  0.2610 -0.6096 -0.8229
11610TIP3    H156245   4.584   5.326  15.454 -0.5875 -0.3892 -0.4562
11610TIP3    H256246   4.558   5.277  15.595  1.8603 -2.8235 -0.8211
11611TIP3   OH256247   5.588   4.984   1.886  0.2742  0.1190 -0.1601
11611TIP3    H156248   5.575   5.037   1.964 -1.4550  0.3065 -0.5517
11611TIP3    H256249   5.501   4.947   1.867  0.6779 -0.0074 -1.9161
11612TIP3   OH256250   1.792   2.995   3.367 -0.0659  0.3022 -0.3750
11612TIP3    H156251   1.768   2.932   3.299 -0.8801  1.2228 -0.9577
11612TIP3    H256252   1.837   3.065   3.320 -0.9904  1.1383 -0.0238
11613TIP3   OH256253   3.320   4.562  14.904 -0.4201  0.0752  0.1149
11613TIP3    H156254   3.239   4.535  14.863 -0.0749 -1.6042  0.4977
11613TIP3    H256255   3.307   4.654  14.926 -1.3996  0.4067 -1.7702
11614TIP3   OH256256   5.805   0.322  13.305  0.4754 -0.2217  0.2410
11614TIP3    H156257   5.772   0.364  13.226  6.0141 -0.6293 -2.5079
11614TIP3    H256258   5.810   0.393  13.370 -0.3748  0.9921 -0.9920
11615TIP3   OH256259   4.416   4.494  15.991 -0.3145 -0.0303  0.1264
11615TIP3    H156260   4.496   4.521  15.946  2.0800  0.1699  4.2762
11615TIP3    H256261   4.383   4.574  16.033 -1.5016 -0.5690  0.2604
11616TIP3   OH256262   6.246   1.323   4.165 -0.0767  0.2674 -0.3570
11616TIP3    H156263   6.156   1.293   4.152  0.1171  0.0254 -1.1808
11616TIP3    H256264   6.299   1.243   4.157  0.3059  0.5831 -1.0263
11617TIP3   OH256265   5.350   1.601   6.042  0.4515  0.8579  0.2425
11617TIP3    H156266   5.258   1.576   6.048  1.1286 -1.6336  0.9034
11617TIP3    H256267   5.377   1.616   6.133  1.3364 -1.0035  0.3168
11618TIP3   OH256268   6.573   0.087  15.737  0.7194  0.1103  0.3056
11618TIP3    H156269   6.488   0.063  15.775  2.0742 -1.2839  2.5893
11618TIP3    H256270   6.574   0.043  15.652  0.6784 -3.0644  1.8723
11619TIP3   OH256271   0.185   4.490   3.069  0.6111  0.1497  0.2648
11619TIP3    H156272   0.246   4.423   3.101  1.5585  0.6081 -0.5491
11619TIP3    H256273   0.099   4.458   3.094  1.1299 -0.9218  0.7019
11620TIP3   OH256274   0.459   0.689  13.030  0.7211  0.4847  0.0786
11620TIP3    H156275   0.512   0.666  12.953 -0.9696 -1.4336 -0.5585
11620TIP3    H256276   0.372   0.706  12.995 -1.2806 -4.8167  1.8753
11621TIP3   OH256277   5.821   4.274   4.312  0.3547  0.8471  0.4783
11621TIP3    H156278   5.826   4.369   4.309 -1.4705  0.9674  0.6604
11621TIP3    H256279   5.809   4.248   4.220  0.5852  0.8055  0.4592
11622TIP3   OH256280   4.562   5.286  12.813  0.0280  0.0913  0.1859
11622TIP3    H156281   4.589   5.224  12.746  0.3880 -0.9037  1.2434
11622TIP3    H256282   4.642   5.307  12.860 -0.3915  0.0471  0.9265
11623TIP3   OH256283   4.631   2.484   4.922 -0.0902 -0.4378  0.0884
11623TIP3    H156284   4.583   2.501   5.003  1.9491 -1.5103  1.5852
11623TIP3    H256285   4.597   2.400   4.892  1.6986 -1.8589  1.8716
11624TIP3   OH256286   1.372   4.744  10.519  0.2214  0.1131 -0.0656
11624TIP3    H156287   1.380   4.783  10.607  0.9893  0.8658 -0.4699
11624TIP3    H256288   1.446   4.684  10.513  0.2304  0.1438 -0.2434
11625TIP3   OH256289   1.680   4.096   6.279 -0.0822  0.3790  0.1643
11625TIP3    H156290   1.609   4.059   6.227 -0.6020  0.0910  1.0653
11625TIP3    H256291   1.653   4.186   6.298  0.3114  0.6236 -0.4390
11626TIP3   OH256292   4.340   6.706   4.246 -0.0698  0.1232  0.2824
11626TIP3    H156293   4.330   6.611   4.241  2.4505 -0.1044 -2.0619
11626TIP3    H256294   4.256   6.741   4.218 -0.5167 -1.4645 -0.4199
11627TIP3   OH256295   0.850   0.361   5.254  0.1865 -0.4400 -0.0080
11627TIP3    H156296   0.916   0.308   5.299  2.2734  0.2098 -2.1951
11627TIP3    H256297   0.899   0.408   5.187 -2.4160  0.6277 -1.2273
11628TIP3   OH256298   4.354   2.078   2.875 -0.1078  0.1218  0.1160
11628TIP3    H156299   4.360   2.172   2.856 -0.1145  0.2970  0.9731
11628TIP3    H256300   4.397   2.036   2.800 -0.2482  0.7970 -0.3524
11629TIP3   OH256301   1.737   0.171  12.696  0.0472  0.4388 -0.0919
11629TIP3    H156302   1.813   0.213  12.657 -0.4595  0.1147 -1.4483
11629TIP3    H256303   1.754   0.077  12.687  0.1636  0.3496  0.9501
11630TIP3   OH256304   2.805   3.786   1.868 -0.3804  0.4160  0.0498
11630TIP3    H156305   2.817   3.704   1.819 -1.4300  0.7652 -0.8084
11630TIP3    H256306   2.711   3.803   1.863 -0.2357  1.4128  0.6583
11631TIP3   OH256307   3.774   0.504   4.461  0.3600 -0.3507 -0.2185
11631TIP3    H156308   3.760   0.572   4.394 -0.1088  1.0548  1.2675
11631TIP3    H256309   3.801   0.553   4.539 -0.2999 -1.8636  0.9767
11632TIP3   OH256310   2.651   4.672  12.236  0.3413 -0.1701 -0.2089
11632TIP3    H156311   2.725   4.723  12.268  1.1407 -0.3496 -1.7865
11632TIP3    H256312   2.575   4.714  12.277  1.0861  1.5642 -0.5570
11633TIP3   OH256313   3.898   3.863  12.282 -0.1907 -0.1012  0.4703
11633TIP3    H156314   3.820   3.889  12.330  0.3863  0.6548  1.0229
11633TIP3    H256315   3.970   3.909  12.326  0.4226  0.1187 -0.7309
11634TIP3   OH256316   5.990   1.411  16.949  0.6299 -0.1183  0.1052
11634TIP3    H156317   5.912   1.388  17.001  0.2320  0.6242 -0.1637
11634TIP3    H256318   6.058   1.352  16.981 -0.1613 -1.0823  0.0375
11635TIP3   OH256319   1.880   2.798   5.129  0.0203 -0.6933  0.1355
11635TIP3    H156320   1.846   2.832   5.046 -0.2866 -0.4532  0.3603
11635TIP3    H256321   1.973   2.781   5.111 -0.0880 -0.8354 -0.3158
11636TIP3   OH256322   4.141   5.258  11.037 -0.4648 -0.5975  0.2401
11636TIP3    H156323   4.195   5.197  10.987 -1.3150 -0.3513 -1.0114
11636TIP3    H256324   4.203   5.309  11.089  0.5565  0.2430 -1.7913
11637TIP3   OH256325   1.691   4.902   5.892  0.5230 -0.1023 -0.3302
11637TIP3    H156326   1.598   4.923   5.906  1.1537  1.9153  1.1806
11637TIP3    H256327   1.738   4.967   5.945  2.7732 -2.0781  0.2009
11638TIP3   OH256328   4.958   1.309  16.055 -0.0792  0.7315  0.2319
11638TIP3    H156329   4.916   1.243  16.000  2.8902 -0.9610 -0.1141
11638TIP3    H256330   4.921   1.295  16.142  0.2211 -1.1791  0.0833
11639TIP3   OH256331   1.629   6.645  13.749  0.1046  0.0140  0.0956
11639TIP3    H156332   1.552   6.700  13.765 -0.6572 -1.4448  1.5395
11639TIP3    H256333   1.615   6.609  13.662 -0.6350  0.1176  0.1663
11640TIP3   OH256334   5.032   6.187   0.156 -0.0508  0.0460  0.1942
11640TIP3    H156335   4.951   6.202   0.205 -1.3264  0.2422 -1.9202
11640TIP3    H256336   5.101   6.200   0.221 -1.6897 -0.0776  2.0333
11641TIP3   OH256337   0.769   2.590   1.857  0.3485  0.2708 -0.0774
11641TIP3    H156338   0.818   2.670   1.837  0.0703  0.4823  0.0908
11641TIP3    H256339   0.775   2.581   1.952 -1.7503  1.4640  0.1836
11642TIP3   OH256340   3.884   2.868   0.447 -0.1063 -0.5935 -0.3411
11642TIP3    H156341   3.970   2.895   0.414  0.8697 -0.7055  2.0085
11642TIP3    H256342   3.878   2.775   0.426  0.1726 -0.4973 -0.8505
11643TIP3   OH256343   4.250   1.072  16.254 -0.2918 -0.5269 -0.2330
11643TIP3    H156344   4.274   1.062  16.346 -0.3279  2.3384  0.1244
11643TIP3    H256345   4.256   1.166  16.237 -1.0058 -0.9170 -2.9733
11644TIP3   OH256346   5.718   0.141   3.324  0.0622  0.1618  0.2982
11644TIP3    H156347   5.707   0.222   3.274 -1.6474 -0.0238  0.3392
11644TIP3    H256348   5.678   0.160   3.409 -0.0826 -0.6218  0.4062
11645TIP3   OH256349   0.738   4.611  12.293  0.2517 -0.2328 -0.0352
11645TIP3    H156350   0.671   4.680  12.285  2.3251  1.7103 -1.1518
11645TIP3    H256351   0.782   4.630  12.376  0.0050 -1.0018  0.2763
11646TIP3   OH256352   5.736   4.941  15.662 -0.1887  0.1587  0.4303
11646TIP3    H156353   5.690   5.007  15.714  3.8652  1.2900  2.8140
11646TIP3    H256354   5.777   4.991  15.591  0.4149 -0.2829  0.4705
11647TIP3   OH256355   0.408   3.177   5.886 -0.3482 -0.1625  0.2042
11647TIP3    H156356   0.362   3.195   5.803  0.6316  0.3421 -0.2380
11647TIP3    H256357   0.382   3.087   5.908  0.5900 -0.8726 -1.4549
11648TIP3   OH256358   3.191   0.513  12.604  0.0342 -0.2883 -0.2361
11648TIP3    H156359   3.190   0.601  12.567 -0.3698  0.0723  0.6235
11648TIP3    H256360   3.281   0.500  12.634 -0.1158  0.1648  0.4222
11649TIP3   OH256361   6.611   4.029   0.795  0.4418  0.2830  0.6031
11649TIP3    H156362   6.591   4.000   0.706  0.3139 -0.2769  0.8093
11649TIP3    H256363   6.560   4.109   0.807  2.0330  1.4982 -0.5462
11650TIP3   OH256364   5.293   1.293  10.645 -0.4212 -0.0243 -0.0198
11650TIP3    H156365   5.273   1.385  10.627  1.8941  0.4508 -0.4016
11650TIP3    H256366   5.262   1.247  10.568  0.6208  0.7842 -0.9529
11651TIP3   OH256367   6.524   1.482   1.830  0.2363 -0.2789  0.2241
11651TIP3    H156368   6.508   1.461   1.921 -1.8240  0.1047 -0.0400
11651TIP3    H256369   6.517   1.399   1.784 -0.0936 -0.2526  0.2281
11652TIP3   OH256370   0.702   1.962  14.819 -0.1713 -0.1882  0.2657
11652TIP3    H156371   0.621   1.935  14.776  0.6740  0.5108 -1.8289
11652TIP3    H256372   0.700   2.057  14.818 -0.4192 -0.1432  2.3791
11653TIP3   OH256373   6.700   0.024  12.879  0.5588 -0.5766 -0.2394
11653TIP3    H156374   6.702   0.042  12.973 -1.9700  1.5326 -0.5250
11653TIP3    H256375   6.619  -0.026  12.866  0.0053  0.6108 -1.4996
11654TIP3   OH256376   4.314   6.507   3.683 -0.3387  0.2667  0.3777
11654TIP3    H156377   4.352   6.572   3.625 -1.3056 -1.0641 -1.7866
11654TIP3    H256378   4.219   6.512   3.667 -0.3708 -2.2048 -0.4330
11655TIP3   OH256379   5.057   5.250   4.361  0.0289  0.5458 -0.2898
11655TIP3    H156380   5.148   5.243   4.391 -0.4995  0.5129  1.2997
11655TIP3    H256381   5.007   5.272   4.439 -1.4454 -0.2076 -1.0105
11656TIP3   OH256382   4.922   4.292  12.843 -0.3672  0.3859  0.4722
11656TIP3    H156383   4.852   4.312  12.782  0.0155  0.5466  0.0839
11656TIP3    H256384   5.000   4.283  12.788 -0.3931 -1.4593  0.6929
11657TIP3   OH256385   3.640   3.604   4.090 -0.1267 -0.5366 -0.1955
11657TIP3    H156386   3.552   3.596   4.056 -0.9916  0.6499  1.6521
11657TIP3    H256387   3.682   3.671   4.035 -1.0962  0.4650  0.2643
11658TIP3   OH256388   6.591   6.225  14.709  0.0860 -0.1961  0.7754
11658TIP3    H156389   6.501   6.211  14.681  0.3068  0.6929 -0.4413
11658TIP3    H256390   6.617   6.143  14.751 -0.2798 -1.6182 -1.6362
11659TIP3   OH256391   2.577   0.372   2.240 -0.0737  0.2663 -0.2246
11659TIP3    H156392   2.490   0.351   2.208 -0.3017 -1.7506  1.5609
11659TIP3    H256393   2.629   0.294   2.222  0.8091  0.6403  0.6295
11660TIP3   OH256394   0.910   3.104   3.531 -0.1616  0.7593 -0.6054
11660TIP3    H156395   0.880   3.181   3.482  0.9895  1.3493 -0.4177
11660TIP3    H256396   0.999   3.127   3.558  0.4699 -0.9364 -1.1918
11661TIP3   OH256397   0.782   5.416  16.152  0.5644 -0.1002  0.4549
11661TIP3    H156398   0.732   5.497  16.146 -0.3450 -0.7599 -1.1031
11661TIP3    H256399   0.811   5.412  16.243 -0.3023  1.4203  0.8054
11662TIP3   OH256400   4.754   1.067  15.989  0.2258 -0.2095 -0.3750
11662TIP3    H156401   4.671   1.108  16.015  0.1304 -1.2261  0.9753
11662TIP3    H256402   4.739   0.973  15.998  1.8914 -0.3642  1.0814
11663TIP3   OH256403   2.906   5.693  12.961  0.2764 -0.9122 -0.3700
11663TIP3    H156404   2.892   5.665  13.052  2.2461 -0.6224  0.0487
11663TIP3    H256405   2.967   5.766  12.968 -1.9150  1.1203 -1.7336
11664TIP3   OH256406   6.547   2.917  11.174 -0.4867 -0.3135 -0.1032
11664TIP3    H156407   6.637   2.941  11.152 -0.6709 -0.0754 -0.5860
11664TIP3    H256408   6.512   2.876  11.095 -1.7635  2.2775 -0.9432
11665TIP3   OH256409   1.199   5.201   5.079  0.3272 -0.9634 -0.1650
11665TIP3    H156410   1.134   5.267   5.053  1.4512  0.4170  0.4440
11665TIP3    H256411   1.234   5.168   4.996 -1.3254 -1.9200 -0.5018
11666TIP3   OH256412   5.923   3.129   5.231 -0.4379 -0.4268 -0.1915
11666TIP3    H156413   5.843   3.079   5.216 -0.3042 -0.6615 -0.1422
11666TIP3    H256414   5.989   3.062   5.249 -0.1642 -0.2549 -0.5424
11667TIP3   OH256415   0.843   1.926  16.431 -0.1647 -0.1085 -0.4181
11667TIP3    H156416   0.930   1.892  16.449 -0.2663 -0.2032 -0.0868
11667TIP3    H256417   0.803   1.935  16.518  0.4903  2.5644 -0.3731
11668TIP3   OH256418   5.518   5.492  15.948  0.3879 -0.5299  0.1985
11668TIP3    H156419   5.602   5.502  15.902  1.1903 -3.2055  1.0161
11668TIP3    H256420   5.473   5.422  15.901 -0.6668 -0.2683  0.8121
11669TIP3   OH256421   5.552   4.459  13.192  0.2379  0.2729  0.5019
11669TIP3    H156422   5.590   4.510  13.262  0.0918  1.0177  0.0400
11669TIP3    H256423   5.534   4.522  13.123  1.1128 -0.5741 -0.5185
11670TIP3   OH256424   0.426   5.208   5.167  0.0407  1.0245  0.2309
11670TIP3    H156425   0.386   5.142   5.110  1.1264  0.7320 -0.1871
11670TIP3    H256426   0.362   5.280   5.168 -1.1600 -0.0286  0.7143
11671TIP3   OH256427   5.596   4.139  12.607 -0.4069 -0.2825  0.3517
11671TIP3    H156428   5.560   4.201  12.543 -0.3090  1.5958  2.0486
11671TIP3    H256429   5.538   4.147  12.683 -1.1219 -3.2301  0.1365
11672TIP3   OH256430   3.952   2.640   2.327 -0.4673  0.3280 -0.7412
11672TIP3    H156431   3.975   2.620   2.237  0.9817 -1.1436 -0.0557
11672TIP3    H256432   3.984   2.566   2.378  0.6445  2.0995  1.2384
11673TIP3   OH256433   5.974   5.502  13.789 -0.6995 -0.2669  0.1058
11673TIP3    H156434   6.005   5.497  13.880  0.1801  1.6442 -0.0686
11673TIP3    H256435   5.888   5.544  13.796 -2.0605 -2.9875  0.3213
11674TIP3   OH256436   0.492   2.441   3.771  0.5176  0.8074  0.2773
11674TIP3    H156437   0.506   2.512   3.708  0.2254  0.1968 -0.4900
11674TIP3    H256438   0.579   2.404   3.785  0.5087  0.6186 -0.1612
11675TIP3   OH256439   6.138   6.737  15.315 -0.1364  0.2169 -0.6808
11675TIP3    H156440   6.171   6.684  15.388  1.4874  0.3630 -1.2721
11675TIP3    H256441   6.193   6.815  15.315  0.5975 -0.2470 -2.6705
11676TIP3   OH256442   0.821   4.992  16.491 -0.6030 -0.1024 -0.5199
11676TIP3    H156443   0.874   5.047  16.548 -2.2183 -1.1865  2.1458
11676TIP3    H256444   0.883   4.929  16.453  0.7579  1.6800 -1.3004
11677TIP3   OH256445   4.878   6.024   1.695  0.4488  0.7663 -0.2894
11677TIP3    H156446   4.968   5.991   1.699  0.1927 -0.0209 -0.7276
11677TIP3    H256447   4.827   5.948   1.666 -0.8899  0.1768  3.3684
11678TIP3   OH256448   6.360   2.779  12.230  0.2048 -0.0259 -0.3819
11678TIP3    H156449   6.349   2.723  12.306 -0.5822 -2.6683 -2.3671
11678TIP3    H256450   6.433   2.837  12.253  0.2167 -1.0028  2.1975
11679TIP3   OH256451   3.239   2.373  12.269  0.0040  0.0769  0.2101
11679TIP3    H156452   3.323   2.400  12.232  0.6575 -0.1968  1.4361
11679TIP3    H256453   3.205   2.451  12.313 -1.1320  0.6144 -1.5594
11680TIP3   OH256454   3.834   0.423   2.901  0.5254  0.2646  0.5639
11680TIP3    H156455   3.912   0.428   2.847  1.6503 -0.6338  2.0559
11680TIP3    H256456   3.776   0.491   2.866  1.5995  0.3434 -1.1220
11681TIP3   OH256457   6.714   4.550   1.978 -0.1786  0.3874  0.0817
11681TIP3    H156458   6.634   4.603   1.988 -1.6078 -1.9009  1.0825
11681TIP3    H256459   6.714   4.526   1.885 -1.0384 -0.2127  0.2357
11682TIP3   OH256460   0.033   1.732   3.484 -0.4885  0.7314  0.0927
11682TIP3    H156461  -0.020   1.706   3.559 -0.9709  0.9346 -0.1813
11682TIP3    H256462  -0.028   1.733   3.410  0.2614 -0.8506 -0.5756
11683TIP3   OH256463   4.408   3.163  15.703 -0.1336  0.0219 -0.2482
11683TIP3    H156464   4.404   3.246  15.655 -1.1775 -0.2108 -0.5738
11683TIP3    H256465   4.378   3.097  15.641  2.3850 -0.8969 -0.5778
11684TIP3   OH256466   2.191   3.962  16.672  0.0018 -0.2029  0.5473
11684TIP3    H156467   2.253   3.981  16.602  1.8364 -1.7900  1.6998
11684TIP3    H256468   2.189   4.042  16.725 -1.8718  1.2457 -1.5826
11685TIP3   OH256469   6.273   5.082   4.832 -0.5519 -0.5595  0.3024
11685TIP3    H156470   6.343   5.066   4.895  1.1720  0.1315 -1.3921
11685TIP3    H256471   6.285   5.015   4.765 -0.7654  0.3149 -0.6211
11686TIP3   OH256472   4.683   2.696   0.436  0.0331  0.1887  0.1584
11686TIP3    H156473   4.685   2.639   0.513 -0.5562  1.7853  1.3906
11686TIP3    H256474   4.593   2.726   0.431  0.5048  1.6382  0.0206
11687TIP3   OH256475   2.426   2.939   3.502 -0.5813 -0.0401  0.3647
11687TIP3    H156476   2.409   3.017   3.555 -1.8774 -0.6574  0.8694
11687TIP3    H256477   2.351   2.934   3.443  0.6124  0.3612 -1.2210
11688TIP3   OH256478   0.995   3.785  15.043 -0.1870 -0.1414 -0.3774
11688TIP3    H156479   0.944   3.738  15.109 -1.7720 -2.0109 -2.8207
11688TIP3    H256480   1.066   3.725  15.020  1.5190  1.3047  0.9951
11689TIP3   OH256481   6.747   5.139   2.957  0.0713 -0.2810  0.5500
11689TIP3    H156482   6.731   5.084   3.034 -2.8386 -1.0376 -0.5279
11689TIP3    H256483   6.766   5.076   2.887  0.7334  0.3092  0.1942
11690TIP3   OH256484   4.477   3.545   2.931 -0.0366 -0.2500  0.4568
11690TIP3    H156485   4.554   3.495   2.903  0.8872  1.5079 -0.1987
11690TIP3    H256486   4.510   3.633   2.946 -2.1731  0.8550 -1.0785
11691TIP3   OH256487   5.163   4.561   3.173  0.0129 -0.3002  0.4664
11691TIP3    H156488   5.166   4.567   3.077 -0.3561 -2.4345  0.2930
11691TIP3    H256489   5.094   4.622   3.199  1.4390  1.7695 -0.4482
11692TIP3   OH256490   1.737   5.506   3.206  0.2307  0.3106  0.1855
11692TIP3    H156491   1.775   5.422   3.180  0.2275 -0.3482  2.2274
11692TIP3    H256492   1.811   5.554   3.246  0.2605  1.3254 -1.0737
11693TIP3   OH256493   1.647   5.503  17.024 -0.1212  0.1142 -0.2952
11693TIP3    H156494   1.641   5.595  17.048 -0.8610 -0.0502  0.1659
11693TIP3    H256495   1.661   5.503  16.929  2.9684  0.7763  0.1177
11694TIP3   OH256496   5.718   0.307   1.017 -0.5577 -0.0511  0.2342
11694TIP3    H156497   5.701   0.225   0.972  0.1851 -0.1259  0.0808
11694TIP3    H256498   5.799   0.340   0.977  0.4191 -0.3833  1.8819
11695TIP3   OH256499   2.535   3.718   5.251  1.1382  0.1755  0.0317
11695TIP3    H156500   2.611   3.665   5.274 -0.3509 -1.7655  0.5483
11695TIP3    H256501   2.517   3.698   5.160 -0.8060 -2.0163  0.8458
11696TIP3   OH256502   0.507   4.451  13.228  0.1497  0.1251 -0.7436
11696TIP3    H156503   0.542   4.385  13.288  0.3197  1.4674  0.6727
11696TIP3    H256504   0.418   4.468  13.259  0.2259  0.8052 -0.8813
11697TIP3   OH256505   1.018   4.170  12.291 -0.0074  0.1566 -0.1238
11697TIP3    H156506   1.059   4.146  12.208 -0.2573  0.0486 -0.2139
11697TIP3    H256507   1.069   4.245  12.322  0.5067 -0.2160 -0.0511
11698TIP3   OH256508   4.062   5.178  11.725  0.0747 -0.3466  0.3932
11698TIP3    H156509   4.048   5.244  11.794 -1.6485  0.9673 -1.1634
11698TIP3    H256510   3.974   5.158  11.693  0.8385 -1.1285 -1.2508
11699TIP3   OH256511   2.529   4.222  17.005  0.1923  0.2558 -0.1461
11699TIP3    H156512   2.561   4.140  17.044  0.1826  0.1741 -0.3102
11699TIP3    H256513   2.475   4.194  16.931  0.1308  0.4087 -0.1605
11700TIP3   OH256514   5.503   4.910  16.166 -0.5240 -0.1591  0.0764
11700TIP3    H156515   5.568   4.932  16.232  0.8296 -0.2416 -1.2010
11700TIP3    H256516   5.538   4.833  16.122 -2.4369 -1.4040  0.6644
11701TIP3   OH256517   3.569   4.532  12.468  0.2959  0.5202 -0.4842
11701TIP3    H156518   3.629   4.588  12.419  1.9522  0.2136  1.1455
11701TIP3    H256519   3.486   4.581  12.470  1.3826  2.3970 -0.0920
11702TIP3   OH256520   2.937   2.361   3.090  0.5090  0.2730  0.0395
11702TIP3    H156521   2.896   2.279   3.117  2.1937 -1.2160 -1.8057
11702TIP3    H256522   2.970   2.399   3.172 -1.3689 -0.2381  1.0754
11703TIP3   OH256523   6.585   4.998  16.216  0.1166 -0.0282 -0.0477
11703TIP3    H156524   6.661   4.957  16.174  0.5487 -0.1750  0.8628
11703TIP3    H256525   6.510   4.969  16.163  0.5122 -1.2809  0.0543
11704TIP3   OH256526   2.283   4.441   5.758 -0.8117  0.2983 -0.5004
11704TIP3    H156527   2.218   4.501   5.794 -1.1108 -0.5037  0.3009
11704TIP3    H256528   2.367   4.474   5.790 -0.8723  0.9198 -0.9601
11705TIP3   OH256529   4.676   6.489   6.939 -0.1045  0.7619  0.5176
11705TIP3    H156530   4.743   6.470   7.005  0.0218  0.2778  0.2509
11705TIP3    H256531   4.725   6.503   6.858 -0.4402 -1.7520 -0.1696
11706TIP3   OH256532   2.768   5.855  14.806  0.5538  0.0579 -0.3425
11706TIP3    H156533   2.772   5.763  14.778  0.8334  0.4507 -1.6247
11706TIP3    H256534   2.679   5.882  14.786  0.9586  0.5440 -1.5478
11707TIP3   OH256535   5.738   3.978   0.277  0.4246  0.0333  0.3265
11707TIP3    H156536   5.743   3.901   0.333 -0.6704 -0.8976 -0.8269
11707TIP3    H256537   5.703   3.946   0.194 -1.0759  1.9318  0.1746
11708TIP3   OH256538   2.992   6.604  13.966  0.0235  0.1387 -0.0206
11708TIP3    H156539   3.074   6.555  13.974  0.3945  0.8223  0.3941
11708TIP3    H256540   2.983   6.621  13.873  0.4686  0.2518 -0.0418
11709TIP3   OH256541   0.650   0.521  12.290 -0.4790  0.1074  0.0783
11709TIP3    H156542   0.700   0.534  12.371  2.9599  2.2815 -2.2422
11709TIP3    H256543   0.669   0.431  12.264  0.5462  0.2527  0.3222
11710TIP3   OH256544   5.959   5.488  12.359 -0.3133  0.5293  0.1523
11710TIP3    H156545   5.959   5.583  12.348  1.5257  0.4711 -0.5868
11710TIP3    H256546   5.999   5.455  12.279 -0.3263 -0.8260  0.6927
11711TIP3   OH256547   1.790   3.227  15.443 -0.2097  0.2858 -0.2332
11711TIP3    H156548   1.864   3.278  15.410  0.7344  0.4307  2.0393
11711TIP3    H256549   1.829   3.155  15.491 -1.5221 -2.7756 -3.4952
11712TIP3   OH256550   4.748   3.954   4.880  0.1238  0.1279 -0.0785
11712TIP3    H156551   4.835   3.982   4.852  0.0004  1.6562  0.9870
11712TIP3    H256552   4.689   3.992   4.815  0.0877  1.0831  0.4898
11713TIP3   OH256553   6.501   4.665   6.612 -0.2383  0.2001  0.1217
11713TIP3    H156554   6.584   4.708   6.589 -2.0093  2.6399 -1.8832
11713TIP3    H256555   6.475   4.707   6.694 -0.5664  0.9726 -0.3752
11714TIP3   OH256556   2.687   2.425   1.706  0.1501 -0.7858  0.1018
11714TIP3    H156557   2.655   2.507   1.742 -0.6590 -1.3840  0.7720
11714TIP3    H256558   2.702   2.443   1.613  1.2312  0.4682  0.5103
11715TIP3   OH256559   1.744   3.509   1.680 -0.0243  0.2716 -0.6408
11715TIP3    H156560   1.774   3.522   1.770  1.1869 -0.5243 -0.9119
11715TIP3    H256561   1.817   3.541   1.626 -1.6613  2.8764 -1.3741
11716TIP3   OH256562   0.965   3.425  11.877 -0.1225  0.8410 -0.7052
11716TIP3    H156563   0.993   3.502  11.926 -1.1114  1.5272 -1.1747
11716TIP3    H256564   0.874   3.445  11.853 -0.5041 -0.6349 -0.5261
11717TIP3   OH256565   3.460   5.765   3.669  0.0081  0.4304  0.1535
11717TIP3    H156566   3.553   5.745   3.654 -0.4400 -0.9956 -0.8512
11717TIP3    H256567   3.453   5.859   3.656  1.2533  0.4966 -0.0960
11718TIP3   OH256568   6.761   1.076   0.384  0.2281  0.1916 -0.4070
11718TIP3    H156569   6.760   1.067   0.289 -0.9976 -1.9234 -0.2130
11718TIP3    H256570   6.740   1.168   0.399  2.1921  0.9955 -2.2005
11719TIP3   OH256571   3.096   1.290  16.020 -0.1572  0.2983  0.2378
11719TIP3    H156572   3.074   1.212  15.969 -1.1967  1.4727 -1.1581
11719TIP3    H256573   3.185   1.312  15.993 -0.1817  0.0856 -0.0206
11720TIP3   OH256574   1.498   5.840   6.037  0.0339 -0.5177  0.6440
11720TIP3    H156575   1.519   5.821   6.128  1.3820 -1.6727  0.1220
11720TIP3    H256576   1.532   5.928   6.021  2.3836 -1.4155  0.4955
11721TIP3   OH256577   5.049   5.536   3.082 -0.1459 -0.0800  0.7576
11721TIP3    H156578   4.967   5.527   3.033  0.0108  1.1561  0.2682
11721TIP3    H256579   5.026   5.508   3.171 -1.2053  0.6793  0.7286
11722TIP3   OH256580   0.662   1.178  11.821 -0.5374  0.6452  0.3488
11722TIP3    H156581   0.734   1.187  11.759 -0.4472  0.9147  0.4912
11722TIP3    H256582   0.583   1.192  11.769 -0.4710  0.6687  0.2542
11723TIP3   OH256583   2.654   4.748  15.922  0.7402  0.2162 -0.3987
11723TIP3    H156584   2.713   4.822  15.929  2.7401 -1.1745 -2.1614
11723TIP3    H256585   2.680   4.702  15.842  0.3686 -3.0580  1.2498
11724TIP3   OH256586   6.757   4.671   4.212  0.0792  0.8319 -0.2020
11724TIP3    H156587   6.786   4.763   4.211 -0.5433  1.0264 -0.9455
11724TIP3    H256588   6.780   4.638   4.125  1.4266 -0.0849  0.4786
11725TIP3   OH256589   5.014   1.155  11.663  0.1563 -0.4157 -0.6737
11725TIP3    H156590   5.039   1.175  11.753  0.7395 -0.0494 -0.9196
11725TIP3    H256591   5.079   1.198  11.609 -0.4688 -0.2313 -1.2922
11726TIP3   OH256592   1.491   3.525  16.736  0.3559 -0.4724  0.4669
11726TIP3    H156593   1.398   3.549  16.745  0.8664  1.3149  1.1888
11726TIP3    H256594   1.538   3.599  16.772  2.0205 -3.1098  3.9699
11727TIP3   OH256595   6.175   4.264   3.071  0.9859 -0.0362 -0.1561
11727TIP3    H156596   6.229   4.186   3.060 -0.1857 -0.7607 -0.8187
11727TIP3    H256597   6.091   4.241   3.032 -0.0557  0.8108  1.5304
11728TIP3   OH256598   3.736   4.797   0.309  0.3446 -0.2044  0.2031
11728TIP3    H156599   3.720   4.816   0.401  1.4432  1.4337  0.0787
11728TIP3    H256600   3.812   4.738   0.309 -1.0176 -2.0189  0.4233
11729TIP3   OH256601   2.470   1.073  13.774  0.0899  0.0217 -0.2878
11729TIP3    H156602   2.520   1.070  13.692 -0.1578 -0.7358 -0.4212
11729TIP3    H256603   2.387   1.029  13.753 -0.0636  0.0245  0.3045
11730TIP3   OH256604   4.320   2.787  10.633  0.4134 -0.0353 -0.1760
11730TIP3    H156605   4.376   2.781  10.556 -0.6957  0.0148 -1.0083
11730TIP3    H256606   4.349   2.716  10.689  2.4668  1.0632  0.2044
11731TIP3   OH256607   0.073   2.741  17.080 -0.2238  0.3286 -0.1365
11731TIP3    H156608   0.117   2.656  17.077 -1.2057 -0.2332  0.9131
11731TIP3    H256609   0.071   2.763  17.173 -2.0074  0.4112 -0.1799
11732TIP3   OH256610   5.981   0.949  14.534 -1.0093  0.4695  0.4391
11732TIP3    H156611   5.900   0.997  14.548 -0.4611  1.1011  1.5203
11732TIP3    H256612   6.034   0.967  14.612 -0.0646 -0.4041  0.0194
11733TIP3   OH256613   0.979   0.466  13.978  0.1437  0.3122 -0.2171
11733TIP3    H156614   0.966   0.539  13.919  1.1647  0.1801 -0.6235
11733TIP3    H256615   1.063   0.429  13.952 -0.4418 -1.1100 -0.1215
11734TIP3   OH256616   4.408   5.011   3.473 -0.6610 -0.3500  0.2724
11734TIP3    H156617   4.405   4.918   3.452 -1.0813 -0.1486 -0.6250
11734TIP3    H256618   4.416   5.015   3.568 -1.7346 -1.2912  0.4088
11735TIP3   OH256619   3.262   5.971   0.719 -0.6286 -0.0925  0.0013
11735TIP3    H156620   3.191   5.951   0.781 -1.2425  0.2724 -0.5719
11735TIP3    H256621   3.217   6.012   0.645 -0.0567 -1.5599 -1.1879
11736TIP3   OH256622   4.004   1.367   5.957 -0.1626  0.3695 -0.0244
11736TIP3    H156623   4.091   1.362   5.996  0.4276  2.1315 -1.0835
11736TIP3    H256624   3.999   1.289   5.901  1.6576  1.4929 -1.7915
11737TIP3   OH256625   3.078   3.241   4.635 -0.2281 -0.2214  0.8487
11737TIP3    H156626   3.078   3.311   4.700 -0.4006 -0.6982  1.3734
11737TIP3    H256627   3.138   3.270   4.567  1.8914 -0.8187  2.4291
11738TIP3   OH256628   1.031   2.610  16.967 -0.3678  0.3212 -0.0657
11738TIP3    H156629   1.106   2.627  17.023 -0.8470  0.5037  0.5282
11738TIP3    H256630   1.027   2.685  16.908 -0.2184  0.4206  0.0511
11739TIP3   OH256631   5.586   5.844  12.690  0.1201  0.1687  0.0671
11739TIP3    H156632   5.535   5.910  12.644  1.0195  1.0709  0.3702
11739TIP3    H256633   5.570   5.861  12.783  0.3006 -0.0781  0.1451
11740TIP3   OH256634   0.583   3.782   5.897 -0.0772  0.1037  0.2704
11740TIP3    H156635   0.542   3.735   5.825  1.3987  0.9333 -1.1473
11740TIP3    H256636   0.527   3.859   5.911  0.4236  0.6978 -0.9696
11741TIP3   OH256637   4.732   4.582  13.159  0.0152 -0.8409 -0.2632
11741TIP3    H156638   4.711   4.493  13.131 -0.5908 -0.7332 -0.1641
11741TIP3    H256639   4.828   4.585  13.160  0.0527 -1.9143  1.0737
11742TIP3   OH256640   5.595   1.906   0.159  0.1362 -0.0039  0.2513
11742TIP3    H156641   5.568   1.899   0.067  0.7511 -1.3861  0.1472
11742TIP3    H256642   5.653   1.831   0.172 -1.8170 -1.2132  2.4339
11743TIP3   OH256643   3.359   4.230   0.827  0.0343 -0.2329  0.7021
11743TIP3    H156644   3.316   4.294   0.883 -3.5670 -1.6948 -0.2306
11743TIP3    H256645   3.357   4.268   0.739  0.9229 -0.2019  0.6878
11744TIP3   OH256646   0.261   1.110  12.681 -0.2235  0.3308  0.4847
11744TIP3    H156647   0.298   1.080  12.599 -0.2288 -1.7070  1.1867
11744TIP3    H256648   0.336   1.117  12.740 -0.5318 -0.8204  1.0377
11745TIP3   OH256649   6.456   1.298  16.671 -0.7252 -0.1740 -0.0473
11745TIP3    H156650   6.488   1.332  16.588 -0.4997  1.2820  0.6266
11745TIP3    H256651   6.535   1.286  16.724 -1.1664  2.2479  1.1911
11746TIP3   OH256652   4.847   3.086  14.416  0.2805 -0.0899  0.8741
11746TIP3    H156653   4.787   3.021  14.451  0.1096  0.2306  1.1804
11746TIP3    H256654   4.799   3.169  14.421 -0.1657 -0.2068 -1.1602
11747TIP3   OH256655   6.632   1.090  12.912 -0.4853  0.2600  0.0708
11747TIP3    H156656   6.718   1.051  12.930  1.0853  3.0771 -0.9826
11747TIP3    H256657   6.622   1.158  12.978 -2.3586 -0.6240  0.7432
11748TIP3   OH256658   4.294   4.375   0.753  0.4391 -0.1179 -0.2370
11748TIP3    H156659   4.379   4.349   0.788 -0.1415 -1.2564  0.3387
11748TIP3    H256660   4.315   4.420   0.671  1.8075  2.4207  1.3986
11749TIP3   OH256661   2.752   4.148  16.849 -0.6386 -0.4107 -0.6806
11749TIP3    H156662   2.679   4.091  16.873  0.9419 -2.1119  0.2128
11749TIP3    H256663   2.811   4.145  16.924 -0.3382  2.1359 -0.7662
11750TIP3   OH256664   5.761   0.376  15.224 -0.5164  0.4132 -1.0667
11750TIP3    H156665   5.825   0.365  15.153  1.2381 -0.5880  0.5944
11750TIP3    H256666   5.795   0.449  15.276 -2.2355  1.6844 -1.7052
11751TIP3   OH256667   2.534   2.655  17.041 -0.9211  0.3675  0.4874
11751TIP3    H156668   2.569   2.618  17.122 -0.4601  0.7792  0.4751
11751TIP3    H256669   2.609   2.698  16.999 -1.5573  1.7174  0.7192
11752TIP3   OH256670   3.059   6.446  12.504 -0.0188  0.5660 -0.1160
11752TIP3    H156671   3.025   6.385  12.439  0.2788 -0.1552  0.3988
11752TIP3    H256672   2.984   6.467  12.559  0.4848 -1.5397  1.4224
11753TIP3   OH256673   0.352   3.294   3.479  0.1281  0.0123 -0.3299
11753TIP3    H156674   0.298   3.258   3.549 -0.3154  1.4207  0.0686
11753TIP3    H256675   0.368   3.385   3.505  0.0982  0.4988 -1.9696
11754TIP3   OH256676   3.754   0.273  14.139 -0.1437 -0.0421  0.1300
11754TIP3    H156677   3.792   0.192  14.172  0.0454  0.2024  0.5134
11754TIP3    H256678   3.812   0.342  14.171 -0.2716  0.2425 -0.2429
11755TIP3   OH256679   0.717   4.752  10.378  0.2129  0.7114  0.4651
11755TIP3    H156680   0.803   4.782  10.349 -0.7194  2.4697 -0.5310
11755TIP3    H256681   0.655   4.814  10.339 -1.7250 -2.1452 -1.1903
11756TIP3   OH256682   0.440   5.611   3.288  0.4078  0.2456 -0.1141
11756TIP3    H156683   0.437   5.635   3.380 -1.0661  1.0083 -0.3442
11756TIP3    H256684   0.455   5.516   3.288  2.2408  0.5007  0.8618
11757TIP3   OH256685   0.862   0.553   2.322 -0.9976  0.3109 -0.3244
11757TIP3    H156686   0.945   0.535   2.278 -0.3215 -1.0167  1.4188
11757TIP3    H256687   0.821   0.467   2.332 -0.7529  0.4523  2.3131
11758TIP3   OH256688   2.909   3.389  14.152 -0.0848  0.0008  0.2393
11758TIP3    H156689   2.900   3.347  14.237 -0.4316 -1.7592 -0.6469
11758TIP3    H256690   2.836   3.355  14.100  0.0887  1.0972 -0.7487
11759TIP3   OH256691   2.749   5.706  11.891 -0.3771 -0.1435  0.0918
11759TIP3    H156692   2.833   5.715  11.848 -0.6992 -0.4468 -0.6012
11759TIP3    H256693   2.709   5.793  11.885 -0.0633  0.0325  0.5317
11760TIP3   OH256694   1.910   6.776   3.622 -0.2198 -0.7488 -0.5662
11760TIP3    H156695   1.974   6.724   3.574  1.1600  0.6348 -0.2893
11760TIP3    H256696   1.947   6.782   3.711 -0.9630 -0.3278 -0.2859
11761TIP3   OH256697   4.570   0.539   0.603  0.0831 -0.0121  0.2218
11761TIP3    H156698   4.599   0.511   0.690 -1.5987  0.3029  0.9052
11761TIP3    H256699   4.507   0.472   0.576 -0.4002  0.5990 -0.1736
11762TIP3   OH256700   0.078   6.670  13.911  0.1579 -0.1854  0.0795
11762TIP3    H156701   0.127   6.592  13.885 -1.6238 -1.2887 -0.0197
11762TIP3    H256702   0.105   6.737  13.849  3.7611  0.0750  1.8197
11763TIP3   OH256703   4.902   4.082  15.732 -0.4135 -0.0117  0.0711
11763TIP3    H156704   4.905   4.118  15.821  0.1455 -0.8227  0.3889
11763TIP3    H256705   4.934   4.152  15.676 -1.2423  0.6782  0.4585
11764TIP3   OH256706   6.296   2.864   3.069 -0.3570  0.2503 -0.0807
11764TIP3    H156707   6.215   2.817   3.050 -1.2252  1.4446  0.6037
11764TIP3    H256708   6.270   2.936   3.127  1.2180  0.5339  0.3227
11765TIP3   OH256709   6.146   3.405  11.261 -0.1827  0.0006 -0.1686
11765TIP3    H156710   6.222   3.347  11.255 -1.0674 -1.4486  1.8760
11765TIP3    H256711   6.082   3.367  11.202  0.2158  0.4709 -0.9048
11766TIP3   OH256712   4.284   3.349  14.097 -0.5689  0.1874  0.4937
11766TIP3    H156713   4.371   3.378  14.124 -0.1869 -0.5881  0.1095
11766TIP3    H256714   4.285   3.356  14.001 -0.9582  0.2669  0.4944
11767TIP3   OH256715   4.842   1.511   1.790  0.5531 -0.0048 -0.1469
11767TIP3    H156716   4.794   1.573   1.845  1.8305 -1.0926  2.2475
11767TIP3    H256717   4.916   1.561   1.756  0.5481  0.2828  0.2686
11768TIP3   OH256718   1.096   1.698   1.504 -0.2619  0.2700 -0.4455
11768TIP3    H156719   1.012   1.653   1.497 -0.4294  0.5393 -0.1532
11768TIP3    H256720   1.122   1.686   1.595  1.4893 -2.4542 -1.2262
11769TIP3   OH256721   2.323   5.439  14.577  0.5993  0.0195 -0.1385
11769TIP3    H156722   2.361   5.352  14.574  1.3351  0.3146  0.3948
11769TIP3    H256723   2.256   5.439  14.509 -2.3968 -2.3588  2.6264
11770TIP3   OH256724   0.053   1.674  14.724 -0.2431 -0.8572  0.0572
11770TIP3    H156725   0.083   1.744  14.783  0.3190 -1.1280  0.0977
11770TIP3    H256726  -0.035   1.653  14.754  0.1397 -1.1679  0.9587
11771TIP3   OH256727   4.920   1.330  15.126 -0.6072 -0.4164  0.1246
11771TIP3    H156728   4.961   1.406  15.083 -1.1046  0.2139  0.7675
11771TIP3    H256729   4.994   1.276  15.154 -0.1957  0.9225  1.6467
11772TIP3   OH256730   2.569   0.051  11.873  0.3532 -0.1796 -0.0766
11772TIP3    H156731   2.641   0.044  11.811 -0.6151 -1.1741 -1.1232
11772TIP3    H256732   2.559  -0.037  11.910 -0.2091 -0.0110  0.1930
11773TIP3   OH256733   6.496   2.729  14.308  0.5741 -0.0735  0.2968
11773TIP3    H156734   6.515   2.645  14.350  1.9385  0.0488 -0.0666
11773TIP3    H256735   6.579   2.756  14.269 -0.6252 -0.1583 -2.4516
11774TIP3   OH256736   1.984   1.639  15.562  0.2155 -0.7697 -0.3132
11774TIP3    H156737   2.037   1.560  15.572  1.2673  0.0284  0.6379
11774TIP3    H256738   2.015   1.697  15.633 -0.8980  0.2795 -0.6731
11775TIP3   OH256739   4.663   1.818   4.445  0.0143  0.2282 -0.2277
11775TIP3    H156740   4.590   1.765   4.478  0.7727  0.2850  1.6340
11775TIP3    H256741   4.627   1.863   4.369 -1.8315  0.0740  0.5081
11776TIP3   OH256742   0.206   6.282  16.740  0.3832  0.4500  0.2322
11776TIP3    H156743   0.286   6.333  16.725  0.3346  0.3380 -0.3824
11776TIP3    H256744   0.139   6.326  16.688 -0.3243  1.4766  1.9504
11777TIP3   OH256745   3.467   5.600   0.093  0.0654 -0.1009  0.0787
11777TIP3    H156746   3.544   5.544   0.105  0.4558  0.4800  0.2565
11777TIP3    H256747   3.423   5.563   0.016  1.2198  0.3620 -0.8156
11778TIP3   OH256748   3.965   4.273  15.983 -0.3133 -0.4023 -0.5616
11778TIP3    H156749   3.941   4.181  15.992  1.1657 -0.8947 -1.3619
11778TIP3    H256750   4.033   4.286  16.050  0.1511 -0.1593 -1.0744
11779TIP3   OH256751   2.203   1.549  12.360 -0.0885  0.4817 -0.0120
11779TIP3    H156752   2.283   1.570  12.312 -0.2448  0.4239 -0.2955
11779TIP3    H256753   2.132   1.581  12.305 -0.2535  0.6861  0.3201
11780TIP3   OH256754   3.601   0.027  16.994  0.0617  0.0747 -0.2966
11780TIP3    H156755   3.611   0.070  17.079 -2.5487 -0.2332  0.2019
11780TIP3    H256756   3.573   0.096  16.935  1.1581  0.1328 -0.7668
11781TIP3   OH256757   2.562   5.726  16.641  0.4160 -0.0620 -0.2704
11781TIP3    H156758   2.630   5.793  16.643 -0.3192  0.6962 -0.3646
11781TIP3    H256759   2.578   5.674  16.720  1.4632 -0.2552 -0.6024
11782TIP3   OH256760   3.746   2.439   0.083  0.1177  0.0255  0.1080
11782TIP3    H156761   3.704   2.361   0.045 -0.5988  0.4680 -0.0350
11782TIP3    H256762   3.797   2.405   0.156 -3.4904 -0.1499  2.6966
11783TIP3   OH256763   3.990   5.488   3.374  0.0447  0.0089 -0.1880
11783TIP3    H156764   4.049   5.447   3.437  1.2244 -0.5263 -1.5930
11783TIP3    H256765   3.943   5.415   3.334 -0.5870  0.3320 -0.0484
11784TIP3   OH256766   3.387   3.767   0.348  0.4195 -0.0125  0.1630
11784TIP3    H156767   3.407   3.676   0.368  2.9267  0.5453  0.3568
11784TIP3    H256768   3.326   3.763   0.274  0.5324 -1.8193  0.1476
11785TIP3   OH256769   6.552   1.450  15.286  0.1524 -0.4920  0.6869
11785TIP3    H156770   6.591   1.482  15.367 -0.9613  1.6059  0.4253
11785TIP3    H256771   6.459   1.470  15.294 -0.1925 -1.5431 -0.5130
11786TIP3   OH256772   6.731   2.881  12.734 -0.4346 -0.3049  0.2982
11786TIP3    H156773   6.662   2.824  12.700 -0.8174  1.4910 -2.0413
11786TIP3    H256774   6.684   2.951  12.780 -0.0491 -0.7627  1.3962
11787TIP3   OH256775   4.306   1.427   2.504  0.6757 -0.1803 -0.0080
11787TIP3    H156776   4.308   1.348   2.559  2.3686 -0.2238 -0.1002
11787TIP3    H256777   4.360   1.490   2.551 -1.5236  1.3112  0.5828
11788TIP3   OH256778   1.431   1.775  11.571  0.1847 -0.0754  0.9581
11788TIP3    H156779   1.475   1.699  11.534  0.5265  0.3161  0.5660
11788TIP3    H256780   1.339   1.763  11.547  0.2708 -0.2499  0.7090
11789TIP3   OH256781   2.593   1.007   1.364  0.8145 -0.1779  1.0159
11789TIP3    H156782   2.587   1.060   1.444 -0.3715  1.1852  0.0495
11789TIP3    H256783   2.665   1.047   1.315  1.7468 -1.2089  1.5279
11790TIP3   OH256784   2.530   1.442   3.018 -0.1165  0.0790  0.1908
11790TIP3    H156785   2.468   1.431   3.090 -1.8946  0.4797 -1.2628
11790TIP3    H256786   2.495   1.514   2.966  0.6352 -0.8366 -1.6197
11791TIP3   OH256787   2.943   6.210  11.633  0.3143  0.2016 -0.3833
11791TIP3    H156788   2.976   6.127  11.598  1.8663  0.9277 -0.6757
11791TIP3    H256789   3.018   6.248  11.678 -0.7691  0.8125  0.9489
11792TIP3   OH256790   3.334   3.903  14.026 -0.0437  0.0129  0.4191
11792TIP3    H156791   3.412   3.888  14.079 -0.8384  0.7926  1.8045
11792TIP3    H256792   3.368   3.936  13.943  1.1052  0.2702  0.9860
11793TIP3   OH256793   4.459   4.754  15.719  0.0440 -0.1923  0.1709
11793TIP3    H156794   4.451   4.717  15.807 -1.5695 -0.4692 -0.0828
11793TIP3    H256795   4.369   4.763  15.689  0.5569  0.8627 -1.0623
11794TIP3   OH256796   2.513   4.775   2.727  0.2257 -0.7509 -0.3538
11794TIP3    H156797   2.455   4.850   2.713  0.0398 -0.9644 -0.7450
11794TIP3    H256798   2.473   4.726   2.799 -0.1588 -0.9741 -0.7188
11795TIP3   OH256799   4.659   1.996   4.190 -0.6777  0.1411 -0.9162
11795TIP3    H156800   4.738   2.008   4.137 -0.7645 -0.4347 -1.1848
11795TIP3    H256801   4.599   1.949   4.132  0.1013 -2.6832  0.5013
11796TIP3   OH256802   0.816   4.532   3.903  0.0805  0.3352 -0.4545
11796TIP3    H156803   0.741   4.516   3.846 -1.8035  0.1322  1.9882
11796TIP3    H256804   0.892   4.513   3.849 -1.6801 -1.2654 -2.4534
11797TIP3   OH256805   6.699   3.395   1.910  0.1849  0.1679  0.3697
11797TIP3    H156806   6.772   3.353   1.866  0.9643 -0.4576  2.2258
11797TIP3    H256807   6.717   3.489   1.902  0.3735  0.0639 -0.5097
11798TIP3   OH256808   0.886   6.288   1.338  0.2005  0.5428  0.3345
11798TIP3    H156809   0.830   6.317   1.266 -0.7212  2.5014  1.8199
11798TIP3    H256810   0.968   6.264   1.295 -0.3152  1.7483 -1.3912
11799TIP3   OH256811   6.634   6.081   4.114 -0.1673 -0.5189  0.1728
11799TIP3    H156812   6.668   6.121   4.194 -1.4830 -0.1128  0.5423
11799TIP3    H256813   6.551   6.042   4.141 -0.5791 -0.4467 -0.9785
11800TIP3   OH256814   2.355   3.248   3.293 -0.0260 -0.2143  0.5247
11800TIP3    H156815   2.319   3.159   3.300  0.4950 -0.6183 -1.6839
11800TIP3    H256816   2.288   3.298   3.247  1.2053 -0.3717 -1.4572
11801TIP3   OH256817   0.844   4.189  15.897 -0.5378 -0.4517 -0.0213
11801TIP3    H156818   0.812   4.176  15.986 -0.8858  0.6130  0.0191
11801TIP3    H256819   0.844   4.284  15.885 -0.1626 -0.5703 -1.0337
11802TIP3   OH256820   0.445   6.251   6.526 -0.1077 -0.2983  0.0026
11802TIP3    H156821   0.352   6.272   6.518  0.4057  1.6879 -1.1537
11802TIP3    H256822   0.452   6.160   6.496 -1.5321 -0.1478 -0.8321
11803TIP3   OH256823   6.726   5.948   0.655 -0.1902 -0.1106 -0.4306
11803TIP3    H156824   6.761   5.901   0.579  0.7404  1.3919 -0.9611
11803TIP3    H256825   6.660   6.007   0.618 -0.1640  0.1880 -0.0007
11804TIP3   OH256826   5.809   6.706  16.527 -0.2096 -0.4969 -0.2268
11804TIP3    H156827   5.817   6.795  16.561 -0.9138 -0.1121 -1.0577
11804TIP3    H256828   5.715   6.689  16.524 -0.3165  0.2656 -3.9112
11805TIP3   OH256829   2.782   4.845  15.115  0.3023 -0.2200 -0.3939
11805TIP3    H156830   2.842   4.875  15.184  0.3793 -0.9562 -0.1414
11805TIP3    H256831   2.726   4.781  15.159  0.6327 -1.0103 -1.1165
11806TIP3   OH256832   2.983   3.313  10.653  0.3954  0.2903 -1.2147
11806TIP3    H156833   2.912   3.323  10.590  0.2545  1.2288 -0.9135
11806TIP3    H256834   2.966   3.229  10.695 -0.3599  0.3658 -1.3586
11807TIP3   OH256835   1.013   3.004   1.561  0.0719  0.0443 -0.2390
11807TIP3    H156836   1.005   2.949   1.483  1.5921  0.7819 -0.9463
11807TIP3    H256837   0.938   3.063   1.557 -0.1601 -0.2908 -0.8495
11808TIP3   OH256838   6.255   3.827  15.588 -0.0446  0.1297  0.0795
11808TIP3    H156839   6.209   3.834  15.504 -0.3212  0.1251  0.2303
11808TIP3    H256840   6.188   3.846  15.653  0.0665 -0.2942  0.3214
11809TIP3   OH256841   1.659   2.570  14.190 -0.6149 -0.7961 -0.4545
11809TIP3    H156842   1.613   2.523  14.260  0.0670 -0.6679  0.0875
11809TIP3    H256843   1.614   2.654  14.183  1.9813  0.9858  2.8433
11810TIP3   OH256844   6.069   1.649   1.854  0.2321 -0.4882  0.0133
11810TIP3    H156845   6.017   1.591   1.798  1.1110 -0.9536 -0.3258
11810TIP3    H256846   6.159   1.640   1.822  0.3994  0.9666  0.0460
11811TIP3   OH256847   2.027   2.796   0.011 -0.0164  0.1516  0.0497
11811TIP3    H156848   2.090   2.843   0.065 -0.2665  1.0017 -0.3698
11811TIP3    H256849   1.970   2.865  -0.024  0.5834 -0.2946 -1.8610
11812TIP3   OH256850   2.536   3.245   3.043  0.1577 -0.2286 -0.8157
11812TIP3    H156851   2.486   3.244   3.124  2.2629 -1.9605  0.5452
11812TIP3    H256852   2.541   3.337   3.018  0.7007  0.4955  1.8161
11813TIP3   OH256853   0.867   1.975   2.565 -0.1717  0.2974  0.2010
11813TIP3    H156854   0.809   1.899   2.557 -1.0773  0.8927  0.9320
11813TIP3    H256855   0.933   1.962   2.498  0.3604 -1.7304  1.0665
11814TIP3   OH256856   4.765   4.313   6.583  0.2073 -0.5420 -0.0632
11814TIP3    H156857   4.821   4.275   6.516  2.1134 -0.0300  1.2228
11814TIP3    H256858   4.736   4.396   6.545 -1.4126 -1.7383 -1.5689
11815TIP3   OH256859   2.190   3.168   4.444  0.3832  0.2249 -0.0282
11815TIP3    H156860   2.282   3.192   4.433  1.0393 -0.6272  3.1128
11815TIP3    H256861   2.189   3.110   4.520 -2.5623 -1.1169 -0.9987
11816TIP3   OH256862   6.620   0.482  14.828 -0.2639 -0.1508 -0.2646
11816TIP3    H156863   6.582   0.438  14.752  0.7674 -1.4241 -0.0541
11816TIP3    H256864   6.589   0.573  14.821  0.9315  0.0995 -2.9823
11817TIP3   OH256865   5.373   1.187  13.518  0.2291 -0.4953 -0.1339
11817TIP3    H156866   5.407   1.251  13.456  1.3230 -0.0821  0.8806
11817TIP3    H256867   5.422   1.107  13.499  0.1579 -0.5279 -0.1806
11818TIP3   OH256868   6.368   2.109   1.239 -0.0092  0.5260  0.0157
11818TIP3    H156869   6.406   2.184   1.285 -1.4249  1.1131  0.2626
11818TIP3    H256870   6.337   2.051   1.308  1.3268 -0.4355 -0.1705
11819TIP3   OH256871   0.590   4.618   2.568  0.0327  0.4025  0.3010
11819TIP3    H156872   0.545   4.584   2.491  1.9757 -2.5227  0.3853
11819TIP3    H256873   0.535   4.691   2.597 -0.8652  1.4532 -3.6915
11820TIP3   OH256874   1.216   0.048  15.794  0.1159 -0.2169 -0.0015
11820TIP3    H156875   1.311   0.041  15.798  0.3036  1.9121 -0.2138
11820TIP3    H256876   1.200   0.121  15.734 -1.6724 -0.9629 -0.4657
11821TIP3   OH256877   5.024   4.353   1.205  0.1997 -0.3134 -0.2804
11821TIP3    H156878   5.088   4.284   1.192 -1.3321 -2.0213  0.9611
11821TIP3    H256879   4.947   4.325   1.155 -0.8223 -0.0775  1.1080
11822TIP3   OH256880   5.904   3.622  15.708 -0.4173  0.0317  0.1331
11822TIP3    H156881   5.961   3.549  15.683 -0.8915  0.6205 -2.8421
11822TIP3    H256882   5.818   3.583  15.721 -0.2818 -0.2025  0.3255
11823TIP3   OH256883   2.158   1.394  13.957  0.2980 -0.0389 -0.0853
11823TIP3    H156884   2.251   1.409  13.942  0.1541 -0.0574 -0.9849
11823TIP3    H256885   2.114   1.460  13.904 -0.1612  1.5775  2.2336
11824TIP3   OH256886   4.397   0.581   1.449  0.0042  0.3622  0.4860
11824TIP3    H156887   4.430   0.660   1.406  0.8447  0.8653  2.0232
11824TIP3    H256888   4.348   0.536   1.380  1.3011  1.1466 -1.0039
11825TIP3   OH256889   0.108   2.743  15.931  1.1084  0.5235 -0.2118
11825TIP3    H156890   0.067   2.810  15.876 -0.1153 -0.0022  0.0361
11825TIP3    H256891   0.202   2.757  15.921  0.8698  1.5718 -1.0253
11826TIP3   OH256892   2.170   0.538  14.307 -0.4266 -0.3258  0.3348
11826TIP3    H156893   2.189   0.486  14.385  0.8209  1.7325  1.4634
11826TIP3    H256894   2.253   0.538  14.258 -1.5017 -2.5043 -1.5873
11827TIP3   OH256895   4.964   0.803   3.033  0.4292  0.2605  0.2834
11827TIP3    H156896   4.869   0.796   3.023  0.4114 -1.6492  1.4131
11827TIP3    H256897   4.976   0.821   3.126  1.1684  0.8770  0.0699
11828TIP3   OH256898   3.658   5.520  11.549  0.1094  0.2630 -0.3497
11828TIP3    H156899   3.645   5.529  11.454 -0.3385  0.8214 -0.2351
11828TIP3    H256900   3.630   5.430  11.568  1.9780 -0.5032 -1.0395
11829TIP3   OH256901   2.824   2.993   5.462  0.3684  0.4029  0.6154
11829TIP3    H156902   2.790   2.955   5.381  0.9858 -0.9071  0.9570
11829TIP3    H256903   2.759   3.059   5.488 -0.9131 -0.7111  0.2309
11830TIP3   OH256904   1.314   3.700  13.624 -0.1373  0.6728 -0.2207
11830TIP3    H156905   1.337   3.613  13.591  1.1427  1.5121 -1.6036
11830TIP3    H256906   1.362   3.708  13.706 -0.2521  0.0900 -0.0940
11831TIP3   OH256907   1.759   5.700  13.080 -0.0380 -0.1646  0.3209
11831TIP3    H156908   1.744   5.644  13.005  1.1255  0.1572 -0.1697
11831TIP3    H256909   1.825   5.763  13.050 -0.1337  0.4470  1.3625
11832TIP3   OH256910   6.636   1.049  11.571  0.5105 -0.0867 -0.0766
11832TIP3    H156911   6.543   1.044  11.550  0.4989  2.5222 -0.7764
11832TIP3    H256912   6.675   0.974  11.526 -0.9898 -0.1854 -1.2390
11833TIP3   OH256913   0.373   0.156  16.436 -0.5113  0.3719  0.4846
11833TIP3    H156914   0.377   0.061  16.448  0.8783  0.3707  0.1035
11833TIP3    H256915   0.354   0.167  16.343 -2.3442  0.4688  0.8442
11834TIP3   OH256916   4.193   6.145   4.500 -0.1902  0.3732  0.5369
11834TIP3    H156917   4.251   6.136   4.425 -3.0242  1.2014 -1.8359
11834TIP3    H256918   4.226   6.221   4.548  0.2966  1.2268 -1.1426
11835TIP3   OH256919   0.046   1.268  13.376  0.4438 -0.1603 -0.0509
11835TIP3    H156920   0.109   1.220  13.322  2.1553  2.0335 -0.0966
11835TIP3    H256921  -0.038   1.227  13.358  1.2675 -0.6691 -2.9830
11836TIP3   OH256922   4.898   0.685  16.867  0.2494  0.8201 -0.3419
11836TIP3    H156923   4.938   0.649  16.947 -1.0032 -0.1352 -0.1170
11836TIP3    H256924   4.846   0.759  16.898  0.6108  1.1054 -0.4173
11837TIP3   OH256925   1.676   5.292   1.727 -0.1769 -0.1062  0.2143
11837TIP3    H156926   1.710   5.340   1.651 -1.8937  0.3066 -0.3314
11837TIP3    H256927   1.734   5.216   1.736  0.7259  0.4506 -0.8071
11838TIP3   OH256928   4.510   6.294  12.729  0.1313  0.2163  0.4427
11838TIP3    H156929   4.469   6.229  12.787  0.0320 -0.4018 -0.3057
11838TIP3    H256930   4.440   6.321  12.670  0.6698 -0.5177 -0.5606
11839TIP3   OH256931   0.276   1.982   2.334  0.0062  0.0302  0.2157
11839TIP3    H156932   0.216   1.985   2.259 -1.4278  0.7217  1.3621
11839TIP3    H256933   0.363   1.971   2.295 -0.8577 -0.9773 -1.4751
11840TIP3   OH256934   2.928   0.028  14.386  0.5797  0.5925 -0.9104
11840TIP3    H156935   2.908  -0.015  14.470  0.4979  1.7084 -0.3558
11840TIP3    H256936   2.973   0.108  14.411  2.3845 -0.0538 -2.0137
11841TIP3   OH256937   3.445   5.735   4.829  0.4683 -0.1768 -0.2562
11841TIP3    H156938   3.442   5.665   4.894 -0.2377  0.6712  0.6465
11841TIP3    H256939   3.485   5.695   4.752  1.3979 -1.1864  0.7269
11842TIP3   OH256940   1.839   5.154   3.858 -0.5194 -0.0380 -0.3323
11842TIP3    H156941   1.871   5.239   3.887 -1.0593 -0.2157  0.8314
11842TIP3    H256942   1.909   5.118   3.803 -0.8563  1.7442 -1.9806
11843TIP3   OH256943   6.455   1.156  12.169  0.0122  0.0690 -0.2333
11843TIP3    H156944   6.382   1.134  12.111 -0.5672 -0.4795  0.6976
11843TIP3    H256945   6.532   1.156  12.112 -0.7192  0.7544 -1.2482
11844TIP3   OH256946   5.308   6.236  12.511  0.5070  0.3555 -0.4874
11844TIP3    H156947   5.375   6.297  12.480  1.1891 -1.6991 -3.2367
11844TIP3    H256948   5.244   6.233  12.440  0.5814 -2.2321 -0.4713
11845TIP3   OH256949   5.665   2.341  13.925  0.3022  0.3726  0.1529
11845TIP3    H156950   5.715   2.378  13.853  1.3953  2.8763  2.1373
11845TIP3    H256951   5.707   2.257  13.942  1.4148  0.7425 -0.7034
11846TIP3   OH256952   6.628   2.619  15.177  0.6056  0.0568  0.2502
11846TIP3    H156953   6.585   2.541  15.213  0.8627  0.3527  1.2244
11846TIP3    H256954   6.593   2.627  15.088 -0.7268 -0.1884  0.7377
11847TIP3   OH256955   1.559   5.898  16.299 -0.2847  0.3262 -0.0575
11847TIP3    H156956   1.489   5.942  16.346  1.4798  1.7880  1.2874
11847TIP3    H256957   1.639   5.935  16.336  1.2091 -1.9000 -0.9723
11848TIP3   OH256958   6.249   2.501   2.523  0.0036  0.1010  0.3002
11848TIP3    H156959   6.333   2.509   2.478 -1.4513  3.3283 -2.0503
11848TIP3    H256960   6.264   2.539   2.610  0.8471  1.2031 -0.3170
11849TIP3   OH256961   5.548   1.567   1.587  0.0062 -0.0104 -0.4553
11849TIP3    H156962   5.499   1.494   1.551 -0.3012  1.1575 -2.4840
11849TIP3    H256963   5.487   1.610   1.647 -0.9370  0.4984 -1.7592
11850TIP3   OH256964   1.373   6.643  12.627  0.1132 -0.5922 -0.1841
11850TIP3    H156965   1.447   6.610  12.576 -0.3910  0.2514 -1.4648
11850TIP3    H256966   1.331   6.564  12.662  0.9042 -1.1346 -0.4464
11851TIP3   OH256967   6.481   5.528   3.007 -0.2044 -0.2973  0.4091
11851TIP3    H156968   6.464   5.597   3.071  0.8290 -1.3093  1.8128
11851TIP3    H256969   6.525   5.459   3.057 -1.2135 -1.9807 -0.9645
11852TIP3   OH256970   1.649   0.897   6.209  0.7574  0.3002 -0.4884
11852TIP3    H156971   1.571   0.849   6.181 -0.0470  1.1259  0.3033
11852TIP3    H256972   1.649   0.890   6.304  0.7676  1.6123 -0.3726
11853TIP3   OH256973   2.596   4.092  11.199  0.0156 -0.3178  0.3199
11853TIP3    H156974   2.528   4.143  11.243  0.8174  0.8274  0.2790
11853TIP3    H256975   2.652   4.061  11.271 -0.0368 -0.4839  0.2886
11854TIP3   OH256976   2.606   5.405   3.477 -0.4617  0.1603  0.5996
11854TIP3    H156977   2.539   5.453   3.428 -1.7230 -2.4346 -0.3382
11854TIP3    H256978   2.557   5.342   3.530  1.2029 -1.8060 -0.1129
11855TIP3   OH256979   6.525   6.083  11.576  0.1898  0.1937  0.3437
11855TIP3    H156980   6.532   6.051  11.486 -0.8387 -2.5415  1.1842
11855TIP3    H256981   6.433   6.073  11.598  0.8619 -1.7873  2.5774
11856TIP3   OH256982   6.167   2.438   2.943 -0.1096  0.1973  0.7355
11856TIP3    H156983   6.091   2.434   2.886  0.3929 -0.6816  0.1090
11856TIP3    H256984   6.145   2.380   3.016 -0.3017  0.4470  0.8759
11857TIP3   OH256985   0.221   5.376   5.202 -0.2111  0.6162 -0.0563
11857TIP3    H156986   0.221   5.443   5.271  1.2566  1.1477 -0.5560
11857TIP3    H256987   0.132   5.342   5.202 -0.7499  1.9792  0.7875
11858TIP3   OH256988   6.596   0.084  12.592 -0.1587  0.6683  0.0777
11858TIP3    H156989   6.506   0.089  12.623 -0.3736  0.3092 -0.4627
11858TIP3    H256990   6.600   0.143  12.517 -0.3039 -0.2980 -0.7122
11859TIP3   OH256991   5.604   4.590  13.456 -0.0377  0.7602  0.4023
11859TIP3    H156992   5.676   4.631  13.504  0.8508 -1.2103  0.8135
11859TIP3    H256993   5.601   4.500  13.489 -1.5181  0.2952 -0.9185
11860TIP3   OH256994   5.193   4.647  16.009  0.4705 -0.2985 -0.4102
11860TIP3    H156995   5.226   4.616  15.925  3.5626  0.1093  0.5855
11860TIP3    H256996   5.202   4.572  16.068 -0.5336 -0.2096 -0.1344
11861TIP3   OH256997   2.525   3.853  13.788  0.7234 -0.1316 -0.0772
11861TIP3    H156998   2.581   3.804  13.849 -0.4731 -0.3099  0.9010
11861TIP3    H256999   2.504   3.934  13.835  0.8318  0.3093 -0.7755
11862TIP3   OH257000   0.950   0.323   0.859 -0.0268  0.6115  0.0149
11862TIP3    H157001   0.901   0.308   0.778  0.0471 -0.4412  0.1541
11862TIP3    H257002   0.892   0.290   0.928  0.4114  0.3929  0.2816
11863TIP3   OH257003   4.058   5.554   1.986 -0.0971  0.3772 -0.2305
11863TIP3    H157004   4.134   5.586   2.034 -1.1043 -0.0166  1.6627
11863TIP3    H257005   3.998   5.629   1.982  0.7830  0.9962 -2.6174
11864TIP3   OH257006   3.081   3.835   6.250 -0.6478  0.1582  0.3548
11864TIP3    H157007   3.035   3.917   6.234  1.4420  1.8187  2.3571
11864TIP3    H257008   3.056   3.810   6.339 -0.9011 -1.1238 -0.0665
11865TIP3   OH257009   1.468   2.252  12.582  0.7379  0.0272 -0.4964
11865TIP3    H157010   1.408   2.177  12.584  1.8552 -0.8690  0.3729
11865TIP3    H257011   1.529   2.231  12.511  0.6934  0.4094 -0.6477
11866TIP3   OH257012   2.463   4.882  13.987 -0.2585  0.5504 -0.1907
11866TIP3    H157013   2.433   4.919  13.904 -1.4367  1.4741  0.6346
11866TIP3    H257014   2.495   4.957  14.037  0.5434 -0.0148  0.1541
11867TIP3   OH257015   2.535   0.390   1.738 -0.2123  0.1986  0.4965
11867TIP3    H157016   2.459   0.410   1.793 -1.0340  0.6785 -0.7779
11867TIP3    H257017   2.498   0.377   1.651  1.1830  0.4666 -0.1435
11868TIP3   OH257018   3.619   4.780  11.808 -0.0173  0.4362 -0.8391
11868TIP3    H157019   3.680   4.801  11.736  0.6161 -0.8929 -0.7026
11868TIP3    H257020   3.643   4.842  11.877  1.6238 -0.4707 -0.5609
11869TIP3   OH257021   6.331   1.037  13.615  0.6074  0.1361 -0.7269
11869TIP3    H157022   6.312   1.083  13.697  0.2280  1.2260 -1.4014
11869TIP3    H257023   6.246   1.033  13.571  0.7496 -0.7350 -0.9178
11870TIP3   OH257024   4.683   5.425  15.164 -0.0072 -0.1490 -0.6627
11870TIP3    H157025   4.776   5.430  15.144  0.4307 -2.3058  0.6207
11870TIP3    H257026   4.664   5.505  15.213  1.7672 -0.8896  1.3022
11871TIP3   OH257027   2.266   0.456  12.372  0.6467 -0.0706 -0.7910
11871TIP3    H157028   2.336   0.517  12.347 -0.0822  0.6700 -1.0672
11871TIP3    H257029   2.238   0.417  12.289 -0.3898  0.8781 -0.9138
11872TIP3   OH257030   1.707   3.104   2.237 -0.3924 -0.0703 -0.2643
11872TIP3    H157031   1.639   3.170   2.232  0.8707  1.2809  0.0909
11872TIP3    H257032   1.723   3.080   2.146 -2.0158 -1.1313 -0.2948
11873TIP3   OH257033   2.330   0.254   4.591  0.2856  0.0760 -0.7109
11873TIP3    H157034   2.368   0.337   4.621  2.4561 -1.3636  0.6438
11873TIP3    H257035   2.388   0.224   4.522  0.0253 -0.7601 -0.5731
11874TIP3   OH257036   6.036   4.444  14.436  0.0127 -0.3355 -0.0429
11874TIP3    H157037   5.966   4.404  14.384 -0.0597 -0.0225 -0.1862
11874TIP3    H257038   6.025   4.405  14.523 -0.0858 -0.5924 -0.1681
11875TIP3   OH257039   1.604   6.170  14.495  0.4724  0.2770  0.1895
11875TIP3    H157040   1.529   6.176  14.553 -1.1886  2.4866 -2.0641
11875TIP3    H257041   1.582   6.100  14.433  1.4588 -0.8648  1.1029
11876TIP3   OH257042   0.783   4.327   1.573 -0.1474 -0.4233  0.2412
11876TIP3    H157043   0.758   4.239   1.600 -1.5415  0.1063  0.6759
11876TIP3    H257044   0.742   4.338   1.487 -1.0794  0.2908  0.7730
11877TIP3   OH257045   0.031   2.511   1.489  0.3593  0.3303  0.2524
11877TIP3    H157046   0.006   2.490   1.578 -0.2475  1.0020  0.2465
11877TIP3    H257047   0.122   2.540   1.496  0.0072  1.3365  0.8101
11878TIP3   OH257048   6.514   2.346  11.802  0.5609 -0.0282  0.3709
11878TIP3    H157049   6.432   2.353  11.754  1.3112 -0.6955 -1.0528
11878TIP3    H257050   6.568   2.417  11.769  1.3330 -0.9109 -0.3052
11879TIP3   OH257051   2.474   6.379  11.705  0.2645 -0.1637  0.4431
11879TIP3    H157052   2.558   6.395  11.662  0.1880  0.9387  0.6855
11879TIP3    H257053   2.470   6.284  11.714  1.1082 -0.2850 -0.3236
11880TIP3   OH257054   1.250   1.344   3.064 -0.3534 -0.2242  0.0074
11880TIP3    H157055   1.278   1.321   3.153 -1.1662 -2.2519 -0.2305
11880TIP3    H257056   1.155   1.358   3.072 -0.5766 -1.2727 -0.6837
11881TIP3   OH257057   1.835   1.807  15.415  0.7633  0.2256  0.4047
11881TIP3    H157058   1.775   1.875  15.446  1.3325  2.0705 -2.3821
11881TIP3    H257059   1.884   1.781  15.493 -1.8318  0.5358  2.2114
11882TIP3   OH257060   0.383   4.797   1.962 -0.4189 -0.0374 -0.3822
11882TIP3    H157061   0.354   4.851   2.035  0.6575  0.5527 -0.3806
11882TIP3    H257062   0.302   4.768   1.920 -1.0262  0.3378  0.5149
11883TIP3   OH257063   4.707   3.038   0.841 -0.3223 -0.4093  0.3647
11883TIP3    H157064   4.641   3.058   0.775 -0.3130 -0.4735  0.3355
11883TIP3    H257065   4.690   3.099   0.912  1.3128  1.4545 -0.7810
11884TIP3   OH257066   5.241   0.475   0.007 -0.7178 -0.1407 -0.2467
11884TIP3    H157067   5.232   0.384   0.035 -1.2914  0.3136  1.0577
11884TIP3    H257068   5.153   0.511   0.013 -0.9818 -0.1612 -3.2037
11885TIP3   OH257069   0.598   1.670   0.241  0.5730  0.4487 -0.1135
11885TIP3    H157070   0.547   1.667   0.160  0.8091 -0.1474 -0.2425
11885TIP3    H257071   0.545   1.623   0.305  0.1919  1.2856  0.1916
11886TIP3   OH257072   3.987   5.364   5.835  0.2828 -0.5772  0.7303
11886TIP3    H157073   4.037   5.444   5.820 -1.0503  0.2324  0.5971
11886TIP3    H257074   3.999   5.345   5.928 -0.0328  0.1962  0.9269
11887TIP3   OH257075   5.368   2.168   5.741 -0.1822 -0.6220 -0.6130
11887TIP3    H157076   5.347   2.090   5.690 -1.1410 -0.0516 -1.0959
11887TIP3    H257077   5.446   2.204   5.700 -1.0704 -0.0492 -1.8122
11888TIP3   OH257078   5.682   2.218  16.106 -0.0952  0.5379 -0.4586
11888TIP3    H157079   5.644   2.138  16.143 -0.8152  0.0917 -2.1322
11888TIP3    H257080   5.757   2.187  16.055  0.2810  1.0483 -0.2199
11889TIP3   OH257081   1.509   2.426  14.658 -0.1100 -0.7694  0.5204
11889TIP3    H157082   1.592   2.474  14.649  0.2964 -1.6530 -0.5993
11889TIP3    H257083   1.488   2.399  14.568 -1.6148 -0.5539  0.8052
11890TIP3   OH257084   6.321   3.764  15.923 -0.0605  0.1717 -0.1324
11890TIP3    H157085   6.281   3.679  15.901  0.4553  0.0416 -0.5828
11890TIP3    H257086   6.254   3.828  15.900 -0.1621 -0.0711 -0.5225
11891TIP3   OH257087   1.947   0.500   0.728 -0.4505 -0.1063 -0.1891
11891TIP3    H157088   1.868   0.466   0.772 -0.1684  0.7094  0.9720
11891TIP3    H257089   1.986   0.560   0.792  0.8681 -0.1523 -0.9405
11892TIP3   OH257090   6.739   1.593   3.721 -0.8474 -0.4733 -0.9365
11892TIP3    H157091   6.828   1.593   3.758 -0.4927 -0.8779 -1.7771
11892TIP3    H257092   6.694   1.522   3.767 -0.9824  0.2674  0.0755
11893TIP3   OH257093   2.746   3.632  11.160  0.1823  0.0670 -0.1069
11893TIP3    H157094   2.751   3.603  11.251 -0.7874 -1.7500 -0.6126
11893TIP3    H257095   2.659   3.672  11.153  0.4214  0.5919 -0.1458
11894TIP3   OH257096   6.355   3.331   5.804  0.6590  0.2457  0.0821
11894TIP3    H157097   6.321   3.292   5.724  0.5005  0.4020  0.0744
11894TIP3    H257098   6.421   3.393   5.774  0.3249  0.5870  0.0534
11895TIP3   OH257099   5.446   3.941  16.699  0.6917  0.2944 -0.0525
11895TIP3    H157100   5.487   3.860  16.668  2.7582  1.2886  0.0373
11895TIP3    H257101   5.379   3.912  16.761  1.2865 -1.3538 -0.1700
11896TIP3   OH257102   3.487   0.025  15.363  0.5570 -0.1147 -0.3738
11896TIP3    H157103   3.436   0.026  15.444 -0.9027 -0.3402 -1.2602
11896TIP3    H257104   3.471  -0.061  15.325  1.0560  0.0635 -0.9962
11897TIP3   OH257105   1.995   3.926   4.777  0.1415  0.1142 -0.0917
11897TIP3    H157106   2.006   3.920   4.872  1.2303 -1.2596 -0.2925
11897TIP3    H257107   2.037   3.848   4.743  2.3332  2.0095 -1.9072
11898TIP3   OH257108   0.075   3.581   4.653 -0.3431 -0.5712  0.8250
11898TIP3    H157109   0.129   3.646   4.699 -0.8816  0.0243  0.6365
11898TIP3    H257110   0.137   3.516   4.621  0.4189  0.7736 -0.5137
11899TIP3   OH257111   1.573   5.694  15.587  0.4239  0.3521 -1.0457
11899TIP3    H157112   1.658   5.656  15.563  0.1649 -0.2614 -0.9944
11899TIP3    H257113   1.510   5.624  15.570  0.2346 -0.1068  1.4036
11900TIP3   OH257114   3.106   2.928   4.311  0.4545 -0.4723  0.0090
11900TIP3    H157115   3.098   2.998   4.246  0.2633  0.4913  1.0539
11900TIP3    H257116   3.047   2.954   4.382  0.2423 -1.7894  0.3183
11901TIP3   OH257117   4.539   3.334   3.882  0.0773  0.1910  0.0415
11901TIP3    H157118   4.619   3.347   3.830 -0.2917  0.9501 -0.3608
11901TIP3    H257119   4.570   3.300   3.966  0.9585  1.7563  0.3832
11902TIP3   OH257120   1.997   4.224   1.174 -0.6810  0.2022  0.0220
11902TIP3    H157121   1.972   4.287   1.241 -0.6760  0.1889  0.0366
11902TIP3    H257122   1.950   4.251   1.096  0.0837  0.8021 -0.2332
11903TIP3   OH257123   6.391   4.249   4.959  0.3749 -0.5520  0.0578
11903TIP3    H157124   6.417   4.158   4.943  2.0428 -0.2852  1.0964
11903TIP3    H257125   6.384   4.255   5.054  1.9338  0.8436  0.0936
11904TIP3   OH257126   1.305   3.939   2.394  0.0602  0.9313  0.5724
11904TIP3    H157127   1.230   3.994   2.417 -0.1383  0.5888  0.7470
11904TIP3    H257128   1.307   3.940   2.299 -0.2369  0.8459  0.5651
11905TIP3   OH257129   4.495   1.800   4.062 -0.0126 -0.3898 -0.1223
11905TIP3    H157130   4.538   1.749   4.131  1.1939 -0.0465 -0.5969
11905TIP3    H257131   4.412   1.828   4.100  1.2171  0.9124  1.6662
11906TIP3   OH257132   3.723   5.740   2.914  0.0437 -0.0606 -0.1778
11906TIP3    H157133   3.702   5.691   2.834  0.3089 -3.4538  1.7144
11906TIP3    H257134   3.818   5.727   2.925  0.0382  0.5160  0.5675
11907TIP3   OH257135   3.971   1.090   2.522 -0.0851 -0.3526 -0.0687
11907TIP3    H157136   3.889   1.132   2.548  0.3881  0.3694  0.2874
11907TIP3    H257137   3.985   1.022   2.588  0.0591  0.1156  0.3872
11908TIP3   OH257138   5.750   6.171   0.028 -0.1497 -0.2228  0.5194
11908TIP3    H157139   5.710   6.089   0.058  1.0043 -0.8550  0.3345
11908TIP3    H257140   5.824   6.185   0.087 -0.0216  0.4230  0.2153
11909TIP3   OH257141   5.879   3.527  10.828  0.0291  0.5719  0.5162
11909TIP3    H157142   5.868   3.530  10.733 -2.4649 -0.1164  0.7396
11909TIP3    H257143   5.912   3.439  10.846  0.4139  0.6709  0.3071
11910TIP3   OH257144   3.790   6.533  13.573  0.0976  0.0667 -0.2166
11910TIP3    H157145   3.867   6.492  13.534  0.1556  0.2438 -0.2859
11910TIP3    H257146   3.795   6.625  13.547 -0.5009 -0.0590 -0.7821
11911TIP3   OH257147   1.859   3.049  13.410  0.3277  0.5937 -0.0625
11911TIP3    H157148   1.941   3.055  13.362  0.0917  1.0741 -0.4083
11911TIP3    H257149   1.843   2.954  13.417  0.6492  0.5069 -0.4368
11912TIP3   OH257150   6.713   1.771   5.108 -0.4369  0.4739 -0.4481
11912TIP3    H157151   6.752   1.830   5.043  1.7791 -2.7916 -2.1906
11912TIP3    H257152   6.645   1.724   5.061 -1.0245  0.3563  0.4917
11913TIP3   OH257153   2.221   1.323  14.226  0.1072 -0.7537 -0.4718
11913TIP3    H157154   2.214   1.345  14.133 -1.4066 -2.5687 -0.8383
11913TIP3    H257155   2.244   1.230  14.227  0.5108 -0.6578  0.9732
11914TIP3   OH257156   1.864   6.779  15.208  0.0443  0.0669 -0.2543
11914TIP3    H157157   1.786   6.726  15.195  0.2255  0.0685 -1.3752
11914TIP3    H257158   1.919   6.727  15.267 -1.4009  0.7016  1.7063
11915TIP3   OH257159   1.448   2.529   6.499  0.0222 -0.2379  0.2601
11915TIP3    H157160   1.523   2.497   6.549 -0.3387 -0.6297  0.5486
11915TIP3    H257161   1.418   2.453   6.448  0.8817  0.3567 -1.1691
11916TIP3   OH257162   5.361   2.150   4.399 -0.3084 -0.3296 -1.0811
11916TIP3    H157163   5.300   2.195   4.341  0.9826  0.3482 -1.9435
11916TIP3    H257164   5.442   2.200   4.393 -0.2499 -0.0538  1.6153
11917TIP3   OH257165   0.314   0.230   3.943  0.4559  0.8400  0.0287
11917TIP3    H157166   0.358   0.205   3.861  0.6423  1.3723 -0.0373
11917TIP3    H257167   0.226   0.256   3.916  0.1352 -0.1178  0.1465
11918TIP3   OH257168   4.483   5.713  11.484 -0.4642 -0.5955 -0.1345
11918TIP3    H157169   4.397   5.745  11.455 -1.0946 -1.4543  0.7665
11918TIP3    H257170   4.466   5.625  11.516  0.9648 -1.2236 -1.0318
11919TIP3   OH257171   6.177   2.156   5.465  0.2693  0.2025 -0.0102
11919TIP3    H157172   6.268   2.170   5.441  0.5810  0.4622  1.3012
11919TIP3    H257173   6.135   2.242   5.453  0.8480  0.8308  2.1528
11920TIP3   OH257174   6.271   1.327  16.220  0.0239 -1.1611 -0.0679
11920TIP3    H157175   6.193   1.347  16.169  0.6815 -1.3783 -1.1789
11920TIP3    H257176   6.283   1.404  16.276 -0.8029 -0.9968 -0.1109
11921TIP3   OH257177   1.669   4.418  16.925 -0.4990  0.0488  0.1954
11921TIP3    H157178   1.714   4.430  17.008 -1.3194 -0.0140  0.6545
11921TIP3    H257179   1.583   4.458  16.938 -0.9603 -0.7589 -0.3256
11922TIP3   OH257180   1.992   6.489   1.129  0.5478 -0.5334  0.2707
11922TIP3    H157181   2.084   6.492   1.106  0.3836  1.0260 -0.1922
11922TIP3    H257182   1.974   6.574   1.169 -0.7147 -0.7970  0.2867
11923TIP3   OH257183   2.712   2.335  10.419 -0.2728 -0.2720  0.3364
11923TIP3    H157184   2.669   2.275  10.479 -1.9206 -1.2386 -1.7752
11923TIP3    H257185   2.791   2.288  10.391  0.3746  0.0838  1.4916
11924TIP3   OH257186   3.496   1.572  14.607  0.1479  0.2970  0.5770
11924TIP3    H157187   3.418   1.561  14.553  1.9283  1.3601 -2.3605
11924TIP3    H257188   3.548   1.494  14.591  0.2727  0.1720  1.5326
11925TIP3   OH257189   1.556   1.827   3.164 -0.0755 -0.1396 -0.8212
11925TIP3    H157190   1.585   1.855   3.077  0.2335  0.6910 -0.4611
11925TIP3    H257191   1.491   1.893   3.190  0.8146  0.3762  0.1303
11926TIP3   OH257192   1.698   4.177   1.779  0.5468 -0.3753  0.2297
11926TIP3    H157193   1.672   4.165   1.688  0.0424  0.9439  0.1876
11926TIP3    H257194   1.690   4.271   1.794  0.9835 -0.5331  1.5330
11927TIP3   OH257195   6.704   5.231  11.558 -0.6462 -0.3214 -0.1703
11927TIP3    H157196   6.749   5.154  11.525 -0.6533 -0.1205 -0.6456
11927TIP3    H257197   6.771   5.280  11.606 -0.6570 -0.6503  0.1877
11928TIP3   OH257198   4.798   4.414  14.797  0.3118 -0.1690  0.1255
11928TIP3    H157199   4.849   4.418  14.878 -0.2183 -1.1063  0.5103
11928TIP3    H257200   4.854   4.368  14.735  0.7419  0.6023 -0.0542
11929TIP3   OH257201   4.904   4.489  16.853 -0.0268  0.1477  0.6715
11929TIP3    H157202   4.888   4.563  16.795  1.2582 -1.2178 -1.4838
11929TIP3    H257203   4.917   4.529  16.939 -1.1261  2.2719 -0.1095
11930TIP3   OH257204   2.612   2.822  15.799 -0.0433 -0.1305 -0.1617
11930TIP3    H157205   2.705   2.844  15.800 -0.3527  1.2283 -0.1474
11930TIP3    H257206   2.588   2.823  15.706 -0.6665  2.3506 -0.0174
11931TIP3   OH257207   1.602   1.458   0.100  0.7226 -0.2265 -0.0852
11931TIP3    H157208   1.692   1.475   0.127  1.2055 -1.1072 -1.1118
11931TIP3    H257209   1.607   1.378   0.048 -0.6518 -0.2706 -0.1694
11932TIP3   OH257210   3.671   5.517  13.579 -0.1733 -0.2562  0.3009
11932TIP3    H157211   3.670   5.441  13.637  0.7800 -0.6958 -0.2416
11932TIP3    H257212   3.678   5.480  13.491  0.6520  0.4644  0.0584
11933TIP3   OH257213   1.271   6.041   5.018  0.1035 -0.6517  0.2577
11933TIP3    H157214   1.182   6.010   5.005  0.2140 -1.6569  1.7268
11933TIP3    H257215   1.322   5.962   5.034  0.9265  0.0479  1.1511
11934TIP3   OH257216   5.377   6.377  15.567  0.2034 -0.0665 -0.3385
11934TIP3    H157217   5.318   6.429  15.622  1.5741 -1.0065  2.1055
11934TIP3    H257218   5.328   6.298  15.545  0.2170 -0.4206  0.9014
11935TIP3   OH257219   0.332   5.471  11.942  0.5902 -0.3572  0.6421
11935TIP3    H157220   0.286   5.553  11.927  0.3685 -0.6482 -0.3095
11935TIP3    H257221   0.422   5.497  11.962  0.5011  0.1238  0.4199
11936TIP3   OH257222   2.233   0.802   6.075 -0.6082 -0.7715  0.9262
11936TIP3    H157223   2.143   0.795   6.106 -0.3311 -4.8579  1.0615
11936TIP3    H257224   2.240   0.737   6.005  1.3184  1.9343 -1.5499
11937TIP3   OH257225   0.770   5.685  16.789 -0.2328  0.3834 -0.0601
11937TIP3    H157226   0.713   5.743  16.738 -1.7064 -0.0829  1.0311
11937TIP3    H257227   0.735   5.690  16.878  2.0235  0.8252  0.8273
11938TIP3   OH257228   1.292   2.962  15.606  0.3809 -0.2134  0.1058
11938TIP3    H157229   1.232   3.027  15.642 -0.1792 -0.7083  0.0728
11938TIP3    H257230   1.236   2.902  15.557  1.0247 -0.0546 -0.8495
11939TIP3   OH257231   0.563   6.787  13.543  0.2356 -0.3775  0.4545
11939TIP3    H157232   0.474   6.778  13.510  0.0639 -1.9619  1.2654
11939TIP3    H257233   0.611   6.830  13.472 -0.9947 -0.2088 -0.2893
11940TIP3   OH257234   2.323   6.583  13.013  0.0022 -0.3417 -0.3667
11940TIP3    H157235   2.249   6.523  13.022 -0.0732 -0.1552  0.2811
11940TIP3    H257236   2.347   6.578  12.920  0.3098 -1.7388 -0.2230
11941TIP3   OH257237   4.191   5.454   1.155 -0.0613  0.7171  0.2673
11941TIP3    H157238   4.231   5.433   1.239 -1.6355  0.9539  1.0757
11941TIP3    H257239   4.155   5.542   1.166 -1.0095  0.4178 -0.3910
11942TIP3   OH257240   2.129   5.109  15.080  0.2710 -0.6794 -0.4571
11942TIP3    H157241   2.062   5.169  15.112 -0.5691 -1.9231  0.1672
11942TIP3    H257242   2.202   5.166  15.055 -1.0198  0.6989 -1.1848
11943TIP3   OH257243   5.088   1.878  14.965  0.5049  0.1531 -0.1265
11943TIP3    H157244   5.037   1.923  14.898 -1.6355 -2.7331 -0.5245
11943TIP3    H257245   5.097   1.788  14.932 -0.0781 -1.1694  3.1201
11944TIP3   OH257246   5.860   4.143  15.056 -0.1438 -0.2342 -0.2554
11944TIP3    H157247   5.812   4.203  15.000 -0.9403  0.2553  0.9238
11944TIP3    H257248   5.852   4.180  15.144  1.7705 -0.5583  0.0668
11945TIP3   OH257249   1.562   6.500   3.194 -0.1370  0.3671  0.1617
11945TIP3    H157250   1.610   6.577   3.166 -0.7250  0.4469 -0.6630
11945TIP3    H257251   1.496   6.487   3.125 -0.0318 -0.8739  0.2857
11946TIP3   OH257252   2.602   0.237   0.122 -0.1388 -0.1636  0.0715
11946TIP3    H157253   2.569   0.268   0.206 -1.0791  1.5834 -0.8988
11946TIP3    H257254   2.695   0.220   0.137 -0.3494 -0.0936  1.5198
11947TIP3   OH257255   0.652   3.319  14.774  0.6419 -0.4265  0.2373
11947TIP3    H157256   0.621   3.388  14.832  0.8368  0.5285 -0.7692
11947TIP3    H257257   0.587   3.316  14.704  0.2583 -1.7606  0.6300
11948TIP3   OH257258   2.966   1.120   0.396 -0.2987 -0.1461  0.4710
11948TIP3    H157259   2.989   1.095   0.486  3.1449  1.4200  0.1041
11948TIP3    H257260   3.037   1.085   0.343 -2.4860 -1.3548 -1.7503
11949TIP3   OH257261   0.480   0.576  15.875 -1.1678 -0.0655 -0.2520
11949TIP3    H157262   0.496   0.648  15.937 -2.4545 -0.4808  0.5848
11949TIP3    H257263   0.524   0.501  15.914  1.3318  0.5318 -1.7943
11950TIP3   OH257264   5.753   5.625  11.927 -0.2546  0.1756  0.2732
11950TIP3    H157265   5.669   5.588  11.898  0.2900  0.5215 -1.8574
11950TIP3    H257266   5.735   5.719  11.935 -0.0289  0.2752 -0.3677
11951TIP3   OH257267   5.817   2.066  14.621  0.4295 -0.3074 -0.6518
11951TIP3    H157268   5.840   2.148  14.577 -0.4090  0.1205 -0.3023
11951TIP3    H257269   5.748   2.090  14.682 -0.4418 -1.4478 -1.1732
11952TIP3   OH257270   2.568   1.732   0.185 -0.3794 -0.0578  0.3166
11952TIP3    H157271   2.486   1.706   0.228 -0.4144  1.3248  1.1352
11952TIP3    H257272   2.635   1.722   0.253 -0.1106  0.2288  0.0993
11953TIP3   OH257273   4.812   6.455   5.465 -0.2039 -0.3631 -0.3848
11953TIP3    H157274   4.741   6.423   5.409 -0.5173  2.3216 -1.6302
11953TIP3    H257275   4.770   6.518   5.523  0.9433  0.4110 -0.3697
11954TIP3   OH257276   4.911   2.356  14.615  0.1858  0.8055 -0.2127
11954TIP3    H157277   4.953   2.400  14.542 -0.1138  0.7277 -0.4342
11954TIP3    H257278   4.831   2.318  14.578  0.0755  0.6916  0.1333
11955TIP3   OH257279   0.497   1.468  11.632 -0.8148 -0.0470  0.3823
11955TIP3    H157280   0.480   1.482  11.539 -1.7017 -1.6828  0.2747
11955TIP3    H257281   0.415   1.490  11.675 -1.0389 -1.2091  0.5667
11956TIP3   OH257282   1.674   2.015   4.504  0.4065 -0.9711  0.9387
11956TIP3    H157283   1.648   2.087   4.562  2.2514 -1.2472  2.1481
11956TIP3    H257284   1.767   2.002   4.522  0.8185 -1.6272 -1.5262
11957TIP3   OH257285   5.078   5.550  11.847  0.2805  0.0899 -0.4554
11957TIP3    H157286   5.166   5.568  11.812  0.3793 -1.8641 -1.2755
11957TIP3    H257287   5.019   5.578  11.777  0.2903  0.2278 -0.4094
11958TIP3   OH257288   5.959   2.843  11.518 -0.1478  0.3689  0.4093
11958TIP3    H157289   5.941   2.926  11.561 -3.2136  0.0066 -0.0187
11958TIP3    H257290   5.904   2.780  11.565 -0.9214 -0.6428 -1.7735
11959TIP3   OH257291   4.513   1.903  15.741 -0.2229 -0.0679  0.0427
11959TIP3    H157292   4.523   1.982  15.688  0.8361  0.0100  0.3357
11959TIP3    H257293   4.568   1.837  15.697  0.1735 -0.1758  0.6941
11960TIP3   OH257294   4.738   1.026  13.858  0.0171  0.1732 -0.1921
11960TIP3    H157295   4.741   0.998  13.949  0.8856 -1.7849 -0.7863
11960TIP3    H257296   4.829   1.020  13.828 -0.3859 -0.0349 -1.4182
11961TIP3   OH257297   0.414   6.558   1.560  0.0326 -0.2395  0.7672
11961TIP3    H157298   0.320   6.556   1.574  0.0526 -2.1283  0.6722
11961TIP3    H257299   0.429   6.637   1.507 -1.6563 -0.7226 -0.4445
11962TIP3   OH257300   2.146   3.350   0.894 -0.1855  0.6225  0.2270
11962TIP3    H157301   2.217   3.382   0.838 -1.2501  0.1919 -1.4249
11962TIP3    H257302   2.071   3.405   0.871 -0.6635  0.3869  1.1910
11963TIP3   OH257303   4.997   4.268  15.547  0.0660  0.4996 -0.1524
11963TIP3    H157304   4.955   4.340  15.595 -1.6413 -0.5163 -0.0902
11963TIP3    H257305   4.974   4.283  15.456 -3.6619 -2.0604  0.2329
11964TIP3   OH257306   3.325   5.487  12.268  0.1666 -0.2947  0.5865
11964TIP3    H157307   3.330   5.391  12.273  0.0028 -0.2601  1.5147
11964TIP3    H257308   3.302   5.514  12.357 -1.6326  0.5032 -0.0967
11965TIP3   OH257309   4.865   5.848  14.643 -0.0848  0.3336  0.3155
11965TIP3    H157310   4.848   5.758  14.672  0.7654  0.0216 -0.1142
11965TIP3    H257311   4.832   5.903  14.714  0.9777 -0.3863  1.3976
11966TIP3   OH257312   2.842   0.043   1.715  0.1119  0.4427  0.5172
11966TIP3    H157313   2.875   0.010   1.799  1.4656 -0.1390 -0.2280
11966TIP3    H257314   2.850   0.138   1.722  3.3930  0.2967 -0.1623
11967TIP3   OH257315   2.441   6.276  16.828 -0.8726 -0.4783 -0.1086
11967TIP3    H157316   2.426   6.358  16.875  0.7534 -0.5069  0.5185
11967TIP3    H257317   2.444   6.210  16.897  1.3955 -0.5403 -0.2276
11968TIP3   OH257318   3.643   5.640  14.613  0.2273  0.0610  0.2522
11968TIP3    H157319   3.638   5.601  14.700 -0.6931  0.1512  0.2503
11968TIP3    H257320   3.626   5.733  14.628 -0.2245  0.0302 -0.0543
11969TIP3   OH257321   0.284   2.537  15.229  0.0574 -0.0786 -0.3703
11969TIP3    H157322   0.227   2.562  15.302  0.7879  0.7637 -0.0754
11969TIP3    H257323   0.269   2.443  15.218 -2.2069  0.3369 -1.0138
11970TIP3   OH257324   4.681   2.696   3.077  1.0703  0.0821  0.3149
11970TIP3    H157325   4.653   2.679   2.987 -0.5601  1.7672  0.4673
11970TIP3    H257326   4.725   2.781   3.073 -0.7750  1.1190  1.4206
11971TIP3   OH257327   5.911   1.188   1.739 -0.0296 -0.2252 -0.8511
11971TIP3    H157328   5.850   1.157   1.672  0.5718 -2.0239 -0.5813
11971TIP3    H257329   5.997   1.182   1.697  0.5094 -2.6677  0.5000
11972TIP3   OH257330   4.065   0.701  14.295  0.2609  0.6371 -0.1787
11972TIP3    H157331   4.077   0.788  14.259  3.0326  0.3171 -0.1281
11972TIP3    H257332   4.148   0.681  14.339 -0.4693 -1.8472  0.1756
11973TIP3   OH257333   3.454   2.867  10.449 -0.3265  0.1234 -0.1160
11973TIP3    H157334   3.371   2.896  10.487  0.4869 -0.5322  2.2839
11973TIP3    H257335   3.515   2.937  10.468  0.4262 -0.8329  1.1082
11974TIP3   OH257336   2.700   6.665  12.125 -0.2556 -0.6525  0.5861
11974TIP3    H157337   2.639   6.736  12.144 -0.9504 -0.7754 -1.0663
11974TIP3    H257338   2.729   6.635  12.211  0.7721  2.2226  1.2973
11975TIP3   OH257339   0.514   3.055  16.814 -0.1160 -0.2634 -0.0642
11975TIP3    H157340   0.563   3.127  16.773  1.5591 -1.2291  0.2308
11975TIP3    H257341   0.531   2.979  16.759  1.2006 -1.3037  1.7013
11976TIP3   OH257342   2.102   0.109  13.351 -0.7879  0.1187 -0.7008
11976TIP3    H157343   2.181   0.159  13.329 -0.9658  0.5199 -0.4370
11976TIP3    H257344   2.060   0.092  13.267 -0.5624  0.1402 -0.8172
11977TIP3   OH257345   5.725   3.040  13.502  0.2924  0.1790  0.0100
11977TIP3    H157346   5.641   3.036  13.547  1.0645  0.9995  1.5649
11977TIP3    H257347   5.785   3.075  13.567  1.5464  0.9212 -1.5188
11978TIP3   OH257348   5.171   6.624  10.732  0.3572  0.4393 -0.1257
11978TIP3    H157349   5.257   6.585  10.747 -0.3152 -1.0723 -0.1489
11978TIP3    H257350   5.111   6.572  10.786 -0.7821  0.4568 -1.3424
11979TIP3   OH257351   6.525   3.016  12.818 -0.1258 -0.2975 -0.3010
11979TIP3    H157352   6.443   2.970  12.800 -1.0219  1.5101 -0.9615
11979TIP3    H257353   6.546   2.993  12.909 -1.6625 -0.3438  0.0620
11980TIP3   OH257354   0.404   1.708   6.194 -0.1112 -0.5889  0.0192
11980TIP3    H157355   0.382   1.790   6.239 -0.4427 -0.9810  0.5671
11980TIP3    H257356   0.351   1.709   6.114 -2.2373 -1.5994  1.4007
11981TIP3   OH257357   2.242   4.131   0.214 -0.5472  0.4966 -0.0564
11981TIP3    H157358   2.157   4.087   0.219 -0.7291  0.8673  0.2186
11981TIP3    H257359   2.234   4.189   0.139  0.2664 -1.1151 -1.4058
11982TIP3   OH257360   5.780   4.997  12.381 -0.5122 -0.4584 -0.0862
11982TIP3    H157361   5.710   5.061  12.388  1.6669  2.0285 -0.2063
11982TIP3    H257362   5.787   4.979  12.287 -1.7479 -1.6591  0.0275
11983TIP3   OH257363   4.721   5.103  13.154  0.1343  0.0541 -0.1580
11983TIP3    H157364   4.713   5.019  13.107 -0.4422  0.4925 -0.8506
11983TIP3    H257365   4.667   5.091  13.232 -0.3607 -0.0429 -0.5098
11984TIP3   OH257366   1.165   1.976   5.783 -0.5075 -0.2367 -0.2945
11984TIP3    H157367   1.087   1.982   5.727  0.0932  2.6324 -0.9008
11984TIP3    H257368   1.162   1.887   5.818 -3.9251 -0.2980 -0.5087
11985TIP3   OH257369   0.083   1.243  15.664 -0.1479 -0.1353  0.7531
11985TIP3    H157370   0.148   1.312  15.653 -0.4343 -0.3216 -2.3427
11985TIP3    H257371   0.130   1.162  15.642 -1.1277 -0.3873 -0.4520
11986TIP3   OH257372   3.024   3.129   3.846 -0.6087 -0.2731 -0.3602
11986TIP3    H157373   2.967   3.090   3.912  0.2665  0.6927  0.9807
11986TIP3    H257374   3.104   3.077   3.849 -0.3376  0.1458 -0.2324
11987TIP3   OH257375   6.434   2.784  10.961  0.0118  0.1505  0.1935
11987TIP3    H157376   6.511   2.755  10.911 -1.1559 -0.2272 -1.4406
11987TIP3    H257377   6.367   2.718  10.942 -1.2818  1.4671  0.1180
11988TIP3   OH257378   5.563   6.189  14.380  0.0014 -0.1567 -0.6711
11988TIP3    H157379   5.550   6.195  14.474 -0.8017 -0.1017 -0.7773
11988TIP3    H257380   5.658   6.194  14.368  0.0491  0.9782  0.0559
11989TIP3   OH257381   0.591   6.076  12.079  0.1692 -0.2506  0.4463
11989TIP3    H157382   0.606   6.046  12.168  0.4538 -1.1699  0.1015
11989TIP3    H257383   0.580   5.995  12.028 -0.0175  0.2587 -0.3443
11990TIP3   OH257384   5.874   1.152   5.106  0.3554  0.0387 -0.4752
11990TIP3    H157385   5.840   1.237   5.080 -0.3793  0.1455  0.7826
11990TIP3    H257386   5.969   1.162   5.106  0.2895  0.6180 -1.1258
11991TIP3   OH257387   1.945   3.197  16.469  0.3963 -0.0083  0.2985
11991TIP3    H157388   1.961   3.279  16.422 -0.3927  0.3434  0.6328
11991TIP3    H257389   1.900   3.224  16.550  1.0001 -0.6827  0.8627
11992TIP3   OH257390   5.471   4.700  16.652 -0.2121 -0.3778 -0.0938
11992TIP3    H157391   5.541   4.724  16.590  0.4026  1.2614  1.1889
11992TIP3    H257392   5.494   4.612  16.680  0.8513 -0.2135 -0.3963
11993TIP3   OH257393   2.180   1.911  12.658 -0.0990 -0.1676 -0.3508
11993TIP3    H157394   2.275   1.895  12.660 -0.0597  0.1066  0.1500
11993TIP3    H257395   2.155   1.895  12.567  0.8458  2.1250 -1.0744
11994TIP3   OH257396   0.736   5.603   5.924  0.1388 -0.5670 -0.3151
11994TIP3    H157397   0.645   5.631   5.927 -0.0947 -0.9550 -2.7919
11994TIP3    H257398   0.777   5.658   5.858  1.2762 -1.6004 -0.4980
11995TIP3   OH257399   1.092   3.476  16.008  0.5493 -0.1976 -0.1230
11995TIP3    H157400   1.075   3.563  15.972  3.1672 -0.1543 -1.3868
11995TIP3    H257401   1.182   3.457  15.983 -0.3864 -3.8384 -1.0660
11996TIP3   OH257402   2.554   3.063   5.569 -0.4414 -0.4961 -0.7329
11996TIP3    H157403   2.519   3.021   5.648  0.4775 -1.3190 -0.7465
11996TIP3    H257404   2.504   3.025   5.497 -1.1299  0.0899 -0.5670
11997TIP3   OH257405   0.814   4.741  15.985  0.0765  0.8155 -0.0143
11997TIP3    H157406   0.799   4.786  16.068  0.5251 -1.3153  1.2802
11997TIP3    H257407   0.878   4.795  15.939 -0.5509  2.2875  0.8043
11998TIP3   OH257408   3.896   2.799  16.619 -0.0181 -0.1022  0.0293
11998TIP3    H157409   3.814   2.755  16.597 -0.5751  0.7989  0.2351
11998TIP3    H257410   3.958   2.771  16.552 -1.1348  1.0039 -1.4960
11999TIP3   OH257411   3.337   1.371  15.470 -0.4916 -0.2507 -0.0603
11999TIP3    H157412   3.262   1.423  15.500  0.2050  0.7510 -0.0476
11999TIP3    H257413   3.411   1.431  15.474  0.2351 -1.1095 -0.5112
12000TIP3   OH257414   5.243   6.549  12.429  0.1857 -0.6029  0.7265
12000TIP3    H157415   5.174   6.614  12.442 -0.5131 -1.4723  1.4536
12000TIP3    H257416   5.231   6.519  12.339  0.3478  0.0810  0.4744
12001TIP3   OH257417   5.945   5.849   0.506 -0.0386  0.0684  0.0703
12001TIP3    H157418   5.959   5.828   0.598  0.6716  0.3488  0.0291
12001TIP3    H257419   5.900   5.772   0.470 -0.2022 -0.0918  0.6194
12002TIP3   OH257420   0.030   0.048   3.383  0.4338 -0.0730 -0.5380
12002TIP3    H157421   0.090   0.091   3.321  0.9442  0.7340  0.4945
12002TIP3    H257422  -0.055   0.091   3.368  0.2360 -0.8310 -1.6178
12003TIP3   OH257423   1.336   1.709   2.978 -0.2330 -0.4005 -0.1342
12003TIP3    H157424   1.419   1.740   3.014 -1.2875  1.9559  0.4207
12003TIP3    H257425   1.278   1.701   3.054 -1.4420  1.1634 -0.8582
12004TIP3   OH257426   6.248   6.123  11.628  0.0573 -0.5104  0.2669
12004TIP3    H157427   6.233   6.213  11.654  0.5151 -0.5892  0.8050
12004TIP3    H257428   6.248   6.073  11.710  3.2504 -0.5098  0.3255
12005TIP3   OH257429   5.391   2.939   4.906  0.0165 -0.2564  0.2193
12005TIP3    H157430   5.355   2.995   4.837  0.0216 -0.2965  0.1841
12005TIP3    H257431   5.485   2.956   4.905  0.1981 -1.2892 -0.7095
12006TIP3   OH257432   2.241   3.123  12.129  0.4513 -0.6021 -0.1618
12006TIP3    H157433   2.295   3.050  12.100 -1.1171 -1.7495 -0.2691
12006TIP3    H257434   2.180   3.084  12.192 -2.1129  0.0546 -2.1445
12007TIP3   OH257435   4.623   2.560   5.231 -0.7327 -0.7156 -0.0689
12007TIP3    H157436   4.700   2.546   5.286 -0.5900 -0.9541 -0.3254
12007TIP3    H257437   4.639   2.645   5.189  0.1731 -1.5242 -1.3868
12008TIP3   OH257438   4.121   0.496  15.388 -0.4571  0.0484  0.0545
12008TIP3    H157439   4.092   0.427  15.447  1.1168 -0.6620  0.0208
12008TIP3    H257440   4.114   0.457  15.300 -0.6327  0.3309 -0.0590
12009TIP3   OH257441   1.331   4.293  12.041  0.1367 -0.0786  0.0193
12009TIP3    H157442   1.269   4.366  12.050 -0.9394 -1.0181  0.3277
12009TIP3    H257443   1.355   4.293  11.949 -1.2566 -0.4422 -0.3594
12010TIP3   OH257444   2.051   4.292   5.038  0.2192  0.6443  0.8343
12010TIP3    H157445   1.969   4.293   4.989  0.1355  2.1396  0.9776
12010TIP3    H257446   2.119   4.305   4.972  0.1831  1.5740  0.9770
12011TIP3   OH257447   4.743   0.799  16.041  0.6954  0.1444 -0.3213
12011TIP3    H157448   4.790   0.768  15.964  1.2520 -1.4620  0.6484
12011TIP3    H257449   4.755   0.730  16.107 -0.0898  1.3097  1.0835
12012TIP3   OH257450   0.389   1.640  16.661  0.4366 -0.7619 -0.4642
12012TIP3    H157451   0.419   1.731  16.656 -0.7175 -0.3656 -0.2010
12012TIP3    H257452   0.359   1.620  16.573 -0.1097 -0.6131 -0.3116
12013TIP3   OH257453   2.576   5.363   6.002 -0.2146  0.1320 -0.0818
12013TIP3    H157454   2.641   5.295   6.015  0.1934 -0.2868 -3.6476
12013TIP3    H257455   2.590   5.425   6.073  1.0789 -2.2156  1.7612
12014TIP3   OH257456   3.480   4.850  12.168 -0.0125 -0.2390 -0.0813
12014TIP3    H157457   3.421   4.820  12.099  0.3292  0.9538 -0.9033
12014TIP3    H257458   3.478   4.946  12.161  1.7202 -0.1796  0.1490
12015TIP3   OH257459   3.345   1.589  15.252  0.5183 -0.1673 -0.1773
12015TIP3    H157460   3.282   1.589  15.324  0.9165 -0.7297  0.1698
12015TIP3    H257461   3.304   1.645  15.185 -1.3553 -2.2616 -0.8275
12016TIP3   OH257462   1.191   3.830   6.155 -0.2135 -0.1818 -0.3413
12016TIP3    H157463   1.194   3.878   6.072 -0.5760 -0.2302 -0.3831
12016TIP3    H257464   1.099   3.806   6.165 -0.0726 -0.6781 -0.2126
12017TIP3   OH257465   2.515   4.469  14.157  0.2402  0.0972 -0.4523
12017TIP3    H157466   2.419   4.470  14.165  0.0630 -0.6468 -2.2564
12017TIP3    H257467   2.544   4.414  14.230 -0.6903  0.3308  0.1111
12018TIP3   OH257468   4.785   3.141   3.459 -0.2008 -0.3610  0.1548
12018TIP3    H157469   4.782   3.048   3.482 -1.1008 -0.8081 -1.7187
12018TIP3    H257470   4.695   3.163   3.436  0.3787  0.4568 -1.4096
12019TIP3   OH257471   2.378   4.604   1.967  0.0887 -0.2446 -0.4133
12019TIP3    H157472   2.377   4.627   2.060 -0.7519 -0.1902 -0.4294
12019TIP3    H257473   2.286   4.607   1.941  0.4531  1.2281 -1.6237
12020TIP3   OH257474   1.999   1.406  14.935 -0.4638 -0.1246 -0.3193
12020TIP3    H157475   2.063   1.469  14.902 -1.6069  0.7706 -0.8454
12020TIP3    H257476   2.051   1.329  14.956  0.8038  0.6089 -0.6930
12021TIP3   OH257477   1.944   0.602  12.083 -0.0125 -0.5621 -0.0016
12021TIP3    H157478   1.915   0.511  12.091 -0.3409 -0.5829 -1.2740
12021TIP3    H257479   1.880   0.643  12.025  0.2575  0.4254  0.3882
12022TIP3   OH257480   3.958   1.656   5.909  0.2605 -0.4157 -0.3014
12022TIP3    H157481   3.926   1.568   5.926 -0.4096 -0.2632 -0.7219
12022TIP3    H257482   3.932   1.673   5.818  3.9396 -1.3157 -1.6129
12023TIP3   OH257483   0.794   5.928  13.350 -0.1791  0.0863  0.3309
12023TIP3    H157484   0.865   5.908  13.288  0.0235  3.3420 -0.5589
12023TIP3    H257485   0.831   5.907  13.436  1.1632 -0.1440 -0.2831
12024TIP3   OH257486   0.922   4.989  10.667 -1.2940  0.6124 -0.2280
12024TIP3    H157487   0.956   4.937  10.594  1.5384  0.3770  1.2068
12024TIP3    H257488   0.920   4.929  10.741 -0.8754  1.7127  0.7011
12025TIP3   OH257489   0.063   0.021  15.938 -0.0450  0.2305  0.1264
12025TIP3    H157490   0.157   0.039  15.936 -0.0463  0.2018 -0.1546
12025TIP3    H257491   0.051  -0.031  16.018  0.0421  0.9682  0.6221
12026TIP3   OH257492   2.285   2.522  14.299  0.1534 -0.2808  0.2139
12026TIP3    H157493   2.315   2.462  14.231  0.7646  0.0302  0.1983
12026TIP3    H257494   2.364   2.541  14.351  0.3115  1.6373 -0.6553
12027TIP3   OH257495   1.408   0.287   3.819 -0.5988 -0.3694 -0.0161
12027TIP3    H157496   1.429   0.345   3.892  2.3871 -2.6102  0.9800
12027TIP3    H257497   1.333   0.236   3.850 -2.2828  1.7871 -0.3399
12028TIP3   OH257498   0.962   1.081   6.094  0.1371 -0.2409 -0.1765
12028TIP3    H157499   1.041   1.105   6.142 -0.6423 -0.6293  1.2978
12028TIP3    H257500   0.893   1.078   6.160 -0.7579 -1.7165 -1.1626
12029TIP3   OH257501   0.103   3.328  15.166 -0.0593  0.6613  0.1863
12029TIP3    H157502   0.148   3.245  15.154  2.0507  2.0868 -2.0981
12029TIP3    H257503   0.173   3.391  15.184 -1.4567  2.2746  0.1027
12030TIP3   OH257504   5.073   6.767  12.541 -0.2684  0.5747  0.3283
12030TIP3    H157505   5.046   6.803  12.457  1.1539  1.5441  0.2665
12030TIP3    H257506   4.993   6.764  12.593 -1.6534 -2.3659 -1.8483
12031TIP3   OH257507   5.550   2.565  15.278  0.5453 -0.6094 -0.2093
12031TIP3    H157508   5.527   2.578  15.185  0.3678 -1.4942 -0.2931
12031TIP3    H257509   5.641   2.594  15.284  0.8359 -1.3461 -0.8504
12032TIP3   OH257510   6.505   1.398   3.100  0.4022  0.0847  0.0793
12032TIP3    H157511   6.483   1.485   3.066  0.3713  0.2496  0.5105
12032TIP3    H257512   6.552   1.355   3.029 -1.9427 -0.5368 -1.1402
12033TIP3   OH257513   1.332   2.101   2.573 -0.2014  0.1434  0.5992
12033TIP3    H157514   1.329   2.078   2.481 -0.7744  0.5444  0.5219
12033TIP3    H257515   1.241   2.105   2.601 -0.1853  3.3115  0.3716
12034TIP3   OH257516   1.870   5.658  16.550 -0.2512  0.0554  0.2478
12034TIP3    H157517   1.938   5.590  16.549  0.0352  0.3162  1.0474
12034TIP3    H257518   1.865   5.688  16.460  0.6017 -0.0690  0.1510
12035TIP3   OH257519   1.870   5.055   0.962  0.6186  0.3365 -0.5097
12035TIP3    H157520   1.823   5.052   1.045  1.6108  0.8269  0.0768
12035TIP3    H257521   1.802   5.069   0.896 -0.2176 -0.4985  0.1750
12036TIP3   OH257522   6.261   0.994  15.573 -0.5957  0.2890 -0.9927
12036TIP3    H157523   6.334   0.965  15.627 -0.5875  2.7836  0.3959
12036TIP3    H257524   6.290   0.979  15.483  0.0583 -2.3089 -0.4108
12037TIP3   OH257525   0.614   0.444   4.003  0.5314  0.7738  0.0043
12037TIP3    H157526   0.528   0.470   3.970  0.5836 -0.5572 -1.2403
12037TIP3    H257527   0.675   0.505   3.962  0.2670  1.1427  0.1614
12038TIP3   OH257528   0.375   0.321   4.203 -0.1828  0.2540 -0.1837
12038TIP3    H157529   0.347   0.244   4.253  0.1599  0.0921 -0.2385
12038TIP3    H257530   0.361   0.296   4.111  0.5712 -0.0045 -0.2339
12039TIP3   OH257531   0.526   5.383   4.031  0.5368 -0.1987 -0.5682
12039TIP3    H157532   0.485   5.458   3.987 -0.3859 -1.1082 -1.2706
12039TIP3    H257533   0.461   5.313   4.025  0.0163 -0.1241  3.0146
12040TIP3   OH257534   1.004   0.492  15.614 -0.1022 -0.1533 -0.4256
12040TIP3    H157535   1.019   0.415  15.558 -0.2963 -0.2701 -0.3182
12040TIP3    H257536   0.995   0.456  15.702  0.3248  0.0432 -0.3020
12041TIP3   OH257537   3.485   3.788   0.636  0.3474  0.1353  0.9460
12041TIP3    H157538   3.547   3.725   0.600  1.5576  0.2178  2.7957
12041TIP3    H257539   3.399   3.756   0.610  1.0889 -0.7881 -0.4193
12042TIP3   OH257540   0.326   2.110  16.712 -0.4862 -0.5005  0.0956
12042TIP3    H157541   0.361   2.094  16.625  0.3565 -0.0775  0.3528
12042TIP3    H257542   0.237   2.075  16.709 -0.5555 -0.2440 -1.0089
12043TIP3   OH257543   5.094   3.304   2.731  0.1117 -0.0386 -0.5977
12043TIP3    H157544   5.116   3.286   2.823 -4.2120 -0.5718  0.4554
12043TIP3    H257545   5.172   3.346   2.695  2.2837 -0.7585  3.0348
12044TIP3   OH257546   0.909   1.472   5.210 -0.0201 -0.2233 -0.1507
12044TIP3    H157547   0.922   1.545   5.150  0.0132  0.0964  0.2471
12044TIP3    H257548   0.995   1.431   5.218 -0.3108 -1.1223 -1.4200
12045TIP3   OH257549   4.717   1.818   1.818 -0.0882  0.0466  0.0726
12045TIP3    H157550   4.685   1.822   1.908 -0.4247 -0.7957 -0.0007
12045TIP3    H257551   4.640   1.838   1.764 -0.3690 -1.4036 -0.0852
12046TIP3   OH257552   3.873   3.256   0.753 -0.0988  0.5658  0.0561
12046TIP3    H157553   3.955   3.243   0.800 -0.8071  2.2475  1.8393
12046TIP3    H257554   3.897   3.303   0.673  0.6876  0.8686  0.4739
12047TIP3   OH257555   4.516   3.644   2.300 -0.8045 -0.5991 -0.5916
12047TIP3    H157556   4.593   3.603   2.338 -1.3143 -1.2486 -0.2590
12047TIP3    H257557   4.485   3.704   2.368 -1.2003 -1.1093 -0.3195
12048TIP3   OH257558   1.599   4.802   4.078  0.3748 -0.4191 -0.0362
12048TIP3    H157559   1.547   4.881   4.093 -0.4290 -1.1890  1.3411
12048TIP3    H257560   1.574   4.743   4.149  2.8279 -0.9643  0.4234
12049TIP3   OH257561   1.959   3.434   5.206  0.2076 -0.4429  0.2255
12049TIP3    H157562   1.989   3.421   5.296  1.2687  1.0067  0.1234
12049TIP3    H257563   2.039   3.456   5.158 -0.4630 -0.4193 -0.8971
12050TIP3   OH257564   3.454   6.612   5.551 -0.9399 -0.3945 -0.7516
12050TIP3    H157565   3.458   6.521   5.580 -0.4629  0.5011  2.1104
12050TIP3    H257566   3.360   6.631   5.546 -1.0439 -0.5071  0.5062
12051TIP3   OH257567   3.176   4.820  16.735 -0.5940  0.2723 -0.2656
12051TIP3    H157568   3.153   4.889  16.797 -0.7188  1.1789 -1.3001
12051TIP3    H257569   3.207   4.867  16.658  0.4360 -0.8581 -0.5503
12052TIP3   OH257570   3.501   4.429  16.901 -0.4937 -0.0632  0.2971
12052TIP3    H157571   3.408   4.450  16.907 -0.1775  2.5229 -2.5359
12052TIP3    H257572   3.505   4.359  16.835 -0.5129 -1.3026  1.5691
12053TIP3   OH257573   2.817   3.869  13.704 -0.1281  0.5315 -0.1854
12053TIP3    H157574   2.881   3.925  13.747 -1.5752  0.5561  2.0080
12053TIP3    H257575   2.739   3.924  13.697 -0.8337 -0.4582 -0.1224
12054TIP3   OH257576   0.098   6.549   0.135  0.1882 -0.8219 -0.5543
12054TIP3    H157577   0.187   6.574   0.111 -0.7301  2.4974 -0.7789
12054TIP3    H257578   0.052   6.539   0.051 -0.5221  1.0183 -0.4107
12055TIP3   OH257579   6.758   5.557  12.095 -0.6199 -0.0602 -0.4978
12055TIP3    H157580   6.783   5.516  12.178  0.2006  1.1619 -0.1252
12055TIP3    H257581   6.676   5.603  12.116  0.0416  0.9777 -0.1080
12056TIP3   OH257582   2.378   0.710  16.616 -0.9496  0.3810 -0.5143
12056TIP3    H157583   2.431   0.787  16.592 -0.0069 -0.0567  0.1448
12056TIP3    H257584   2.362   0.665  16.534  0.5368 -0.0111 -0.5908
12057TIP3   OH257585   0.513   5.407  13.522 -0.2114  0.1821  0.5114
12057TIP3    H157586   0.525   5.371  13.610 -0.6079  0.7647  0.8076
12057TIP3    H257587   0.567   5.486  13.521  0.0925 -0.0319  0.1036
12058TIP3   OH257588   0.249   4.897  15.927 -0.2666 -0.4700 -0.3033
12058TIP3    H157589   0.281   4.814  15.963  0.1569 -0.2774 -0.2350
12058TIP3    H257590   0.252   4.885  15.832  1.8081  0.2162 -0.3415
12059TIP3   OH257591   4.544   6.506   3.826  0.2788 -0.2987 -0.2676
12059TIP3    H157592   4.614   6.457   3.782  0.3352 -0.4069 -0.0551
12059TIP3    H257593   4.473   6.510   3.761  0.2440 -0.7277 -0.2588
12060TIP3   OH257594   0.825   4.184   2.307 -0.5681  0.2288  0.1442
12060TIP3    H157595   0.750   4.230   2.345  0.3831 -0.3325  2.8048
12060TIP3    H257596   0.791   4.097   2.285 -0.8968  0.2198  0.6634
12061TIP3   OH257597   2.757   1.454   2.125  0.0559 -0.5072  0.1798
12061TIP3    H157598   2.815   1.411   2.063  0.1836 -0.3285  0.1766
12061TIP3    H257599   2.807   1.528   2.158  0.9091 -1.9893  2.3322
12062TIP3   OH257600   4.906   3.691  11.943  0.2993  0.2792  0.0940
12062TIP3    H157601   4.945   3.773  11.910 -0.7302  0.8543  0.2846
12062TIP3    H257602   4.924   3.627  11.874  1.1773  0.6486 -0.0249
12063TIP3   OH257603   4.383   6.596  14.923  0.5359  0.1752 -0.1421
12063TIP3    H157604   4.369   6.508  14.889 -2.0472  0.5407 -0.1716
12063TIP3    H257605   4.419   6.645  14.849  2.5952 -0.9932  0.0678
12064TIP3   OH257606   2.722   2.104  15.795 -0.8338  0.5253  0.0348
12064TIP3    H157607   2.752   2.104  15.886 -0.1265  0.2720 -0.1969
12064TIP3    H257608   2.703   2.196  15.777 -0.1402  0.6981  0.1675
12065TIP3   OH257609   5.565   5.793   5.591  0.1621  0.1597  0.1577
12065TIP3    H157610   5.526   5.876   5.562 -0.4220 -0.9865 -2.4065
12065TIP3    H257611   5.497   5.754   5.647 -0.3699  0.5008 -0.2399
12066TIP3   OH257612   6.104   6.153   2.917 -0.4996 -0.1583 -0.0610
12066TIP3    H157613   6.171   6.102   2.962  0.8131  1.5825 -0.0005
12066TIP3    H257614   6.150   6.196   2.845 -1.6608  0.6116 -0.3689
12067TIP3   OH257615   0.794   4.912   2.764 -0.2467  0.2520 -0.7863
12067TIP3    H157616   0.722   4.975   2.762 -1.0727 -0.6975 -2.1988
12067TIP3    H257617   0.761   4.841   2.820 -0.6200 -0.3992 -1.8120
12068TIP3   OH257618   5.350   1.294   5.453  0.0785 -0.3129  0.7763
12068TIP3    H157619   5.423   1.279   5.393 -0.2930  0.7948  0.0473
12068TIP3    H257620   5.393   1.313   5.537  0.6151 -0.6072  0.5737
12069TIP3   OH257621   0.121   1.746   0.329  0.4111  0.3096 -0.2207
12069TIP3    H157622   0.044   1.803   0.327 -0.6888 -1.1689 -1.0357
12069TIP3    H257623   0.179   1.782   0.262  0.3717  1.3587  0.3025
12070TIP3   OH257624   3.934   5.172   5.632 -0.4995 -0.4672 -0.4262
12070TIP3    H157625   3.950   5.253   5.681 -0.0310  0.2410 -1.7445
12070TIP3    H257626   4.013   5.159   5.581 -0.7714 -1.5122 -0.5826
12071TIP3   OH257627   0.385   2.092  14.277  0.3625 -0.7339  0.1947
12071TIP3    H157628   0.310   2.037  14.255  0.5563  0.1177 -2.7723
12071TIP3    H257629   0.356   2.143  14.353 -1.0592 -2.3298  0.7757
12072TIP3   OH257630   0.607   3.196   3.588  0.8759 -0.5912  0.2184
12072TIP3    H157631   0.520   3.230   3.566 -0.2339 -0.9209  3.7910
12072TIP3    H257632   0.664   3.273   3.586  0.2871 -0.1700 -0.9739
12073TIP3   OH257633   3.732   6.479   0.948 -0.3705  0.6462 -0.0839
12073TIP3    H157634   3.688   6.469   0.864 -1.1946  0.2963  0.3811
12073TIP3    H257635   3.817   6.437   0.936 -0.0051  1.6552 -1.1041
12074TIP3   OH257636   1.637   1.080  11.743 -0.6035  0.0047 -0.2174
12074TIP3    H157637   1.549   1.116  11.748 -1.1368 -1.2269 -0.6336
12074TIP3    H257638   1.662   1.090  11.651 -1.5762 -2.5766 -0.7889
12075TIP3   OH257639   6.076   3.226   4.175 -0.2977  0.2703 -0.0497
12075TIP3    H157640   6.086   3.318   4.151  1.8898  0.3827  1.1947
12075TIP3    H257641   6.012   3.227   4.247  0.8895  1.0011  1.0142
12076TIP3   OH257642   2.551   1.139   3.908  0.3538  0.3857 -0.7354
12076TIP3    H157643   2.499   1.088   3.846 -0.5384  0.0025  0.3346
12076TIP3    H257644   2.550   1.228   3.872  1.3146 -0.1732 -2.2094
12077TIP3   OH257645   6.424   5.462  14.424  0.3855 -0.1999 -0.0494
12077TIP3    H157646   6.512   5.442  14.391  0.4256 -2.1106  1.1775
12077TIP3    H257647   6.401   5.388  14.479 -1.6178  0.7455  0.4375
12078TIP3   OH257648   1.543   3.260   5.341  0.2524 -0.2450  0.1460
12078TIP3    H157649   1.625   3.275   5.388 -0.1389  0.8493  0.4987
12078TIP3    H257650   1.479   3.242   5.410  0.0047 -0.1920 -0.0683
12079TIP3   OH257651   5.525   2.870  16.665  0.6030 -0.3288  0.6349
12079TIP3    H157652   5.449   2.886  16.720  1.0821  0.0894  1.1751
12079TIP3    H257653   5.530   2.947  16.607  1.6265  0.4793  1.7715
12080TIP3   OH257654   1.122   3.894  13.433 -0.4060 -0.0546 -0.1070
12080TIP3    H157655   1.081   3.922  13.514  0.3792  1.0500 -0.0851
12080TIP3    H257656   1.051   3.897  13.368 -0.6054  0.7842  0.1560
12081TIP3   OH257657   0.256   4.613  11.617 -0.2434  0.4216  0.0866
12081TIP3    H157658   0.250   4.706  11.599 -1.2948  0.5706  1.1434
12081TIP3    H257659   0.332   4.605  11.676 -0.4895  0.6741  0.4360
12082TIP3   OH257660   6.516   2.786   2.534 -0.5121  0.1094  0.1320
12082TIP3    H157661   6.454   2.798   2.606  0.1997  0.6163  0.6654
12082TIP3    H257662   6.582   2.853   2.547  0.6331 -0.9819  0.0803
12083TIP3   OH257663   1.619   6.753  12.233  0.0939 -0.6054  0.7170
12083TIP3    H157664   1.673   6.827  12.206  0.9102 -0.5027  2.6046
12083TIP3    H257665   1.609   6.701  12.153  1.0532  0.5827 -0.1887
12084TIP3   OH257666   5.280   5.099  13.326 -0.1114  0.2019  0.0504
12084TIP3    H157667   5.249   5.020  13.372  0.0561  0.7415  1.1128
12084TIP3    H257668   5.296   5.070  13.237 -1.7338 -0.5681 -0.0160
12085TIP3   OH257669   4.971   2.225   1.931  0.2784  0.4815  0.3688
12085TIP3    H157670   5.034   2.286   1.892  1.3471 -2.4889 -2.7741
12085TIP3    H257671   5.024   2.153   1.963 -1.2716 -0.7436  0.2588
12086TIP3   OH257672   4.426   0.287   4.836 -0.0770  0.8937  0.0726
12086TIP3    H157673   4.461   0.297   4.925 -0.9079  0.3625  0.4622
12086TIP3    H257674   4.351   0.346   4.832 -1.6717 -1.0175  0.6146
12087TIP3   OH257675   1.740   0.973   2.353 -0.0706  0.2518  0.6150
12087TIP3    H157676   1.703   1.060   2.337  0.1195  0.5434  1.7165
12087TIP3    H257677   1.671   0.926   2.400  0.4862  0.4056  1.6095
12088TIP3   OH257678   1.461   6.767   4.420 -0.1419  0.3904  0.0186
12088TIP3    H157679   1.401   6.697   4.397  1.5579  0.3702 -4.9301
12088TIP3    H257680   1.547   6.725   4.427  0.1373  1.2055  2.3032
12089TIP3   OH257681   6.412   0.619  14.106  0.1337  0.2316 -0.5077
12089TIP3    H157682   6.403   0.669  14.024 -0.9333 -0.6930 -0.9687
12089TIP3    H257683   6.335   0.563  14.108 -0.1420  0.6581  1.4358
12090TIP3   OH257684   3.021   6.530   1.854  0.5373 -0.0390 -0.5079
12090TIP3    H157685   3.074   6.557   1.779  0.0975  0.7205 -0.5563
12090TIP3    H257686   3.026   6.434   1.854  0.6794 -0.0397 -1.4105
12091TIP3   OH257687   5.929   6.161   4.886 -0.5146 -0.1896 -0.0867
12091TIP3    H157688   5.917   6.165   4.981  2.1268 -0.1702  0.2777
12091TIP3    H257689   5.870   6.091   4.857 -1.4831 -0.0541  1.5319
12092TIP3   OH257690   6.329   5.389   1.035 -0.3724  0.5487  0.1442
12092TIP3    H157691   6.328   5.306   0.988  0.1524  0.5165  0.1877
12092TIP3    H257692   6.402   5.382   1.096  0.0880  1.2934 -0.3122
12093TIP3   OH257693   3.843   1.237   3.166  0.5180 -0.0308 -0.0413
12093TIP3    H157694   3.856   1.331   3.177 -1.2805  0.1967  0.3526
12093TIP3    H257695   3.766   1.230   3.110  0.1354 -1.2767  0.6205
12094TIP3   OH257696   5.766   0.399   1.570 -0.3929 -0.7187 -0.4293
12094TIP3    H157697   5.816   0.428   1.494 -0.1243  2.3721  0.8836
12094TIP3    H257698   5.829   0.346   1.621  0.7123  0.7640 -0.2263
12095TIP3   OH257699   2.722   4.985   5.851  0.0308 -1.0355 -0.9291
12095TIP3    H157700   2.747   5.033   5.930 -2.4800 -0.4757 -0.4169
12095TIP3    H257701   2.730   4.893   5.876  1.3775 -0.8727 -0.7420
12096TIP3   OH257702   5.301   2.400  13.461 -0.7226  0.0237  0.1308
12096TIP3    H157703   5.389   2.426  13.489 -0.4262 -1.1610  0.3311
12096TIP3    H257704   5.268   2.347  13.533 -0.7309 -1.3848 -0.8984
12097TIP3   OH257705   6.098   5.599  11.893 -0.1051 -0.6361 -0.1577
12097TIP3    H157706   6.170   5.541  11.920  1.1205  0.5495 -0.8118
12097TIP3    H257707   6.141   5.681  11.871 -1.5732 -0.1852 -1.4392
12098TIP3   OH257708   4.575   3.420  17.113 -0.0236 -0.1472 -0.2940
12098TIP3    H157709   4.606   3.407  17.203 -0.1634  0.8144 -0.0955
12098TIP3    H257710   4.654   3.420  17.060  0.3107  1.6738  0.1351
12099TIP3   OH257711   0.840   1.106  16.286  0.4367 -0.8353  0.0547
12099TIP3    H157712   0.823   1.020  16.323  2.8020 -1.3016  0.1573
12099TIP3    H257713   0.804   1.167  16.350 -0.6551 -1.7418  0.3065
12100TIP3   OH257714   5.649   4.640   3.874  0.1524 -0.0142 -0.6569
12100TIP3    H157715   5.711   4.712   3.865  0.1307  0.3031  1.4651
12100TIP3    H257716   5.691   4.566   3.831  1.6299  0.4289 -0.0056
12101TIP3   OH257717   2.248   0.604  15.630 -0.0017 -0.2463  0.3307
12101TIP3    H157718   2.281   0.677  15.577  1.3429  0.7346  2.4620
12101TIP3    H257719   2.214   0.646  15.709 -3.9542 -1.4809 -0.6224
12102TIP3   OH257720   3.013   3.985   0.027 -0.3369 -0.3269 -0.0704
12102TIP3    H157721   3.017   4.046   0.101 -2.2762 -1.8109  1.3189
12102TIP3    H257722   3.103   3.957   0.013 -0.0881 -1.0132  2.6241
12103TIP3   OH257723   6.299   1.074  13.882 -0.0493 -0.4390 -0.3146
12103TIP3    H157724   6.239   1.019  13.932  0.1985  0.1489  0.6511
12103TIP3    H257725   6.261   1.162  13.889  1.7622  0.2085  1.6394
12104TIP3   OH257726   4.137   5.732   0.127 -0.3766 -0.3584  0.3408
12104TIP3    H157727   4.107   5.814   0.088 -3.2264 -1.5496 -0.1000
12104TIP3    H257728   4.167   5.757   0.215  0.2907  1.3877 -0.3569
12105TIP3   OH257729   3.664   0.525   1.643 -0.3149  0.8725 -0.0294
12105TIP3    H157730   3.628   0.498   1.558 -1.4414 -0.0626  0.7255
12105TIP3    H257731   3.747   0.567   1.622  1.3385 -2.8580 -1.3161
12106TIP3   OH257732   0.798   3.351   0.935 -0.0003 -0.1080  0.4367
12106TIP3    H157733   0.805   3.447   0.930  2.0468 -0.1956  1.0370
12106TIP3    H257734   0.770   3.334   1.025 -1.0408 -0.0503  0.1268
12107TIP3   OH257735   3.325   5.922  16.867 -0.5741  0.6862  0.3499
12107TIP3    H157736   3.387   5.992  16.847  2.1291 -1.6629  0.1406
12107TIP3    H257737   3.370   5.842  16.839 -4.0304 -1.0519 -0.4495
12108TIP3   OH257738   5.147   5.169   5.115 -0.5481 -0.8404 -0.0883
12108TIP3    H157739   5.125   5.133   5.030 -1.0519 -1.2029  0.1902
12108TIP3    H257740   5.062   5.196   5.152  0.0448  3.6546 -1.6257
12109TIP3   OH257741   5.425   4.506  12.658 -0.0328  0.2630  0.6597
12109TIP3    H157742   5.433   4.421  12.616 -1.0481 -0.5506  2.0633
12109TIP3    H257743   5.510   4.521  12.700  0.8250  0.8753 -1.2648
12110TIP3   OH257744   3.896   0.052   5.470  0.6143  0.7062  0.2770
12110TIP3    H157745   3.921  -0.017   5.408 -0.2373 -0.3997  1.1339
12110TIP3    H257746   3.978   0.072   5.516  0.4609 -1.2270  1.4480
12111TIP3   OH257747   6.426   6.212  12.198 -0.0922 -0.2655 -0.3054
12111TIP3    H157748   6.514   6.189  12.168  0.1756 -0.3341  0.5396
12111TIP3    H257749   6.431   6.307  12.215 -0.3689 -0.1413 -0.9057
12112TIP3   OH257750   5.293   3.498  12.450 -0.4042  0.2096 -0.4723
12112TIP3    H157751   5.278   3.478  12.358 -0.1126  2.2409 -0.9709
12112TIP3    H257752   5.207   3.527  12.483 -0.9508 -2.2025  0.3852
12113TIP3   OH257753   2.207   6.105   4.488  0.4339  0.4940 -0.3935
12113TIP3    H157754   2.203   6.090   4.582  2.4077 -1.9916 -0.6387
12113TIP3    H257755   2.286   6.158   4.476  1.1664 -0.6800 -0.7945
12114TIP3   OH257756   2.256   5.516  11.348  0.1044  0.0401  0.7026
12114TIP3    H157757   2.171   5.555  11.367  0.6451  1.8686 -0.5440
12114TIP3    H257758   2.255   5.501  11.254  1.4894  0.8950  0.5392
12115TIP3   OH257759   1.501   0.575   0.460  0.1140 -0.0189  0.2538
12115TIP3    H157760   1.473   0.488   0.487  0.5795 -0.5469 -0.9185
12115TIP3    H257761   1.508   0.570   0.365 -0.8960  1.6203  0.0628
12116TIP3   OH257762   2.434   6.772  14.174 -0.2099  0.5317  0.5611
12116TIP3    H157763   2.477   6.786  14.089  1.5820 -3.5683  0.6929
12116TIP3    H257764   2.491   6.817  14.237 -0.0410  1.2198 -0.0722
12117TIP3   OH257765   6.381   2.615   3.974 -0.1951  0.0394  0.5666
12117TIP3    H157766   6.462   2.644   4.016  0.3378  0.2392 -0.5724
12117TIP3    H257767   6.332   2.695   3.957 -0.2541 -0.0084  0.5082
12118TIP3   OH257768   0.217   1.612  13.942  0.1383  0.3213  0.1128
12118TIP3    H157769   0.217   1.662  14.024  0.7492 -0.0419  0.3441
12118TIP3    H257770   0.125   1.606  13.917 -0.1434 -0.3564  1.2606
12119TIP3   OH257771   5.142   5.990   4.016 -0.2492 -0.0741  0.2013
12119TIP3    H157772   5.209   6.057   4.026  0.1247 -0.4822  0.4691
12119TIP3    H257773   5.079   6.027   3.954 -1.7208  1.8036  2.7506
12120TIP3   OH257774   3.811   2.018  16.555 -0.2356 -0.4714 -0.1869
12120TIP3    H157775   3.890   2.029  16.609 -0.6247 -0.7882  0.4513
12120TIP3    H257776   3.767   1.942  16.593 -0.0602 -1.2531 -1.5146
12121TIP3   OH257777   3.981   2.915   3.306 -0.3353  0.3287 -1.1019
12121TIP3    H157778   3.935   2.971   3.243 -1.4090 -1.1577 -1.6724
12121TIP3    H257779   3.980   2.828   3.266  0.9745 -0.1805 -0.0594
12122TIP3   OH257780   5.525   1.045  15.388  0.3565 -0.6449  0.0236
12122TIP3    H157781   5.511   1.005  15.303  0.9516 -1.5579  0.3536
12122TIP3    H257782   5.565   1.130  15.369  2.0934 -1.5830 -0.5164
12123TIP3   OH257783   5.477   2.831   0.646 -0.0328 -0.4571  0.0914
12123TIP3    H157784   5.417   2.861   0.713  0.1898  1.7169 -0.6598
12123TIP3    H257785   5.461   2.737   0.640 -3.2146  0.0403  0.0420
12124TIP3   OH257786   4.444   4.977  12.004  0.3065 -0.6664  0.1038
12124TIP3    H157787   4.487   4.903  11.962  1.1994 -0.0876 -0.0198
12124TIP3    H257788   4.402   4.940  12.082 -0.7229 -1.6051 -0.8906
12125TIP3   OH257789   6.090   1.370   1.467  0.0669  0.1539 -0.6429
12125TIP3    H157790   6.071   1.291   1.415 -3.4227  0.2110  0.4102
12125TIP3    H257791   6.081   1.442   1.404 -1.1599  0.0041 -0.6595
12126TIP3   OH257792   3.789   4.008  14.180  0.0406 -0.1923  0.0719
12126TIP3    H157793   3.871   3.970  14.150 -0.0155 -1.4353  1.4534
12126TIP3    H257794   3.726   3.936  14.177 -1.0185  0.7622 -1.0251
12127TIP3   OH257795   5.487   4.426  17.214  0.4517 -0.4279 -0.4490
12127TIP3    H157796   5.493   4.405  17.308  1.9058 -0.0359 -0.4513
12127TIP3    H257797   5.394   4.411  17.193  0.3131 -1.5094  0.8118
12128TIP3   OH257798   2.501   3.558   3.245  0.4364  0.3200 -0.7099
12128TIP3    H157799   2.534   3.569   3.334 -0.5275  1.0266 -0.4267
12128TIP3    H257800   2.563   3.606   3.190  1.8369 -1.3113 -0.5969
12129TIP3   OH257801   3.193   3.058  17.044  0.6721 -0.1086  0.3100
12129TIP3    H157802   3.239   3.130  17.087  0.5095 -0.2036  0.6425
12129TIP3    H257803   3.102   3.068  17.072  0.3071  0.6285 -1.0818
12130TIP3   OH257804   2.260   4.108   1.994  0.2748  0.3489  0.2174
12130TIP3    H157805   2.178   4.158   1.998  0.1502  0.0435  1.7453
12130TIP3    H257806   2.316   4.157   1.934 -0.7228  1.0046 -0.1865
12131TIP3   OH257807   3.779   3.333  11.807 -0.1694 -0.0889  0.0295
12131TIP3    H157808   3.753   3.243  11.826 -1.0666  0.4265  1.3636
12131TIP3    H257809   3.701   3.385  11.827  0.7264  1.1077  0.4609
12132TIP3   OH257810   5.349   4.036   0.259  0.3880 -0.5861  0.3309
12132TIP3    H157811   5.445   4.031   0.267  0.3653  1.1837  2.4019
12132TIP3    H257812   5.317   4.008   0.345 -0.9534 -1.0267 -0.3118
12133TIP3   OH257813   1.202   2.521   2.789  0.0619 -0.2789 -0.3295
12133TIP3    H157814   1.137   2.590   2.795 -1.3384 -1.5065 -1.0508
12133TIP3    H257815   1.174   2.456   2.854  0.6841 -0.7067 -0.4848
12134TIP3   OH257816   2.289   6.476   2.038 -0.2152 -0.6185 -0.1983
12134TIP3    H157817   2.275   6.383   2.054  1.4187 -0.5508  1.8092
12134TIP3    H257818   2.356   6.478   1.969  1.4713 -0.9770  1.3795
12135TIP3   OH257819   2.937   0.067   4.719 -0.3588  0.2520 -0.7446
12135TIP3    H157820   2.958   0.115   4.639  2.1646 -0.1570 -0.3732
12135TIP3    H257821   2.923   0.135   4.785  0.8411  0.5472 -0.7804
12136TIP3   OH257822   2.137   1.790  12.138 -0.2023  0.6246  0.3133
12136TIP3    H157823   2.056   1.758  12.097  0.9813  0.1931 -1.7503
12136TIP3    H257824   2.167   1.861  12.081  1.6796 -0.2479  0.1751
12137TIP3   OH257825   2.914   1.203   3.672  0.2815 -0.1991 -0.1920
12137TIP3    H157826   2.996   1.202   3.721 -0.6109  1.4115  1.4173
12137TIP3    H257827   2.874   1.118   3.691  0.9489 -0.4428  0.1460
12138TIP3   OH257828   2.542   0.026  11.062  0.2937 -0.1101  0.7000
12138TIP3    H157829   2.567   0.018  10.970  1.3234 -0.9891  1.0492
12138TIP3    H257830   2.472   0.091  11.062  0.1162 -0.2854 -0.7339
12139TIP3   OH257831   5.738   1.572  16.956 -0.5783 -0.1443  0.0213
12139TIP3    H157832   5.721   1.510  17.027  0.6062 -0.1916  0.2748
12139TIP3    H257833   5.833   1.581  16.954 -0.7997  3.0179  1.1341
12140TIP3   OH257834   0.448   3.395   3.129 -0.3055 -0.0867  0.5054
12140TIP3    H157835   0.437   3.490   3.132  0.1904 -0.0138  0.0834
12140TIP3    H257836   0.409   3.369   3.046  2.4773  0.1489 -0.9151
12141TIP3   OH257837   1.731   0.887   3.472  1.0801 -0.2421 -0.3069
12141TIP3    H157838   1.754   0.867   3.382  0.2298 -0.3120 -0.5182
12141TIP3    H257839   1.720   0.982   3.474  2.6400 -0.0559  0.1017
12142TIP3   OH257840   0.484   5.525  16.757 -0.3614  0.2366 -0.0354
12142TIP3    H157841   0.443   5.454  16.806  1.1494 -0.4278  0.3054
12142TIP3    H257842   0.519   5.483  16.678 -2.0204  1.1390 -1.2892
12143TIP3   OH257843   0.092   1.028   5.002 -0.3285 -0.1997 -0.1961
12143TIP3    H157844   0.012   1.063   5.042  0.0895  0.3476  0.1640
12143TIP3    H257845   0.118   0.956   5.059 -1.2544 -1.1875 -1.0004
12144TIP3   OH257846   6.244   6.390   2.505  0.4479  0.4157 -0.5825
12144TIP3    H157847   6.225   6.479   2.536  0.2153  0.2925 -0.3683
12144TIP3    H257848   6.263   6.401   2.412 -0.5012  0.5752 -0.7629
12145TIP3   OH257849   4.724   2.976  13.597  0.0317  0.5541  0.5197
12145TIP3    H157850   4.734   2.937  13.684 -0.1852 -0.3167  0.1588
12145TIP3    H257851   4.663   2.918  13.552 -0.8962  1.7393  0.2293
12146TIP3   OH257852   0.890   6.054  16.987 -0.1884  0.3228 -0.2057
12146TIP3    H157853   0.887   6.023  16.897 -1.4496 -0.0255 -0.0656
12146TIP3    H257854   0.905   6.148  16.980  3.2293 -0.2177 -0.6442
12147TIP3   OH257855   2.438   6.450   2.289  0.0352 -0.1138 -0.1232
12147TIP3    H157856   2.523   6.483   2.259  0.7507 -1.1000  0.7815
12147TIP3    H257857   2.375   6.513   2.255  0.8601 -0.7809 -3.0569
12148TIP3   OH257858   2.432   2.614  16.351 -0.0608 -0.1555 -0.2033
12148TIP3    H157859   2.406   2.575  16.267  2.7729  1.3461 -1.8514
12148TIP3    H257860   2.426   2.709  16.336 -0.3269  0.1291  1.5798
12149TIP3   OH257861   4.398   5.210  15.943  0.0419 -0.4798  0.0054
12149TIP3    H157862   4.307   5.225  15.970 -0.1075 -0.8820 -0.2696
12149TIP3    H257863   4.450   5.265  16.001 -0.3044 -1.0107  0.8169
12150TIP3   OH257864   1.664   6.360  11.160 -0.3847 -0.2307 -0.0910
12150TIP3    H157865   1.688   6.312  11.081  1.5074  2.2109 -1.0769
12150TIP3    H257866   1.744   6.408  11.184 -2.3308  2.9463  0.3975
12151TIP3   OH257867   0.518   1.013  15.977 -0.6436  0.6852  0.0246
12151TIP3    H157868   0.577   0.979  15.910 -0.0682  0.2512  0.7431
12151TIP3    H257869   0.561   1.093  16.008 -0.9255  0.9027 -0.1490
12152TIP3   OH257870   5.081   2.922  11.795  0.6510  0.4818 -0.2437
12152TIP3    H157871   4.999   2.942  11.842  1.2236  1.2371  0.4459
12152TIP3    H257872   5.080   2.982  11.721 -0.3951 -0.9108 -1.3880
12153TIP3   OH257873   3.228   4.399  14.558 -0.0804 -0.7931 -0.1943
12153TIP3    H157874   3.246   4.417  14.465 -0.1251 -0.6857 -0.1836
12153TIP3    H257875   3.315   4.395  14.599 -0.0604 -0.8434 -0.2412
12154TIP3   OH257876   6.649   1.513  15.529 -0.2026  0.5456 -0.1498
12154TIP3    H157877   6.589   1.585  15.553  0.1602  0.2117  1.8719
12154TIP3    H257878   6.731   1.535  15.573 -0.3922 -1.6148  1.3383
12155TIP3   OH257879   2.265   4.306  12.593  0.3014 -0.1572 -0.0069
12155TIP3    H157880   2.327   4.279  12.525  0.2579 -1.4358  0.4294
12155TIP3    H257881   2.261   4.401  12.587  2.4550 -0.0426  0.0847
12156TIP3   OH257882   2.285   1.382  14.827 -0.3062 -0.4425 -0.1014
12156TIP3    H157883   2.318   1.292  14.831  1.2630  0.0436 -1.4149
12156TIP3    H257884   2.249   1.390  14.738 -0.9536  0.0548  0.2072
12157TIP3   OH257885   3.087   1.841  12.650 -0.3719 -0.1430 -0.8513
12157TIP3    H157886   3.057   1.751  12.638  0.6785 -0.4289 -1.3607
12157TIP3    H257887   3.125   1.842  12.738 -0.2393 -0.2394 -0.9065
12158TIP3   OH257888   6.066   3.104  13.160  0.0445  0.2742  0.9986
12158TIP3    H157889   6.101   3.084  13.247  0.5195  0.4663  0.8498
12158TIP3    H257890   5.973   3.121  13.175  0.6766  3.1843  1.9123
12159TIP3   OH257891   5.454   2.769  15.794 -0.6032 -0.5863  0.0222
12159TIP3    H157892   5.530   2.812  15.833 -0.0033 -1.1361 -0.5635
12159TIP3    H257893   5.391   2.841  15.781  0.1342 -0.0021 -0.3039
12160TIP3   OH257894   6.142   3.540  11.605  0.0267 -0.5056  0.2240
12160TIP3    H157895   6.076   3.568  11.668 -0.6803 -0.0417 -0.7087
12160TIP3    H257896   6.206   3.612  11.603 -0.9826  0.3740 -1.0341
12161TIP3   OH257897   4.303   4.429  12.055 -1.0017  0.5979  0.0009
12161TIP3    H157898   4.277   4.486  12.127 -0.5628  1.2865 -0.3818
12161TIP3    H257899   4.355   4.360  12.095  1.0201  2.1294  0.0788
12162TIP3   OH257900   4.944   0.134   3.317 -0.5254 -0.1666 -0.1248
12162TIP3    H157901   4.976   0.046   3.340 -0.9486 -0.5613 -1.0172
12162TIP3    H257902   4.875   0.151   3.380  0.8621  0.3485  1.2979
12163TIP3   OH257903   3.215   5.629   1.193 -0.0285  0.6447  0.2745
12163TIP3    H157904   3.169   5.689   1.251 -1.2097  0.4596 -0.4457
12163TIP3    H257905   3.227   5.678   1.112 -0.8558 -0.0160 -0.2607
12164TIP3   OH257906   6.730   2.434   4.254  0.1485  0.1920  0.3717
12164TIP3    H157907   6.761   2.432   4.344  1.7915  4.4619 -0.0030
12164TIP3    H257908   6.808   2.420   4.201 -0.0968  1.8623 -0.4451
12165TIP3   OH257909   1.260   2.229   0.759 -0.0972 -0.0620  0.8963
12165TIP3    H157910   1.184   2.219   0.817 -0.2052 -0.4299  0.6934
12165TIP3    H257911   1.249   2.316   0.720 -1.5939 -0.9741 -0.8092
12166TIP3   OH257912   6.588   6.015  14.162 -0.1368  0.0613  0.2188
12166TIP3    H157913   6.630   5.930  14.178  0.7667  0.1587 -1.4547
12166TIP3    H257914   6.650   6.079  14.195  0.5170  0.1556 -1.1279
12167TIP3   OH257915   4.051   3.755   1.279  0.0447 -0.2132  0.0833
12167TIP3    H157916   3.989   3.798   1.337  0.2949 -0.9560  0.9080
12167TIP3    H257917   4.136   3.765   1.321 -0.0243 -2.3316  0.7818
12168TIP3   OH257918   0.332   6.425   0.691 -0.0358  0.1116 -0.5258
12168TIP3    H157919   0.323   6.499   0.631  0.5046 -1.3665 -2.4799
12168TIP3    H257920   0.315   6.462   0.778 -1.2994  2.2056 -1.6257
12169TIP3   OH257921   5.843   4.754  13.295  0.1208 -0.5322 -0.0791
12169TIP3    H157922   5.825   4.779  13.385  1.8156 -0.8848  0.3793
12169TIP3    H257923   5.785   4.809  13.242 -2.3330 -1.7173  1.2997
12170TIP3   OH257924   3.024   3.284  15.182 -0.0036  0.1022 -0.3868
12170TIP3    H157925   3.072   3.315  15.105  0.1086  0.8275 -0.0287
12170TIP3    H257926   2.972   3.360  15.210  1.3133  0.4041  1.3194
12171TIP3   OH257927   2.015   1.097  15.384 -0.4942 -0.2576 -0.3007
12171TIP3    H157928   2.054   1.060  15.304 -2.1032  0.7109 -1.5665
12171TIP3    H257929   2.074   1.069  15.454  0.6207 -1.6534 -1.7404
12172TIP3   OH257930   3.805   2.698   1.688  0.2932 -0.4228  0.9713
12172TIP3    H157931   3.860   2.688   1.766  1.5203  0.3313  0.2135
12172TIP3    H257932   3.843   2.637   1.624  1.4263  1.4222 -0.1715
12173TIP3   OH257933   0.272   1.713   7.120 -0.2557  0.2007  0.4013
12173TIP3    H157934   0.329   1.690   7.047 -1.2027 -3.7845  0.8152
12173TIP3    H257935   0.331   1.718   7.196  0.2879  1.4401 -0.0874
12174TIP3   OH257936   6.582   5.126  15.244 -0.0151 -0.0602 -0.4143
12174TIP3    H157937   6.655   5.096  15.189  0.9064  1.2906  0.0628
12174TIP3    H257938   6.623   5.173  15.316 -1.1945 -2.2410  1.7575
12175TIP3   OH257939   5.717   1.361  12.692  0.0842  0.5279  0.3377
12175TIP3    H157940   5.706   1.394  12.781 -0.2748  1.0132  0.1094
12175TIP3    H257941   5.811   1.342  12.685 -0.2115 -1.5630  1.5488
12176TIP3   OH257942   1.355   1.347  13.748  0.3640  0.2772 -0.1094
12176TIP3    H157943   1.307   1.423  13.714  0.6129  0.5600  0.1557
12176TIP3    H257944   1.290   1.298  13.799 -0.6218 -1.4554 -2.9449
12177TIP3   OH257945   2.600   5.048  13.741  0.3794 -0.5752  0.5561
12177TIP3    H157946   2.511   5.020  13.718  0.0607 -0.3500  1.4633
12177TIP3    H257947   2.587   5.108  13.815  1.1434  1.0883 -0.6521
12178TIP3   OH257948   4.595   4.384  14.482  0.7456 -0.4326  0.1049
12178TIP3    H157949   4.686   4.358  14.500  0.8007 -0.8575 -0.7713
12178TIP3    H257950   4.565   4.320  14.417 -0.8214 -1.5459  1.8629
12179TIP3   OH257951   2.585   6.595   3.934 -0.5551  0.5368  0.4195
12179TIP3    H157952   2.665   6.597   3.881 -0.2585  2.1636  0.9223
12179TIP3    H257953   2.550   6.507   3.920 -0.2574  0.7830 -2.1680
12180TIP3   OH257954   3.232   4.559   0.144  0.0876 -0.1203  0.5450
12180TIP3    H157955   3.190   4.643   0.126 -0.7031 -0.2265  1.8557
12180TIP3    H257956   3.300   4.551   0.077  0.4112  1.7335  0.6355
12181TIP3   OH257957   0.788   6.640  11.736  0.4395  0.1026  0.1513
12181TIP3    H157958   0.796   6.667  11.827  0.5449  3.4237 -0.7782
12181TIP3    H257959   0.702   6.597  11.731  0.3430  0.0829  1.7660
12182TIP3   OH257960   3.425   5.976   3.092  0.6108  0.2050 -0.0876
12182TIP3    H157961   3.380   6.058   3.073 -0.2681 -0.1189  0.5648
12182TIP3    H257962   3.363   5.926   3.146  0.1564 -1.8907 -2.4287
12183TIP3   OH257963   0.803   2.535   3.450 -0.2168 -0.2723 -0.6835
12183TIP3    H157964   0.708   2.531   3.459 -0.2532 -0.4997 -1.1542
12183TIP3    H257965   0.819   2.532   3.355  0.2726 -0.5836 -0.5950
12184TIP3   OH257966   4.751   4.819  14.174  0.1836 -0.6488  0.0784
12184TIP3    H157967   4.833   4.841  14.129 -0.5360 -0.5897 -1.2027
12184TIP3    H257968   4.780   4.771  14.252  1.6041  1.9333  1.2079
12185TIP3   OH257969   3.381   5.944   1.083 -0.2504 -0.0011  0.0191
12185TIP3    H157970   3.439   5.879   1.043 -0.6889  0.2985 -1.1278
12185TIP3    H257971   3.298   5.934   1.034 -0.4370  1.1474  0.1038
12186TIP3   OH257972   1.215   3.886  15.740 -0.2858  0.3761  0.0638
12186TIP3    H157973   1.256   3.830  15.675 -1.0098  0.3623 -0.3845
12186TIP3    H257974   1.139   3.924  15.696 -1.6412 -0.7912  1.3380
12187TIP3   OH257975   6.366   1.372  13.177  0.3616  0.6633 -0.4477
12187TIP3    H157976   6.366   1.292  13.229 -0.5425  0.1823 -1.1692
12187TIP3    H257977   6.304   1.429  13.222 -1.4681 -0.2575 -1.7185
12188TIP3   OH257978   3.794   6.177  16.686 -0.0468 -0.1603 -0.2653
12188TIP3    H157979   3.702   6.154  16.702  0.3903 -1.7580  0.0662
12188TIP3    H257980   3.796   6.272  16.688 -1.4311 -0.1459  1.2218
12189TIP3   OH257981   2.668   2.302   4.543 -0.4810 -0.8668  0.4786
12189TIP3    H157982   2.613   2.229   4.572 -0.2792 -1.1999  0.0357
12189TIP3    H257983   2.722   2.264   4.473 -0.2855 -0.3230  0.3380
12190TIP3   OH257984   3.561   3.622   0.005 -0.2258 -0.3614  0.5254
12190TIP3    H157985   3.577   3.546   0.061 -0.4392 -0.2571  0.7277
12190TIP3    H257986   3.484   3.665   0.043 -0.0525  0.0069  0.4710
12191TIP3   OH257987   6.655   6.180   5.783 -0.0336 -0.4132 -0.1872
12191TIP3    H157988   6.625   6.232   5.710 -1.2686  2.0318  1.9805
12191TIP3    H257989   6.583   6.119   5.801 -0.4485  0.1616  0.0910
12192TIP3   OH257990   1.612   6.627  11.988  0.0802  0.0878  0.1544
12192TIP3    H157991   1.667   6.600  11.915 -0.9409 -0.4532 -0.4224
12192TIP3    H257992   1.582   6.545  12.028 -0.3435  0.3767  0.4396
12193TIP3   OH257993   2.567   0.959   0.024 -0.0427 -0.8109 -0.4191
12193TIP3    H157994   2.588   1.034   0.080 -0.2014 -0.7434 -0.4508
12193TIP3    H257995   2.515   0.901   0.080  0.5181 -1.1399 -0.2327
12194TIP3   OH257996   5.989   0.991   6.215  0.3253  0.1307  0.4911
12194TIP3    H157997   5.963   1.083   6.210 -0.9009 -0.0788  2.3195
12194TIP3    H257998   6.060   0.991   6.279 -0.7094 -0.3799  1.6578
12195TIP3   OH257999   5.433   0.966   4.497 -0.0916 -0.4565 -0.4314
12195TIP3    H158000   5.354   0.913   4.487  1.5415 -2.6879 -1.9789
12195TIP3    H258001   5.480   0.955   4.415  1.0752  2.1865 -0.1865
12196TIP3   OH258002   5.632   3.834   1.581  0.0368  0.4708 -0.0349
12196TIP3    H158003   5.563   3.860   1.520 -0.4189  0.6313  0.5375
12196TIP3    H258004   5.700   3.795   1.526 -0.7587 -0.2199 -0.5495
12197TIP3   OH258005   3.001   3.903  14.323 -0.2176 -0.2137 -0.6104
12197TIP3    H158006   2.954   3.831  14.280  1.3007 -2.3556  1.1621
12197TIP3    H258007   3.086   3.905  14.278 -0.3262  0.6124 -0.7808
12198TIP3   OH258008   1.522   0.920   1.238 -0.4162 -0.3155 -0.0712
12198TIP3    H158009   1.491   1.002   1.200  0.4493  0.6073  1.1481
12198TIP3    H258010   1.481   0.852   1.185 -0.6612  0.9053 -1.4928
12199TIP3   OH258011   4.347   1.046   2.403 -0.0718 -0.4747  0.2551
12199TIP3    H158012   4.379   1.109   2.339 -2.2758  1.6772  1.1766
12199TIP3    H258013   4.296   0.983   2.351 -0.6387  0.4272 -0.2928
12200TIP3   OH258014   3.853   4.818  12.175  0.0541 -0.3719 -0.3559
12200TIP3    H158015   3.826   4.910  12.173 -0.1565 -0.3886  1.0681
12200TIP3    H258016   3.921   4.811  12.108 -0.4893  0.6395 -1.0132
12201TIP3   OH258017   0.501   2.853  10.698 -0.0479  0.0654  0.5609
12201TIP3    H158018   0.526   2.943  10.720  1.1060  0.4137 -1.9838
12201TIP3    H258019   0.425   2.862  10.642 -0.7010 -0.6365  1.3141
12202TIP3   OH258020   4.790   0.597  16.218  0.1185 -0.0546 -0.1518
12202TIP3    H158021   4.821   0.582  16.307  0.1079 -0.7245 -0.2562
12202TIP3    H258022   4.828   0.525  16.167 -1.2973 -0.6834 -0.3439
12203TIP3   OH258023   2.270   6.782  15.317 -0.2844 -0.6518 -0.4211
12203TIP3    H158024   2.231   6.845  15.378  1.4493  0.4047 -0.3944
12203TIP3    H258025   2.251   6.818  15.230 -1.5562 -1.4545 -0.4941
12204TIP3   OH258026   1.079   5.851   1.534  0.0390  0.5068 -0.4759
12204TIP3    H158027   0.991   5.887   1.526 -0.4038 -0.7063 -1.3033
12204TIP3    H258028   1.066   5.767   1.578  1.0353  1.2689  1.3418
12205TIP3   OH258029   3.900   0.293   4.766  0.7806 -0.1984 -0.0574
12205TIP3    H158030   3.809   0.279   4.741  0.5024 -0.0616  0.8669
12205TIP3    H258031   3.911   0.388   4.766  1.4431 -0.2400 -1.9571
12206TIP3   OH258032   4.149   0.042   6.202 -0.1548 -0.0797 -0.1973
12206TIP3    H158033   4.162   0.114   6.263  0.5370 -0.1859 -0.2134
12206TIP3    H258034   4.147  -0.036   6.258 -0.3638 -0.1011 -0.2322
12207TIP3   OH258035   4.213   5.506   6.789  0.2447  0.0289  0.2882
12207TIP3    H158036   4.245   5.593   6.814 -0.5305 -0.2616  2.4274
12207TIP3    H258037   4.244   5.494   6.700  1.3242  2.0439  0.3531
12208TIP3   OH258038   1.725   3.422   1.401  0.6843 -0.3041  0.0224
12208TIP3    H158039   1.764   3.464   1.324 -1.0724 -1.1155 -1.3230
12208TIP3    H258040   1.680   3.492   1.447 -0.2386 -0.2687 -0.9437
12209TIP3   OH258041   3.175   2.085   4.950 -0.5640  0.0319  0.2808
12209TIP3    H158042   3.162   2.168   4.996 -1.8141  0.3237 -0.5767
12209TIP3    H258043   3.089   2.065   4.912 -0.3145 -1.7273  0.6036
12210TIP3   OH258044   3.342   5.518  17.099  0.0344  0.0149 -0.0474
12210TIP3    H158045   3.304   5.581  17.038  0.1684 -1.5876 -1.8086
12210TIP3    H258046   3.275   5.451  17.110  1.2074 -1.3298 -0.9177
12211TIP3   OH258047   0.331   5.819  17.165 -0.0429 -0.9217 -0.7228
12211TIP3    H158048   0.356   5.903  17.202  0.2998 -0.7047 -1.4419
12211TIP3    H258049   0.236   5.821  17.161  0.0412  0.0977 -2.2931
12212TIP3   OH258050   6.140   0.861   1.724  0.0262 -0.1298  0.1976
12212TIP3    H158051   6.215   0.834   1.776  0.7412 -1.8228 -1.6511
12212TIP3    H258052   6.096   0.780   1.701  1.4510  0.2446 -4.3541
12213TIP3   OH258053   5.843   2.258   2.802  0.4238 -0.0201  0.1521
12213TIP3    H158054   5.881   2.210   2.728  0.6015 -1.2401  1.0170
12213TIP3    H258055   5.842   2.349   2.773 -2.4599 -0.8412 -2.6497
12214TIP3   OH258056   3.842   1.628   5.341  0.6455  0.0380  0.7379
12214TIP3    H158057   3.768   1.662   5.391 -0.3045 -0.7017 -0.1497
12214TIP3    H258058   3.849   1.685   5.265 -0.3599 -1.1412 -0.2671
12215TIP3   OH258059   3.654   2.769   3.561 -0.4135 -0.3290 -0.5154
12215TIP3    H158060   3.711   2.844   3.544 -1.6128  0.7518  0.1360
12215TIP3    H258061   3.580   2.780   3.501  0.0588 -1.7591 -1.4041
12216TIP3   OH258062   3.397   2.027   3.638 -0.1287 -0.2652 -0.2235
12216TIP3    H158063   3.313   1.998   3.674  0.8579 -1.1652  1.3709
12216TIP3    H258064   3.401   1.985   3.552 -1.7012  0.4987 -0.6901
12217TIP3   OH258065   1.959   3.887  14.452  0.5881 -0.2495  0.3680
12217TIP3    H158066   1.982   3.802  14.490  1.0365  0.6172  2.1082
12217TIP3    H258067   1.887   3.918  14.507 -0.9273 -0.4002 -1.5192
12218TIP3   OH258068   3.671   3.833   6.152  0.3159 -0.0731  0.4722
12218TIP3    H158069   3.606   3.897   6.181 -0.6842 -0.9819  0.2830
12218TIP3    H258070   3.748   3.885   6.129 -0.2828  1.0034  0.8542
12219TIP3   OH258071   6.280   2.457   3.685 -0.4681 -0.2524  0.6022
12219TIP3    H158072   6.208   2.401   3.653  1.2441 -2.0438 -0.2603
12219TIP3    H258073   6.289   2.524   3.617  0.4180 -1.6247 -0.6936
12220TIP3   OH258074   3.013   3.133  15.932  0.3099 -0.7584 -0.2000
12220TIP3    H158075   2.925   3.171  15.926  0.4563 -0.3317  0.3713
12220TIP3    H258076   3.061   3.174  15.859 -0.0658 -1.2737 -0.7437
12221TIP3   OH258077   1.991   4.561   0.976 -0.2252  0.4187  0.1695
12221TIP3    H158078   2.018   4.524   0.892  0.1355  1.2660 -0.0929
12221TIP3    H258079   2.063   4.542   1.035 -0.3039  0.1742  0.1868
12222TIP3   OH258080   0.812   0.943   1.424 -0.2821 -0.0916 -0.6166
12222TIP3    H158081   0.862   0.922   1.503  1.8515  0.7343 -1.7003
12222TIP3    H258082   0.859   1.016   1.385 -2.6491  1.0519 -1.4500
12223TIP3   OH258083   6.283   3.066  13.618 -0.0458 -0.0056  0.3251
12223TIP3    H158084   6.318   3.081  13.530 -1.3498 -2.1277 -0.5999
12223TIP3    H258085   6.237   3.146  13.640 -1.7028 -0.2847 -1.9169
12224TIP3   OH258086   5.378   3.637  12.157  0.5186  0.1042 -0.3689
12224TIP3    H158087   5.407   3.728  12.161 -0.7699  0.6317 -2.3436
12224TIP3    H258088   5.443   3.589  12.209  2.5264  1.8217 -1.2075
12225TIP3   OH258089   4.835   3.595  15.165 -0.2006  0.0949 -0.1051
12225TIP3    H158090   4.740   3.585  15.177  0.0254 -0.1528  1.7382
12225TIP3    H258091   4.873   3.542  15.236  1.3113  0.3596 -0.7045
12226TIP3   OH258092   4.013   4.300   2.990  0.1657  0.1327 -0.0436
12226TIP3    H158093   3.988   4.375   2.935  0.2423 -0.3190 -0.7011
12226TIP3    H258094   4.070   4.248   2.934 -1.7141 -1.6061 -0.3794
12227TIP3   OH258095   0.135   5.124  15.782  0.2946 -0.2486 -0.0071
12227TIP3    H158096   0.166   5.213  15.801  1.5014 -0.0697 -2.5618
12227TIP3    H258097   0.167   5.071  15.855  0.4528  1.2278  1.0199
12228TIP3   OH258098   4.630   1.296  14.355 -0.0315  0.5655 -0.0189
12228TIP3    H158099   4.583   1.288  14.272 -0.8912  2.2450  0.2888
12228TIP3    H258100   4.722   1.304  14.330 -0.3173  1.4002 -0.8232
12229TIP3   OH258101   0.425   4.121   3.793  0.3889  0.1827 -0.6557
12229TIP3    H158102   0.344   4.109   3.842  0.1595 -1.0478 -1.3203
12229TIP3    H258103   0.477   4.043   3.812  0.5900  0.0275 -1.7910
12230TIP3   OH258104   5.618   3.045   4.870 -0.0486 -0.2480  0.5275
12230TIP3    H158105   5.692   3.063   4.812  0.6057 -0.7193  1.2145
12230TIP3    H258106   5.552   3.109   4.844  0.8146  0.5759  0.3112
12231TIP3   OH258107   1.577   0.560  16.339  0.1258  0.2218  0.6628
12231TIP3    H158108   1.488   0.569  16.307  0.8664  1.3382 -1.1901
12231TIP3    H258109   1.605   0.649  16.358  1.2721  0.0215 -0.0122
12232TIP3   OH258110   1.448   0.097  11.085  0.0710  0.4752  0.1219
12232TIP3    H158111   1.357   0.119  11.105  0.1875  0.3126  0.8418
12232TIP3    H258112   1.447   0.071  10.993 -0.6600  0.1847  0.2090
12233TIP3   OH258113   4.937   2.974   5.484 -0.0058 -0.4555  0.3328
12233TIP3    H158114   4.942   3.064   5.451 -0.5185 -0.3376  0.5721
12233TIP3    H258115   4.843   2.958   5.496  0.1486 -0.5826  1.4906
12234TIP3   OH258116   3.333   3.319  12.082  0.0907  0.1723  0.1208
12234TIP3    H158117   3.344   3.261  12.007 -1.2606 -0.1776  0.1927
12234TIP3    H258118   3.402   3.293  12.143  0.2781 -0.5123 -0.3804
12235TIP3   OH258119   0.602   5.618   4.390 -0.1597 -0.2478  0.4240
12235TIP3    H158120   0.687   5.652   4.363 -0.0099 -1.3934 -0.6101
12235TIP3    H258121   0.608   5.611   4.485  0.8049 -0.0646  0.3858
12236TIP3   OH258122   4.967   0.939   0.368  0.4471  0.0419  0.6794
12236TIP3    H158123   4.934   0.908   0.452 -0.5377 -0.9062 -0.0494
12236TIP3    H258124   4.966   0.862   0.311 -0.9474  1.1397 -0.8351
12237TIP3   OH258125   0.288   2.562   2.652 -0.4336  0.0141  0.3678
12237TIP3    H158126   0.253   2.648   2.677  0.7350  0.5633  0.1380
12237TIP3    H258127   0.325   2.575   2.566  0.1109 -0.6338  0.5032
12238TIP3   OH258128   3.513   1.405   0.038 -0.8195  0.3026  0.7763
12238TIP3    H158129   3.541   1.450  -0.042 -0.5001  1.6012  1.5964
12238TIP3    H258130   3.462   1.471   0.086 -0.1845 -0.1319  2.0858
12239TIP3   OH258131   4.794   4.475   2.683  0.6762 -0.6180  0.1932
12239TIP3    H158132   4.879   4.449   2.648  0.0754 -0.0221 -1.7772
12239TIP3    H258133   4.756   4.394   2.715  1.1280 -1.2589 -0.8396
12240TIP3   OH258134   4.133   2.858   4.292  0.3022  0.3786 -0.3891
12240TIP3    H158135   4.061   2.894   4.344  0.0866 -0.6104  0.0069
12240TIP3    H258136   4.132   2.764   4.311  1.6683  0.3449 -0.4032
12241TIP3   OH258137   2.441   3.652  11.752 -0.4837  0.4397 -0.3472
12241TIP3    H158138   2.466   3.577  11.807 -3.3561  0.1395  0.6230
12241TIP3    H258139   2.417   3.613  11.669  3.9398  0.9007 -2.0012
12242TIP3   OH258140   4.129   4.374   5.385  0.4839  0.0337 -0.2608
12242TIP3    H158141   4.223   4.364   5.400  0.8109 -1.9989 -3.1314
12242TIP3    H258142   4.123   4.438   5.314 -0.2854 -0.0163 -0.2435
12243TIP3   OH258143   6.229   5.184  13.410 -0.2298  0.3400  0.0192
12243TIP3    H158144   6.230   5.221  13.498  0.5035  0.9378 -0.2316
12243TIP3    H258145   6.139   5.198  13.379 -0.3782  0.4940  0.5184
12244TIP3   OH258146   6.385   1.734  16.960 -0.2327  0.7076 -0.3191
12244TIP3    H158147   6.400   1.640  16.972 -0.0306  0.7352 -0.3487
12244TIP3    H258148   6.434   1.776  17.031 -2.4057  0.6605  1.2424
12245TIP3   OH258149   4.689   2.427  14.197  0.2658  0.0088 -0.2267
12245TIP3    H158150   4.692   2.340  14.237 -1.8586  0.4481  1.0097
12245TIP3    H258151   4.771   2.469  14.222 -0.5458 -0.1129  2.8966
12246TIP3   OH258152   4.381   3.987  11.720 -1.0445 -0.0531 -0.5769
12246TIP3    H158153   4.377   3.941  11.804 -0.4151  1.3488  0.2440
12246TIP3    H258154   4.294   4.024  11.708 -0.4233  1.9684  0.7821
12247TIP3   OH258155   0.231   0.818   5.574  0.2189  0.3541 -0.3330
12247TIP3    H158156   0.227   0.723   5.588 -0.6772  0.7826  2.7716
12247TIP3    H258157   0.324   0.837   5.563  0.8371 -0.4717  2.8492
12248TIP3   OH258158   3.012   4.113   4.761 -0.0275 -0.0946 -0.8089
12248TIP3    H158159   3.077   4.133   4.693 -1.5971 -0.0947 -2.3246
12248TIP3    H258160   2.974   4.198   4.783  1.4993  0.1295  1.1858
12249TIP3   OH258161   6.289   5.505   4.574 -1.1661  0.0437 -0.3421
12249TIP3    H158162   6.355   5.557   4.620 -3.3888  0.4726  2.5419
12249TIP3    H258163   6.325   5.416   4.575 -0.2326  0.4154  0.3728
12250TIP3   OH258164   3.883   2.791  14.205  0.1280  0.0678  0.1109
12250TIP3    H158165   3.867   2.759  14.116  0.7902  0.0833 -0.0214
12250TIP3    H258166   3.813   2.854  14.222 -0.7259 -0.8649  0.0710
12251TIP3   OH258167   6.549   6.005  11.314 -0.4420  0.5202  0.2590
12251TIP3    H158168   6.507   5.935  11.264 -0.9217  0.5751  0.5802
12251TIP3    H258169   6.643   5.992  11.299 -0.3467 -1.9037  2.5462
12252TIP3   OH258170   3.124   4.141   1.156 -0.0726  0.6442 -0.0927
12252TIP3    H158171   3.122   4.136   1.252  1.4650 -0.1490 -0.0747
12252TIP3    H258172   3.194   4.080   1.131  0.5130  1.9202 -1.6311
12253TIP3   OH258173   2.383   3.632   0.128 -0.5382  0.3101  0.0816
12253TIP3    H158174   2.372   3.724   0.107 -0.8524  0.9700  2.9705
12253TIP3    H258175   2.324   3.616   0.201  1.6793 -1.4440  1.5733
12254TIP3   OH258176   5.173   1.540  10.601 -0.0426  0.5557  0.3293
12254TIP3    H158177   5.165   1.624  10.644 -0.8490  0.7428 -0.1697
12254TIP3    H258178   5.091   1.495  10.620 -1.2567  1.4013 -2.5798
12255TIP3   OH258179   3.377   0.717   5.571  0.3173  0.1081 -0.1273
12255TIP3    H158180   3.407   0.798   5.612  0.1399  0.2150 -0.2101
12255TIP3    H258181   3.379   0.735   5.477  3.1215 -0.9418 -0.3350
12256TIP3   OH258182   0.520   4.677  14.109  0.7346  0.2571  0.0120
12256TIP3    H158183   0.575   4.697  14.185  0.6521  0.5771 -0.0131
12256TIP3    H258184   0.547   4.589  14.083 -1.2175 -1.0266  2.1545
12257TIP3   OH258185   1.841   2.669  12.923 -0.4503  0.6472  0.5219
12257TIP3    H158186   1.860   2.647  12.832  2.7635  1.2175  0.9879
12257TIP3    H258187   1.824   2.584  12.965 -0.1981  0.2127 -0.2412
12258TIP3   OH258188   5.004   1.243  12.786  0.3879 -0.4058  0.6084
12258TIP3    H158189   5.003   1.338  12.800  0.2856 -0.2654 -0.3232
12258TIP3    H258190   5.096   1.221  12.776  0.2332  0.0829 -2.3135
12259TIP3   OH258191   5.035   3.699  16.971  0.1026 -0.1248  0.1614
12259TIP3    H158192   5.093   3.632  16.936  0.7726 -0.7470  2.4159
12259TIP3    H258193   4.954   3.690  16.920  0.7452 -1.5758 -0.6226
12260TIP3   OH258194   0.155   0.548  16.808 -0.5574 -0.2571  0.0297
12260TIP3    H158195   0.208   0.477  16.772 -0.3211  1.0695 -2.3466
12260TIP3    H258196   0.217   0.619  16.824 -0.8147 -0.5198  2.2405
12261TIP3   OH258197   1.833   4.622   1.567 -0.4377 -0.0859 -0.3636
12261TIP3    H158198   1.816   4.584   1.653  0.4924  2.3939  0.9282
12261TIP3    H258199   1.746   4.643   1.532 -0.7248  0.5370  0.7183
12262TIP3   OH258200   1.173   0.842   3.278  0.7221 -0.0519  0.2476
12262TIP3    H158201   1.259   0.848   3.237  0.2340 -0.1734 -0.8182
12262TIP3    H258202   1.164   0.923   3.328  0.6391  0.8844 -1.2553
12263TIP3   OH258203   1.259   6.110   0.186 -0.3765  0.2895 -0.1818
12263TIP3    H158204   1.201   6.102   0.262  0.9156 -1.2747  0.6882
12263TIP3    H258205   1.261   6.022   0.148  1.4190  0.3078 -0.1671
12264TIP3   OH258206   6.221   2.462   1.288 -0.0484  0.2563 -0.0141
12264TIP3    H158207   6.142   2.450   1.341  0.8980  1.5060  1.7262
12264TIP3    H258208   6.188   2.477   1.199 -1.7257 -0.1788  0.5083
12265TIP3   OH258209   6.538   6.577   2.463  0.1649 -0.3633 -0.0207
12265TIP3    H158210   6.538   6.552   2.370 -0.4148 -0.8472  0.1093
12265TIP3    H258211   6.576   6.665   2.463  1.7435 -1.0193 -0.5287
12266TIP3   OH258212   2.560   6.205   1.777 -0.0667  0.1098  0.0884
12266TIP3    H158213   2.622   6.224   1.707 -0.8783 -1.0094 -0.9563
12266TIP3    H258214   2.574   6.113   1.798  0.3446  0.4892  1.5968
12267TIP3   OH258215   1.553   3.459  15.758  0.3889  0.2380  0.2649
12267TIP3    H158216   1.556   3.548  15.792  2.5325  0.6321 -0.8384
12267TIP3    H258217   1.472   3.455  15.707 -0.5030  1.0515  1.5938
12268TIP3   OH258218   1.558   1.606  12.336  0.1686 -0.0114 -0.9600
12268TIP3    H158219   1.611   1.605  12.416 -1.3861 -0.0134  0.0813
12268TIP3    H258220   1.556   1.698  12.310  0.4062  0.0316 -0.8281
12269TIP3   OH258221   5.450   0.525  11.747  0.2050  0.0096 -0.1056
12269TIP3    H158222   5.374   0.468  11.761  1.0205 -0.8934  0.7305
12269TIP3    H258223   5.428   0.575  11.669 -1.4062  0.0004  0.3070
12270TIP3   OH258224   2.073   3.406  16.032 -0.8449  0.4097  0.6566
12270TIP3    H158225   2.073   3.498  16.006  2.2918 -0.1326 -1.4529
12270TIP3    H258226   2.046   3.407  16.124 -1.9897  3.3157  0.3181
12271TIP3   OH258227   0.173   6.387  16.264 -0.4505  0.4066 -0.2686
12271TIP3    H158228   0.258   6.385  16.309  0.0145  0.1027 -1.1331
12271TIP3    H258229   0.108   6.386  16.334  0.2693  1.8722  0.4338
12272TIP3   OH258230   2.079   3.795  14.704  0.1056 -0.1399 -0.0318
12272TIP3    H158231   2.076   3.724  14.640  1.7139 -0.1028 -0.1874
12272TIP3    H258232   1.988   3.824  14.714 -0.0151  0.7524 -3.2929
12273TIP3   OH258233   6.289   2.271  12.727 -0.5495  0.1670 -0.0720
12273TIP3    H158234   6.252   2.202  12.782  2.6309 -0.5352  1.2790
12273TIP3    H258235   6.294   2.232  12.640 -0.2396 -0.7398  0.3467
12274TIP3   OH258236   5.119   6.125  13.400 -0.2477  0.2190  0.1265
12274TIP3    H158237   5.060   6.109  13.473 -1.5137  1.9239 -0.4828
12274TIP3    H258238   5.207   6.118  13.438 -0.8800  0.8612  1.7586
12275TIP3   OH258239   5.064   3.030   2.848  0.2850 -0.5622 -0.2414
12275TIP3    H158240   5.143   2.981   2.823  1.2798  1.2901 -0.8444
12275TIP3    H258241   5.085   3.066   2.935  0.4367  0.5802 -0.7379
12276TIP3   OH258242   2.730   3.528   6.035 -0.3605  0.0391 -0.0579
12276TIP3    H158243   2.662   3.592   6.056  0.5462  0.5303  1.4861
12276TIP3    H258244   2.790   3.575   5.976 -0.7030 -0.0011 -0.4394
12277TIP3   OH258245   4.401   0.520  15.018 -0.2983  0.3348 -0.1260
12277TIP3    H158246   4.366   0.448  15.070  1.0753  0.4979  1.0803
12277TIP3    H258247   4.383   0.496  14.928  0.5774 -1.7832  0.2349
12278TIP3   OH258248   2.683   5.190   2.179  0.2634 -0.3744 -0.0395
12278TIP3    H158249   2.758   5.243   2.153 -1.9731  1.7987 -2.3074
12278TIP3    H258250   2.630   5.182   2.100 -2.8384 -0.2346  1.9318
12279TIP3   OH258251   5.190   2.497   0.110  0.0555 -0.5056  0.6374
12279TIP3    H158252   5.120   2.500   0.175  1.4475 -1.4641  2.1991
12279TIP3    H258253   5.187   2.583   0.068 -2.9289 -0.9780 -0.2946
12280TIP3   OH258254   1.830   4.802   0.201  0.0909 -0.4479 -0.6398
12280TIP3    H158255   1.777   4.879   0.183  0.0551  0.1246  1.8299
12280TIP3    H258256   1.777   4.728   0.171 -1.1484  0.2809 -0.2542
12281TIP3   OH258257   0.347   4.764   1.119 -0.2160 -0.3625 -0.2627
12281TIP3    H158258   0.378   4.802   1.037  0.6567 -0.5333 -0.0208
12281TIP3    H258259   0.283   4.698   1.092 -1.5672  1.0800 -0.6945
12282TIP3   OH258260   5.318   5.010   5.819  0.2958  0.0746  0.3442
12282TIP3    H158261   5.256   5.005   5.892  0.9805  1.9096  1.0732
12282TIP3    H258262   5.283   5.079   5.763  1.5446  0.9451  0.6262
12283TIP3   OH258263   3.773   5.832  16.311 -0.4435 -0.3155 -0.7059
12283TIP3    H158264   3.761   5.905  16.250 -1.8279  1.4329  1.5773
12283TIP3    H258265   3.866   5.834  16.333 -0.7247  1.6681  0.4074
12284TIP3   OH258266   0.737   5.013   4.708 -0.4764 -0.1868 -0.2968
12284TIP3    H158267   0.651   5.051   4.692  0.1960  0.7275 -1.8678
12284TIP3    H258268   0.780   5.075   4.767 -1.1078 -0.9585  0.9873
12285TIP3   OH258269   2.330   0.907   1.404  0.3198  0.0102 -0.7853
12285TIP3    H158270   2.406   0.878   1.354  0.9496 -1.3305  0.9232
12285TIP3    H258271   2.342   0.871   1.491 -2.0243  0.2118 -0.3295
12286TIP3   OH258272   2.307   3.514   0.719  0.0579 -0.7158 -0.0819
12286TIP3    H158273   2.282   3.599   0.684  2.6660 -1.1406 -3.1799
12286TIP3    H258274   2.376   3.534   0.783  0.7564 -0.5135 -0.8997
12287TIP3   OH258275   3.968   6.551  17.000  0.2505 -0.5585 -0.3230
12287TIP3    H158276   3.894   6.494  16.978  0.3704 -0.5757 -0.6885
12287TIP3    H258277   3.932   6.612  17.064  0.0930 -0.9778 -0.0052
12288TIP3   OH258278   5.651   5.632  13.628  0.4584 -0.2764 -0.2366
12288TIP3    H158279   5.727   5.604  13.578 -0.4944  0.3260 -2.0561
12288TIP3    H258280   5.688   5.662  13.711  1.8825 -2.9615  0.1767
12289TIP3   OH258281   4.708   2.102   4.696  0.0811 -0.0751  0.2310
12289TIP3    H158282   4.644   2.115   4.766  0.0032 -1.3759  0.4144
12289TIP3    H258283   4.710   2.186   4.649 -0.5992  0.4788  1.1795
12290TIP3   OH258284   1.735   2.201  11.978  0.1444  0.6343 -0.2383
12290TIP3    H158285   1.646   2.184  12.008 -0.0354 -0.6338 -1.3988
12290TIP3    H258286   1.723   2.251  11.897  0.4192 -0.6581 -1.0990
12291TIP3   OH258287   5.684   3.686  16.179  0.0074 -0.2293 -0.1805
12291TIP3    H158288   5.723   3.599  16.188  1.6030  0.5458  0.6587
12291TIP3    H258289   5.641   3.685  16.094  2.4071 -0.9226 -1.4202
12292TIP3   OH258290   0.581   2.377  15.149  0.2385  0.4336 -0.5364
12292TIP3    H158291   0.564   2.442  15.081  1.8850  1.4707  0.0008
12292TIP3    H258292   0.564   2.423  15.231  4.1981  1.1690 -0.0247
12293TIP3   OH258293   4.633   4.396  11.600 -0.3845  0.1455  0.0687
12293TIP3    H158294   4.571   4.324  11.610 -1.2364  0.6860 -1.2161
12293TIP3    H258295   4.634   4.414  11.506  0.6950  1.0458  0.2400
12294TIP3   OH258296   5.187   2.493   3.484  0.3239  0.2702 -0.1134
12294TIP3    H158297   5.121   2.561   3.473  0.8209  0.3216 -3.0539
12294TIP3    H258298   5.245   2.527   3.552 -0.3821  2.0408 -0.3659
12295TIP3   OH258299   3.483   1.706   0.605 -0.2990  0.7563  0.0336
12295TIP3    H158300   3.550   1.760   0.561  0.2109 -0.6630 -0.9608
12295TIP3    H258301   3.504   1.714   0.698  3.4534 -2.3731 -0.3947
12296TIP3   OH258302   4.047   3.451   0.262 -0.2495  0.9392 -0.1416
12296TIP3    H158303   4.098   3.371   0.257 -1.8468 -0.1718  1.0693
12296TIP3    H258304   3.998   3.453   0.179  1.5684  1.9158 -1.2245
12297TIP3   OH258305   3.752   0.770  15.827  0.2188 -0.0875  0.3096
12297TIP3    H158306   3.759   0.738  15.738  1.3887  0.0063  0.3572
12297TIP3    H258307   3.768   0.693  15.882 -0.9952 -0.2501  0.4476
12298TIP3   OH258308   0.394   6.775   3.400  0.0047 -0.5004  0.4929
12298TIP3    H158309   0.488   6.788   3.410  0.2121 -0.0589 -1.7120
12298TIP3    H258310   0.355   6.852   3.441  0.7186  0.5646 -0.7859
12299TIP3   OH258311   1.921   4.182  11.200 -0.4983 -0.2441 -0.4222
12299TIP3    H158312   1.912   4.112  11.137 -0.7334  0.5405 -1.2713
12299TIP3    H258313   1.967   4.142  11.274 -0.3655 -1.2066 -1.0177
12300TIP3   OH258314   3.094   0.998  12.716  0.2346  0.1978  0.4937
12300TIP3    H158315   3.078   1.040  12.800 -0.7509  0.2915  0.2628
12300TIP3    H258316   3.052   1.055  12.652 -0.5910 -0.8184  0.1228
12301TIP3   OH258317   3.042   1.288  13.735 -0.5236 -0.3730 -0.1527
12301TIP3    H158318   3.024   1.210  13.786  0.2068 -0.6334 -0.2942
12301TIP3    H258319   3.042   1.259  13.644 -0.3092 -0.1972 -0.2099
12302TIP3   OH258320   1.844   6.193   2.524 -0.4015  0.7345 -1.1321
12302TIP3    H158321   1.793   6.254   2.470  2.0793  2.4411 -1.6484
12302TIP3    H258322   1.921   6.173   2.471 -0.6643 -2.0983 -0.5364
12303TIP3   OH258323   5.355   5.543  14.158 -0.4322  0.2576 -0.6541
12303TIP3    H158324   5.438   5.591  14.166  0.8555 -2.1342  1.0886
12303TIP3    H258325   5.292   5.597  14.205  0.1904  1.9152 -1.6570
12304TIP3   OH258326   2.228   3.307  11.747  0.1095 -0.1616  0.2589
12304TIP3    H158327   2.170   3.326  11.821  0.1462  0.9129  0.0170
12304TIP3    H258328   2.171   3.268  11.681 -0.3900  1.1933 -0.1030
12305TIP3   OH258329   2.374   0.488  16.431  0.4537  0.1974 -0.3282
12305TIP3    H158330   2.348   0.439  16.508  1.3321 -0.1529 -0.2494
12305TIP3    H258331   2.443   0.435  16.391  1.6817  1.5423 -0.0302
12306TIP3   OH258332   0.921   0.317  15.829  0.5606  0.1205  0.2312
12306TIP3    H158333   0.867   0.285  15.901 -0.5052 -0.6391 -0.8934
12306TIP3    H258334   0.875   0.290  15.750  2.1964  0.1436 -0.7536
12307TIP3   OH258335   1.406   0.025   5.667 -0.4563  0.4024  0.1388
12307TIP3    H158336   1.474  -0.042   5.669 -0.5956  0.2753  2.6311
12307TIP3    H258337   1.453   0.107   5.657 -0.0297  0.1851  0.3331
12308TIP3   OH258338   4.713   6.513  12.104 -0.1671 -0.6276 -1.1473
12308TIP3    H158339   4.674   6.463  12.032 -0.1535 -0.8020 -1.0329
12308TIP3    H258340   4.638   6.547  12.153 -0.1816 -1.6108 -0.4747
12309TIP3   OH258341   6.320   3.859  16.887  0.1205  0.2835  0.0381
12309TIP3    H158342   6.225   3.858  16.871  0.2722  1.1634 -0.9670
12309TIP3    H258343   6.352   3.932  16.834  1.3397  0.1097  0.5317
12310TIP3   OH258344   6.224   6.209  13.711  0.0155 -0.0476  0.1080
12310TIP3    H158345   6.209   6.300  13.686 -1.2639 -0.5464 -0.9575
12310TIP3    H258346   6.227   6.161  13.628  3.3462 -0.6197  0.4621
12311TIP3   OH258347   0.465   3.062   4.356  0.2651 -0.1138 -0.1459
12311TIP3    H158348   0.519   3.140   4.345  0.3979 -0.0420  1.0155
12311TIP3    H258349   0.377   3.090   4.331  0.4980  0.1315 -0.7048
12312TIP3   OH258350   5.207   5.920  13.799 -0.2118 -0.1847 -0.2763
12312TIP3    H158351   5.231   5.979  13.726 -2.4437  1.4792  0.2812
12312TIP3    H258352   5.230   5.969  13.878 -1.7950 -0.1697  0.1920
12313TIP3   OH258353   1.914   1.701   3.589 -0.3920 -0.3602 -0.1971
12313TIP3    H158354   1.880   1.704   3.679  1.0156  1.4056  0.3003
12313TIP3    H258355   1.871   1.774   3.545  0.0273 -0.3354 -0.5626
12314TIP3   OH258356   4.370   5.402   1.340  0.2300 -0.3560 -0.1523
12314TIP3    H158357   4.348   5.362   1.424  0.5081  1.6662  0.8950
12314TIP3    H258358   4.457   5.439   1.353 -0.3845  1.3424 -0.8372
12315TIP3   OH258359   2.653   4.737   3.121  0.1792  0.3824 -0.2836
12315TIP3    H158360   2.707   4.738   3.042  0.5936 -2.0773 -0.0730
12315TIP3    H258361   2.716   4.748   3.193  0.3907 -2.1451 -0.0565
12316TIP3   OH258362   6.120   2.693   4.917  0.8778  0.1915 -0.1447
12316TIP3    H158363   6.030   2.677   4.945  1.3484 -0.2007  1.2305
12316TIP3    H258364   6.134   2.632   4.845 -0.5037  1.4926 -1.5363
12317TIP3   OH258365   0.598   5.799  12.493 -0.5245 -0.0882 -0.3445
12317TIP3    H158366   0.533   5.729  12.498 -1.2700  0.4358 -2.1455
12317TIP3    H258367   0.595   5.842  12.578 -1.0968 -1.3307  0.2726
12318TIP3   OH258368   4.523   3.207   3.381  1.0971 -0.5509 -0.2736
12318TIP3    H158369   4.456   3.256   3.428  0.8752 -0.8908 -0.2369
12318TIP3    H258370   4.474   3.145   3.328  1.3037  0.3785 -1.5812
12319TIP3   OH258371   0.371   1.960  14.635  0.5586  0.7504  0.7736
12319TIP3    H158372   0.376   1.898  14.708 -0.3914 -0.2289  0.0134
12319TIP3    H258373   0.330   1.911  14.564  3.2391  1.0882 -1.0877
12320TIP3   OH258374   3.264   6.300   2.969 -0.1150  0.5375 -0.1068
12320TIP3    H158375   3.186   6.355   2.961 -0.2967  0.3489  0.3650
12320TIP3    H258376   3.243   6.222   2.917 -0.6890 -0.0102  0.9330
12321TIP3   OH258377   3.762   1.099   3.672  0.1537  0.4065  0.7827
12321TIP3    H158378   3.779   1.081   3.579  0.3506 -0.3864  0.9672
12321TIP3    H258379   3.774   1.193   3.681  3.1265  0.0809  0.6195
12322TIP3   OH258380   3.544   0.853  16.288  1.0180 -0.0593 -0.3638
12322TIP3    H158381   3.582   0.764  16.286  1.5764  0.1654  0.1219
12322TIP3    H258382   3.543   0.876  16.380 -1.8302 -0.6899 -0.1994
12323TIP3   OH258383   0.164   4.829  17.064  0.4775 -0.0107  0.0589
12323TIP3    H158384   0.246   4.780  17.072  0.4595  0.1623  1.2900
12323TIP3    H258385   0.171   4.900  17.128 -0.9804 -0.4745  0.7460
12324TIP3   OH258386   5.413   5.859   2.139 -0.5510  0.1162  0.2180
12324TIP3    H158387   5.360   5.908   2.202  0.0701  0.9907  0.0677
12324TIP3    H258388   5.503   5.870   2.170 -0.3377 -0.2745 -0.2602
12325TIP3   OH258389   2.508   3.401  11.455 -0.1404 -0.0099 -0.0798
12325TIP3    H158390   2.521   3.354  11.373  1.7122  1.8452 -0.8764
12325TIP3    H258391   2.530   3.492  11.435  0.8677  0.3816  2.5892
12326TIP3   OH258392   1.235   0.926  10.668  0.0846  0.1484  0.2833
12326TIP3    H158393   1.256   0.848  10.719  1.5713 -0.7225 -1.6244
12326TIP3    H258394   1.267   0.907  10.580  1.4994  3.3586  0.0411
12327TIP3   OH258395   0.300   4.044   4.697  0.2501 -0.6132  0.9537
12327TIP3    H158396   0.375   4.011   4.746  1.4789 -1.4311 -1.4169
12327TIP3    H258397   0.316   4.138   4.688 -0.4049 -0.3095  2.8021
12328TIP3   OH258398   3.231   5.322  14.639  0.0472 -0.0225  0.4238
12328TIP3    H158399   3.260   5.356  14.554  0.3597 -2.6483 -0.5734
12328TIP3    H258400   3.270   5.381  14.703  0.3034  1.6519 -1.2362
12329TIP3   OH258401   0.327   5.916  14.837 -0.0068  0.8509 -0.3818
12329TIP3    H158402   0.352   5.825  14.819  0.5270  0.6107  1.5443
12329TIP3    H258403   0.406   5.966  14.817  0.5499  0.5933  1.0925
12330TIP3   OH258404   3.764   4.620   3.273  0.2828  0.4701  0.2135
12330TIP3    H158405   3.671   4.640   3.263 -0.5501 -1.8557  2.5626
12330TIP3    H258406   3.801   4.697   3.317 -1.0287  0.4690  1.3304
12331TIP3   OH258407   3.649   4.801   4.206  0.7877 -0.5324  0.0948
12331TIP3    H158408   3.614   4.715   4.183 -0.1923 -0.6899  2.0879
12331TIP3    H258409   3.581   4.863   4.178  0.6068 -0.5456  0.5152
12332TIP3   OH258410   6.023   2.010   0.556 -0.5763  0.2825  0.5533
12332TIP3    H158411   5.945   2.031   0.608 -2.0732  1.5253 -2.1200
12332TIP3    H258412   6.015   1.916   0.537 -0.9090  0.2038  1.0589
12333TIP3   OH258413   6.660   1.601   0.601 -0.2453  0.4131  0.6520
12333TIP3    H158414   6.695   1.636   0.682 -0.6523  1.6256  0.3185
12333TIP3    H258415   6.566   1.616   0.606 -0.3534 -0.0787  0.2300
12334TIP3   OH258416   1.046   5.898   3.217 -0.3886 -0.0119 -0.1323
12334TIP3    H158417   1.081   5.927   3.133 -0.2842 -0.3537 -0.2077
12334TIP3    H258418   1.006   5.976   3.255 -1.4965 -0.1280 -1.0359
12335TIP3   OH258419   4.365   1.968  14.524 -0.1107 -0.7643  0.3415
12335TIP3    H158420   4.427   1.896  14.538  1.8017  0.8308  0.1860
12335TIP3    H258421   4.368   2.019  14.605 -0.8121 -0.3721  0.1218
12336TIP3   OH258422   4.261   2.742  11.159  0.6946  0.3903  0.1178
12336TIP3    H158423   4.180   2.738  11.209  0.5924  3.0573  0.2497
12336TIP3    H258424   4.328   2.706  11.217  0.0683  0.6793  1.0095
12337TIP3   OH258425   2.859   3.436  13.806  0.1288  0.4949  0.1693
12337TIP3    H158426   2.837   3.395  13.889 -2.3578 -1.2031 -1.2333
12337TIP3    H258427   2.894   3.522  13.829  0.2258 -0.2583  2.9762
12338TIP3   OH258428   6.650   4.435  13.865  0.0881  0.3580 -0.1205
12338TIP3    H158429   6.734   4.468  13.832  0.5194  0.6565  1.2712
12338TIP3    H258430   6.642   4.472  13.952 -1.0210 -0.5052  0.1539
12339TIP3   OH258431   1.386   2.994  11.086 -0.0517  0.7905  0.4181
12339TIP3    H158432   1.477   2.971  11.108  0.0031  1.2984  0.7125
12339TIP3    H258433   1.360   3.057  11.153 -0.9948 -0.1947  0.9839
12340TIP3   OH258434   1.645   5.460  11.661 -0.6245 -0.2877 -0.3893
12340TIP3    H158435   1.618   5.372  11.684  0.1320 -0.1551  1.0372
12340TIP3    H258436   1.565   5.504  11.634 -1.3619 -0.7738  0.9902
12341TIP3   OH258437   4.318   3.747   2.546  0.8170  0.3153 -0.1623
12341TIP3    H158438   4.236   3.739   2.497  1.4468  2.8104 -1.7049
12341TIP3    H258439   4.290   3.765   2.636 -0.3292  0.7814 -0.6043
12342TIP3   OH258440   0.359   1.270  15.382  0.3498 -0.2431  0.3261
12342TIP3    H158441   0.398   1.350  15.417 -0.1215 -0.0909  0.4933
12342TIP3    H258442   0.420   1.201  15.409  1.6632  0.2495 -1.2735
12343TIP3   OH258443   3.079   1.144   1.828 -0.3789  0.0862 -0.3255
12343TIP3    H158444   3.079   1.060   1.873  0.6200  0.6884  0.7996
12343TIP3    H258445   3.139   1.199   1.878 -1.9654  1.8671 -0.3044
12344TIP3   OH258446   6.275   2.657  10.616  0.0109  0.2448  0.0859
12344TIP3    H158447   6.274   2.635  10.709  0.5541  0.3933  0.1273
12344TIP3    H258448   6.221   2.590  10.575  1.6766 -1.1860  0.2064
12345TIP3   OH258449   2.734   0.241  11.315  0.1328 -0.1330  0.2979
12345TIP3    H158450   2.656   0.250  11.369 -0.2185  0.1875 -0.2645
12345TIP3    H258451   2.786   0.318  11.334  0.2616 -0.2899  0.5864
12346TIP3   OH258452   6.320   6.579  12.967  0.0316 -0.1585 -0.4297
12346TIP3    H158453   6.326   6.486  12.945  0.1245 -0.0874 -0.7095
12346TIP3    H258454   6.273   6.581  13.051  0.5773 -0.4938 -0.1128
12347TIP3   OH258455   2.099   4.629  11.687 -0.3365  0.2486  0.2102
12347TIP3    H158456   2.036   4.630  11.758  1.4909 -0.7309  1.9022
12347TIP3    H258457   2.055   4.582  11.616 -1.8814  0.5403  0.9588
12348TIP3   OH258458   2.308   5.346  16.181  0.1015 -0.0892 -0.3175
12348TIP3    H158459   2.320   5.360  16.087  0.1993  0.3248 -0.2473
12348TIP3    H258460   2.394   5.364  16.219  0.8398 -3.0792 -0.4520
12349TIP3   OH258461   3.039   0.396  14.240  0.1767 -0.1180  0.0259
12349TIP3    H158462   3.097   0.469  14.223 -0.5100 -0.1276 -2.4568
12349TIP3    H258463   3.071   0.325  14.184 -1.5406 -0.4767 -0.5253
12350TIP3   OH258464   0.029   1.445  12.796 -0.0902 -0.0936 -0.5106
12350TIP3    H158465   0.116   1.468  12.828 -0.2032  0.2182 -0.4233
12350TIP3    H258466   0.030   1.349  12.790  0.1433 -0.1140 -0.1793
12351TIP3   OH258467   1.550   2.651  13.049  0.1082  0.2937  0.6048
12351TIP3    H158468   1.524   2.740  13.027  0.7294  0.4808  0.6305
12351TIP3    H258469   1.645   2.652  13.048  0.1192 -0.8356 -1.2588
12352TIP3   OH258470   5.124   1.797   3.970  0.1494  0.0484 -1.0713
12352TIP3    H158471   5.188   1.848   4.020 -0.0540 -0.3540 -0.3887
12352TIP3    H258472   5.123   1.837   3.883 -0.0953  1.2885 -0.5027
12353TIP3   OH258473   6.153   2.234  15.068 -0.3157  0.0175 -0.0202
12353TIP3    H158474   6.203   2.304  15.110 -1.5303  1.3240 -0.7009
12353TIP3    H258475   6.120   2.181  15.140 -0.1962  0.7162  0.5481
12354TIP3   OH258476   0.723   6.279   0.474  0.8439  0.1830 -0.4658
12354TIP3    H158477   0.713   6.374   0.481 -1.4301 -0.1913  2.0063
12354TIP3    H258478   0.788   6.256   0.540  1.0116 -0.0504 -0.7093
12355TIP3   OH258479   2.893   6.411   0.878  0.2901  0.0054  0.3230
12355TIP3    H158480   2.895   6.392   0.784  0.1888  3.3173 -0.4125
12355TIP3    H258481   2.972   6.368   0.912  1.4910  0.5734 -1.6608
12356TIP3   OH258482   5.508   4.535   5.625  0.0218 -0.6588  0.3293
12356TIP3    H158483   5.564   4.458   5.626 -0.3589 -1.0707 -3.1263
12356TIP3    H258484   5.419   4.500   5.630 -0.0759 -0.3123  0.9968
12357TIP3   OH258485   6.528   4.125  12.820 -0.2374  0.6064 -0.1199
12357TIP3    H158486   6.514   4.149  12.729  1.3764  1.6227 -0.1094
12357TIP3    H258487   6.462   4.174  12.869  1.1849  2.8361 -0.3946
12358TIP3   OH258488   6.575   1.699  14.846  0.0122 -1.0258  0.5301
12358TIP3    H158489   6.545   1.611  14.869 -0.9919  0.0035  3.3094
12358TIP3    H258490   6.622   1.729  14.924  2.6684 -0.0617 -1.3456
12359TIP3   OH258491   3.465   0.886   2.356 -0.1666 -0.5465  0.4945
12359TIP3    H158492   3.484   0.806   2.307 -0.8191 -0.2237 -0.3061
12359TIP3    H258493   3.495   0.956   2.299 -1.0160 -0.1623  0.5043
12360TIP3   OH258494   3.504   2.482  12.216  0.3259  0.2810 -0.4590
12360TIP3    H158495   3.536   2.447  12.298  0.4474 -1.3284 -1.1820
12360TIP3    H258496   3.582   2.519  12.173  0.7314 -1.1501 -0.9781
12361TIP3   OH258497   4.353   5.716   5.655  0.3915 -0.3357  0.0586
12361TIP3    H158498   4.294   5.720   5.579  0.4977 -0.7305 -0.0472
12361TIP3    H258499   4.300   5.677   5.725  0.4781 -0.5520  0.0061
12362TIP3   OH258500   0.876   5.578  16.578  0.3266 -0.4413 -0.1669
12362TIP3    H158501   0.834   5.613  16.657 -0.7380 -1.7442 -0.1225
12362TIP3    H258502   0.968   5.603  16.586  0.1245 -0.1132  1.2390
12363TIP3   OH258503   6.694   3.873   4.080  0.0557  0.0864 -0.2992
12363TIP3    H158504   6.788   3.857   4.087  0.3475  1.1702 -1.4375
12363TIP3    H258505   6.657   3.788   4.059  0.9004 -0.1808 -0.7663
12364TIP3   OH258506   6.314   1.206   0.764  0.5110 -0.4915 -0.1852
12364TIP3    H158507   6.297   1.162   0.681 -0.7988 -0.3354 -0.0147
12364TIP3    H258508   6.229   1.241   0.790  1.3719  1.5020  0.0465
12365TIP3   OH258509   2.079   1.612   3.917 -0.1134  0.0753  0.2870
12365TIP3    H158510   2.150   1.590   3.978  1.0736  0.3773 -0.9412
12365TIP3    H258511   2.041   1.527   3.893  1.9460 -0.4147 -1.4860
12366TIP3   OH258512   1.638   1.207  15.382  0.8538  0.1413  0.3426
12366TIP3    H158513   1.546   1.201  15.408  0.3554 -3.3627 -1.8903
12366TIP3    H258514   1.652   1.301  15.369 -2.3975  0.7743  0.7721
12367TIP3   OH258515   2.586   0.284  16.626 -0.4457 -0.8506 -0.0195
12367TIP3    H158516   2.505   0.312  16.668 -0.4653 -0.5335 -0.2715
12367TIP3    H258517   2.560   0.259  16.537 -0.3802 -1.3893  0.1077
12368TIP3   OH258518   5.928   5.937  17.133  0.2703 -0.3739  0.5258
12368TIP3    H158519   5.965   5.903  17.051 -0.4681  0.4778 -0.1611
12368TIP3    H258520   5.941   5.865  17.196 -0.2827 -1.5068 -0.6387
12369TIP3   OH258521   2.046   3.977   5.111  0.5013  0.3528  0.2159
12369TIP3    H158522   2.051   4.072   5.099 -1.9033  0.1228 -3.7292
12369TIP3    H258523   2.128   3.944   5.075  0.4618  0.8211 -0.3089
12370TIP3   OH258524   5.648   6.549   5.465  0.0275  0.0909 -0.1500
12370TIP3    H158525   5.655   6.465   5.420 -1.9023 -0.4925  0.6032
12370TIP3    H258526   5.581   6.597   5.417 -2.4703 -0.7584  2.3745
12371TIP3   OH258527   5.404   3.460  11.175  0.5163  0.2199  0.4345
12371TIP3    H158528   5.499   3.461  11.174  0.5183  0.9230  0.7884
12371TIP3    H258529   5.379   3.464  11.083  0.8313  0.5791  0.3625
12372TIP3   OH258530   4.563   2.721  16.051 -0.3905 -0.0766 -0.2505
12372TIP3    H158531   4.618   2.652  16.015 -0.8647 -0.4339 -0.2868
12372TIP3    H258532   4.547   2.780  15.977 -0.6497 -0.3528 -0.4155
12373TIP3   OH258533   5.648   5.009  13.753  0.1500  0.3539 -0.1418
12373TIP3    H158534   5.558   4.977  13.761 -0.1425  1.5743  1.7826
12373TIP3    H258535   5.689   4.983  13.836  1.9369 -1.2234 -1.4713
12374TIP3   OH258536   4.396   4.948  16.794 -0.4490 -0.2382 -0.3589
12374TIP3    H158537   4.371   4.999  16.717 -0.6702 -0.4155 -0.4057
12374TIP3    H258538   4.490   4.963  16.803 -0.4693 -0.0144 -0.5135
12375TIP3   OH258539   4.877   0.299  15.711 -0.0615  0.7960  0.2297
12375TIP3    H158540   4.791   0.262  15.732  0.0540  0.5876  0.3364
12375TIP3    H258541   4.939   0.230  15.733  0.0225  0.3251 -1.3978
12376TIP3   OH258542   3.550   0.062  13.193 -0.5813 -0.1488  0.5055
12376TIP3    H158543   3.465   0.095  13.222 -1.3948  1.0722 -3.0849
12376TIP3    H258544   3.598   0.139  13.165  0.5217 -1.1785 -0.5137
12377TIP3   OH258545   5.440   3.777  13.653 -0.1344 -0.2619 -0.9078
12377TIP3    H158546   5.359   3.817  13.621  0.7387  1.4358 -1.1045
12377TIP3    H258547   5.414   3.728  13.730 -1.8095 -2.0345 -2.5310
12378TIP3   OH258548   4.671   5.355   4.915  0.0109 -0.3059  0.4816
12378TIP3    H158549   4.646   5.422   4.979 -0.5625 -1.4362  1.4627
12378TIP3    H258550   4.606   5.285   4.927  2.3358 -2.3578  1.5811
12379TIP3   OH258551   6.763   3.353  10.717  0.3719  0.5360 -0.0587
12379TIP3    H158552   6.843   3.405  10.720  0.0870  1.0317 -0.8163
12379TIP3    H258553   6.753   3.320  10.806  2.3005 -0.8776 -0.3367
12380TIP3   OH258554   0.482   3.842   1.397 -0.4097 -0.4657  0.4233
12380TIP3    H158555   0.425   3.782   1.348 -0.6892 -0.1048  0.2992
12380TIP3    H258556   0.552   3.864   1.335  0.0175 -1.1261  0.6693
12381TIP3   OH258557   2.473   4.186   2.939 -0.0131  0.3404  0.6255
12381TIP3    H158558   2.432   4.099   2.947  0.6677 -0.1941 -1.3609
12381TIP3    H258559   2.431   4.224   2.861  1.3008  0.8849  0.1776
12382TIP3   OH258560   4.286   3.216  16.213 -0.4075  0.9502  0.6667
12382TIP3    H158561   4.269   3.215  16.119 -2.5276  0.4717  1.0383
12382TIP3    H258562   4.238   3.293  16.246 -0.1850  0.7655  1.4420
12383TIP3   OH258563   0.572   4.570  15.344  0.3334  0.1022  0.8866
12383TIP3    H158564   0.507   4.561  15.275 -0.1958  0.4111  1.3381
12383TIP3    H258565   0.656   4.554  15.301 -0.0276 -0.1097  0.2633
12384TIP3   OH258566   6.118   0.849   4.082  0.2982 -0.1248 -0.0448
12384TIP3    H158567   6.029   0.886   4.080 -0.3782 -1.5149  2.9145
12384TIP3    H258568   6.115   0.778   4.018 -0.8835 -0.4807  0.3877
12385TIP3   OH258569   2.105   2.960  12.336  0.5291 -0.1305  0.6342
12385TIP3    H158570   2.122   2.880  12.386 -0.6911 -1.7489 -1.4329
12385TIP3    H258571   2.094   2.929  12.246  0.5850  2.4478 -0.2793
12386TIP3   OH258572   0.082   6.073   5.325  0.2583  0.0185  0.6123
12386TIP3    H158573   0.052   6.048   5.237  1.1064 -0.8742  0.5672
12386TIP3    H258574   0.010   6.125   5.361 -0.5194 -0.4636 -0.2217
12387TIP3   OH258575   1.025   5.607   2.531  0.0786  0.5071  0.7103
12387TIP3    H158576   0.968   5.539   2.496  0.9614  0.6040 -0.9483
12387TIP3    H258577   1.106   5.562   2.552  0.6373  1.0149 -0.3136
12388TIP3   OH258578   3.856   6.080  14.664 -0.4220  0.1817 -0.5975
12388TIP3    H158579   3.840   6.031  14.744  1.9067  0.2356 -0.0629
12388TIP3    H258580   3.898   6.161  14.694  0.1988  0.3277 -1.8463
12389TIP3   OH258581   2.995   1.793   1.865 -0.4778  0.6065 -0.8994
12389TIP3    H158582   3.055   1.720   1.849 -1.6573 -1.1280  2.3070
12389TIP3    H258583   3.024   1.830   1.948 -1.9686  1.6669 -0.8386
12390TIP3   OH258584   4.187   3.094   3.430  0.1107 -0.2615 -0.8777
12390TIP3    H158585   4.110   3.052   3.394  0.2117 -1.6163  0.4648
12390TIP3    H258586   4.181   3.082   3.525  1.1448  1.0257 -0.6138
12391TIP3   OH258587   4.780   3.016   0.472  0.0523 -0.2066  0.5907
12391TIP3    H158588   4.827   3.099   0.462 -0.1904  0.1037  1.8512
12391TIP3    H258589   4.707   3.038   0.530 -2.5539 -0.3436 -2.4803
12392TIP3   OH258590   0.318   4.650   2.884  0.0816  0.9512 -0.0817
12392TIP3    H158591   0.401   4.605   2.870 -0.2998  0.4778 -0.8882
12392TIP3    H258592   0.275   4.599   2.952  0.1873  0.8250 -0.1098
12393TIP3   OH258593   6.042   1.470  14.750  0.2390 -0.1597  0.0473
12393TIP3    H158594   6.036   1.411  14.825 -1.5307  2.6236  2.2055
12393TIP3    H258595   5.951   1.497  14.734  0.9994  1.9783 -0.8553
12394TIP3   OH258596   2.057   6.129   0.505  0.0540  0.1578  0.1456
12394TIP3    H158597   2.151   6.111   0.498  0.1806  1.4025 -1.6926
12394TIP3    H258598   2.020   6.049   0.541  1.4992 -1.2722 -1.4486
12395TIP3   OH258599   0.684   2.047   3.983  0.2074  0.1221  0.0500
12395TIP3    H158600   0.681   2.141   4.001 -0.4334  0.1252 -0.0679
12395TIP3    H258601   0.722   2.009   4.062  2.2358  0.6663 -0.6341
12396TIP3   OH258602   6.460   0.689   0.945  0.0071 -0.5239 -0.5087
12396TIP3    H158603   6.489   0.680   1.036 -0.7933  0.9757 -0.0827
12396TIP3    H258604   6.535   0.660   0.893  0.8084 -0.5047  0.6139
12397TIP3   OH258605   3.845   6.409   1.912 -0.0839  0.1229 -0.0385
12397TIP3    H158606   3.752   6.422   1.894 -0.7560 -2.6464  1.2955
12397TIP3    H258607   3.851   6.400   2.007  1.3350 -1.3602 -0.2574
12398TIP3   OH258608   1.259   0.557   2.928 -0.0716 -0.4332 -0.0567
12398TIP3    H158609   1.195   0.518   2.868  0.2493  0.6354 -1.1127
12398TIP3    H258610   1.219   0.639   2.957 -1.5577 -2.3421  3.6263
12399TIP3   OH258611   4.825   1.745  13.197 -0.2324 -0.6371 -0.1738
12399TIP3    H158612   4.756   1.806  13.173 -1.6628 -1.7520  0.9793
12399TIP3    H258613   4.786   1.658  13.184  0.8473 -1.2763  0.7691
12400TIP3   OH258614   0.014   4.623  13.537  0.0543  0.3403 -0.0557
12400TIP3    H158615   0.090   4.611  13.593  1.0156  1.9793 -0.9686
12400TIP3    H258616  -0.054   4.568  13.576  0.9206  0.8754  2.2665
12401TIP3   OH258617   1.099   5.363  13.334  0.6953  0.5487  0.6488
12401TIP3    H158618   1.160   5.360  13.408  0.3130 -2.4859  0.9022
12401TIP3    H258619   1.138   5.305  13.268 -1.4918 -0.8243  0.5083
12402TIP3   OH258620   6.347   4.031  11.336  0.1163 -0.2097  0.0251
12402TIP3    H158621   6.300   4.063  11.259  1.7262  0.6879 -0.5954
12402TIP3    H258622   6.317   4.088  11.407 -2.2066 -1.7378  0.3181
12403TIP3   OH258623   2.380   1.624   1.009  0.5818  0.4944 -0.4664
12403TIP3    H158624   2.423   1.538   1.005  0.5696  0.4882 -0.4622
12403TIP3    H258625   2.441   1.678   1.060  0.7128  0.5606 -0.6940
12404TIP3   OH258626   4.448   0.285   3.159 -0.0413 -0.2446 -0.1184
12404TIP3    H158627   4.444   0.213   3.222 -0.9792 -0.9937 -1.0282
12404TIP3    H258628   4.356   0.305   3.140  0.2457 -0.2579 -1.5199
12405TIP3   OH258629   5.174   6.483   6.173  0.2737  0.0219  0.6028
12405TIP3    H158630   5.101   6.545   6.173  0.0676 -0.2176 -0.0627
12405TIP3    H258631   5.243   6.527   6.223  0.9471  1.7913 -1.7769
12406TIP3   OH258632   6.600   5.775   3.444  0.1048  0.6482 -0.9064
12406TIP3    H158633   6.679   5.802   3.492  0.3884 -0.5360 -0.7100
12406TIP3    H258634   6.531   5.775   3.509  0.4423 -0.7242 -0.5312
12407TIP3   OH258635   2.864   2.647  15.943  0.1709 -0.3221 -0.0407
12407TIP3    H158636   2.847   2.740  15.959 -2.0591 -1.1258  2.6954
12407TIP3    H258637   2.936   2.625  16.002 -1.3784 -0.9980  1.6448
12408TIP3   OH258638   4.896   1.425   1.427 -0.0385  0.4895 -0.5880
12408TIP3    H158639   4.852   1.364   1.486  0.8305  0.1146 -0.3161
12408TIP3    H258640   4.989   1.402   1.433  0.1990  1.2507 -1.1689
12409TIP3   OH258641   2.530   5.832   4.388 -0.0707 -0.1345  0.2038
12409TIP3    H158642   2.447   5.812   4.432 -1.0419  1.4170 -0.8456
12409TIP3    H258643   2.506   5.842   4.296  1.4013 -0.2880 -0.2057
12410TIP3   OH258644   1.826   1.627   2.923  0.2727  0.5726  0.1965
12410TIP3    H158645   1.790   1.540   2.906  0.3018  0.6355 -0.1792
12410TIP3    H258646   1.867   1.619   3.010  3.1249 -0.7020 -1.2104
12411TIP3   OH258647   3.183   2.064  14.430  0.6343  0.3303  0.0036
12411TIP3    H158648   3.164   2.013  14.351 -3.0143  1.9225 -0.2535
12411TIP3    H258649   3.145   2.012  14.501  0.5715  0.6850  0.2303
12412TIP3   OH258650   2.196   1.775   3.644 -0.5856  0.3236 -0.1571
12412TIP3    H158651   2.208   1.721   3.722 -0.7439 -1.2273 -1.1806
12412TIP3    H258652   2.112   1.746   3.608 -1.6301  2.6245  0.3433
12413TIP3   OH258653   5.422   2.891   2.049  0.3162  0.0326  0.0435
12413TIP3    H158654   5.386   2.977   2.067  2.1379  0.9764 -0.6332
12413TIP3    H258655   5.433   2.888   1.954  0.4083 -0.8775  0.0727
12414TIP3   OH258656   1.398   4.737   3.454 -0.1837 -0.1163  0.1352
12414TIP3    H158657   1.442   4.692   3.527 -0.5822 -2.0273 -0.7604
12414TIP3    H258658   1.315   4.766   3.491  0.4728  0.7193  0.9809
12415TIP3   OH258659   2.528   4.451  13.323  0.2343  0.0059 -0.5836
12415TIP3    H158660   2.608   4.430  13.275  0.5612 -1.1762  0.4488
12415TIP3    H258661   2.552   4.524  13.380  0.3942  0.1176 -0.7954
12416TIP3   OH258662   1.084   5.507  12.689 -0.3147  0.6823 -0.1796
12416TIP3    H158663   1.050   5.541  12.772  0.2151 -0.3410  0.4773
12416TIP3    H258664   1.007   5.497  12.633 -1.2319 -2.1867  1.4944
12417TIP3   OH258665   6.274   0.887  14.707  0.0666 -0.1280 -0.2772
12417TIP3    H158666   6.294   0.960  14.648  0.2563 -1.1090 -1.4445
12417TIP3    H258667   6.301   0.809  14.658  0.2396 -0.9583  1.1203
12418TIP3   OH258668   3.076   3.789  11.278  0.7195 -0.1699 -0.4776
12418TIP3    H158669   3.080   3.854  11.348 -0.8755 -1.2493  0.6692
12418TIP3    H258670   3.148   3.729  11.297 -0.6024 -1.2916  1.1338
12419TIP3   OH258671   4.539   2.420  16.631  0.0841 -0.1291 -0.3719
12419TIP3    H158672   4.613   2.455  16.583  0.8274 -0.4365  0.5348
12419TIP3    H258673   4.558   2.327  16.641  0.4009  0.1011  1.3142
12420TIP3   OH258674   3.210   0.518  12.177 -0.3668  1.1934 -0.0146
12420TIP3    H158675   3.114   0.522  12.179 -0.3841  1.5706 -0.9974
12420TIP3    H258676   3.229   0.430  12.144 -0.3353  0.4935  1.8085
12421TIP3   OH258677   5.136   3.670  11.471  0.4774 -0.0058 -0.2989
12421TIP3    H158678   5.173   3.611  11.406 -1.5081 -1.1716 -0.4141
12421TIP3    H258679   5.125   3.617  11.550 -2.0147 -0.0617 -0.6236
12422TIP3   OH258680   5.773   4.490  14.341  0.3628  0.1309  0.0945
12422TIP3    H158681   5.693   4.466  14.294  0.3347 -0.3628  0.3834
12422TIP3    H258682   5.748   4.488  14.434  0.7552 -0.2141  0.1966
12423TIP3   OH258683   6.302   2.745   0.279 -0.6663  0.0834 -0.1133
12423TIP3    H158684   6.257   2.829   0.276 -0.2882  0.2718 -0.4777
12423TIP3    H258685   6.384   2.763   0.325  0.1237  0.2459 -1.5592
12424TIP3   OH258686   2.904   5.422   6.028  0.0707  0.3536 -0.6496
12424TIP3    H158687   2.856   5.504   6.039 -0.1433  0.0268  0.9901
12424TIP3    H258688   2.852   5.357   6.075  2.5819  0.1748  1.9998
12425TIP3   OH258689   1.008   5.218  15.569 -0.2960  1.3145  0.4504
12425TIP3    H158690   0.992   5.228  15.663 -0.9419  1.7691  0.2947
12425TIP3    H258691   0.925   5.185  15.534  0.4312 -0.3869  0.2789
12426TIP3   OH258692   3.827   0.326   5.818 -0.2783  0.0712  0.2378
12426TIP3    H158693   3.804   0.262   5.886  0.7850 -0.9776 -0.3666
12426TIP3    H258694   3.920   0.342   5.830 -0.1640  0.1688 -0.7360
12427TIP3   OH258695   0.339   3.381   0.936 -0.4933  0.0541 -0.6010
12427TIP3    H158696   0.288   3.442   0.989 -1.5443 -1.6124  0.3599
12427TIP3    H258697   0.276   3.346   0.872  0.5414  1.3649 -2.3864
12428TIP3   OH258698   3.805   1.914  15.283  0.1300 -0.0537  0.3352
12428TIP3    H158699   3.884   1.899  15.232 -0.0321  0.0819  0.0372
12428TIP3    H258700   3.823   1.993  15.333  0.5715 -0.6148  1.0613
12429TIP3   OH258701   3.708   1.744  12.791 -0.0243 -0.0067  0.1981
12429TIP3    H158702   3.712   1.720  12.698 -0.6528  0.4375  0.0492
12429TIP3    H258703   3.789   1.711  12.828  0.9806  1.2321 -0.8429
12430TIP3   OH258704   4.939   0.992   1.326  0.0810  0.8983  0.4611
12430TIP3    H158705   5.015   0.984   1.384  0.9213 -0.4512 -0.7945
12430TIP3    H258706   4.872   1.034   1.380  1.8477  2.5129  1.4804
12431TIP3   OH258707   0.414   6.452  16.691 -0.2457  0.1912 -0.2183
12431TIP3    H158708   0.436   6.476  16.781 -0.5654 -0.0887 -0.0668
12431TIP3    H258709   0.412   6.535  16.643  1.4512  0.2024 -0.3107
12432TIP3   OH258710   0.366   4.458  13.641  0.5793  0.3360  0.1275
12432TIP3    H158711   0.404   4.545  13.652 -2.1703  1.3826  1.8598
12432TIP3    H258712   0.371   4.419  13.729 -1.5988  0.2263  0.2332
12433TIP3   OH258713   4.296   0.391   6.236  0.3524 -0.5817 -0.6824
12433TIP3    H158714   4.380   0.344   6.237  1.1442  0.8225 -0.0909
12433TIP3    H258715   4.240   0.341   6.295  0.8737 -1.3508 -0.8289
12434TIP3   OH258716   4.755   3.006   2.374  1.1152 -0.0966  0.2239
12434TIP3    H158717   4.735   3.100   2.365 -1.4842 -0.2799  2.9870
12434TIP3    H258718   4.837   3.003   2.422  1.6033  0.7714 -0.5514
12435TIP3   OH258719   3.485   4.930   0.467 -0.0122 -0.0178  0.1035
12435TIP3    H158720   3.446   5.015   0.486 -0.2264 -0.6423  2.6374
12435TIP3    H258721   3.414   4.867   0.482 -0.1269 -0.6153 -2.6582
12436TIP3   OH258722   3.328   2.632   3.782  0.0056  0.7291  0.1441
12436TIP3    H158723   3.265   2.560   3.780 -0.9762  1.5886 -0.4788
12436TIP3    H258724   3.407   2.596   3.742 -0.8334  0.2998 -1.1720
12437TIP3   OH258725   1.206   6.046   3.773  0.5012  0.2099  0.2966
12437TIP3    H158726   1.181   5.955   3.758 -1.4968  0.9158 -0.6888
12437TIP3    H258727   1.276   6.062   3.710  0.4619 -0.4618  0.0776
12438TIP3   OH258728   5.804   0.244   0.269  0.2433 -0.7627 -0.2385
12438TIP3    H158729   5.880   0.224   0.324 -0.7205 -0.0524  1.4128
12438TIP3    H258730   5.795   0.169   0.211  2.0973 -0.9302 -0.3524
12439TIP3   OH258731   5.336   0.789  10.590 -0.0053  0.3331  0.1852
12439TIP3    H158732   5.416   0.802  10.538  0.4711 -0.9121  0.5849
12439TIP3    H258733   5.352   0.708  10.637 -1.3679  0.2837  0.5604
12440TIP3   OH258734   5.944   5.050   5.625 -0.2147  0.7026 -0.0553
12440TIP3    H158735   6.030   5.092   5.624 -0.8084  1.9417  0.0892
12440TIP3    H258736   5.883   5.122   5.611 -1.1828 -0.2962 -0.9598
12441TIP3   OH258737   3.420   4.059  16.564  0.1880 -0.2220  0.0985
12441TIP3    H158738   3.349   4.123  16.563  0.0762 -0.3516 -0.6066
12441TIP3    H258739   3.419   4.023  16.653 -0.4270 -0.0083  0.1820
12442TIP3   OH258740   6.054   6.547  15.132 -0.5385 -0.5984  0.0297
12442TIP3    H158741   5.970   6.520  15.168  0.2640 -1.4127  1.3499
12442TIP3    H258742   6.092   6.604  15.200  0.2589 -0.7788 -0.2523
12443TIP3   OH258743   4.196   1.452  13.063  0.5955 -0.1428  0.3821
12443TIP3    H158744   4.170   1.515  13.131 -2.3848 -1.5274  0.5953
12443TIP3    H258745   4.268   1.403  13.103  1.5568  1.6961  1.0040
12444TIP3   OH258746   1.189   5.638  13.611 -0.2706  0.3309 -0.2756
12444TIP3    H158747   1.127   5.649  13.539  0.4664 -1.1574 -1.1650
12444TIP3    H258748   1.149   5.570  13.666 -1.1959  1.9813  1.1559
12445TIP3   OH258749   6.187   1.938  14.434 -0.4419 -0.7937  0.3724
12445TIP3    H158750   6.192   1.934  14.530  2.5409 -0.7602  0.2703
12445TIP3    H258751   6.141   2.020  14.416 -1.6719 -1.1544  1.7644
12446TIP3   OH258752   5.647   4.433   2.176  0.2156 -0.5199  0.5702
12446TIP3    H158753   5.617   4.481   2.253  1.0912  0.1031  0.5375
12446TIP3    H258754   5.654   4.342   2.206 -1.6724 -0.6850  0.5679
12447TIP3   OH258755   1.639   0.977   4.692 -0.0235  0.0517 -0.2979
12447TIP3    H158756   1.612   0.888   4.672 -0.8040  0.2715 -0.2449
12447TIP3    H258757   1.735   0.974   4.692 -0.0458 -1.0871  1.0913
12448TIP3   OH258758   1.608   6.146  14.856  0.1120  0.0202  0.1672
12448TIP3    H158759   1.604   6.233  14.818  2.3593  0.1084  0.0340
12448TIP3    H258760   1.577   6.088  14.786  1.7763  0.4276 -0.9392
12449TIP3   OH258761   6.667   1.089  10.726  0.1400  0.2962 -0.1254
12449TIP3    H158762   6.756   1.117  10.702  0.0881 -0.8090 -1.6640
12449TIP3    H258763   6.621   1.079  10.643 -0.5409 -1.9958  0.4853
12450TIP3   OH258764   0.343   4.393   5.051  0.5992  0.2160  0.6482
12450TIP3    H158765   0.288   4.427   4.981  1.9672 -0.1769 -0.6541
12450TIP3    H258766   0.427   4.437   5.039  0.3369  1.4737  3.1457
12451TIP3   OH258767   5.110   5.900  11.320  0.1762  0.4502 -0.0226
12451TIP3    H158768   5.024   5.860  11.312 -0.6356  2.3217 -0.8312
12451TIP3    H258769   5.108   5.945  11.404  0.2734  0.7466 -0.1805
12452TIP3   OH258770   4.369   0.132  11.216  0.0390  0.0573  0.0225
12452TIP3    H158771   4.327   0.086  11.143 -0.8931 -1.0409  1.2396
12452TIP3    H258772   4.450   0.166  11.179 -0.5887 -0.1836 -1.6251
12453TIP3   OH258773   1.938   2.962   2.308  0.2238 -0.1136  0.0731
12453TIP3    H158774   2.011   3.010   2.269 -0.8719  0.9198 -0.7384
12453TIP3    H258775   1.860   3.001   2.269 -0.7920 -0.8387  1.3354
12454TIP3   OH258776   2.494   6.787  13.116 -0.0696  0.1977  0.1159
12454TIP3    H158777   2.533   6.777  13.029 -0.4633  1.5226 -0.2192
12454TIP3    H258778   2.417   6.731  13.114  1.0036 -1.3297  0.3015
12455TIP3   OH258779   3.989   3.296   5.972  0.0383 -0.0334  1.0162
12455TIP3    H158780   4.072   3.249   5.983  2.2601  3.2368 -1.0090
12455TIP3    H258781   3.956   3.267   5.887  0.9923  1.3564  0.1479
12456TIP3   OH258782   6.420   6.009   4.841  0.8012  0.9277  0.0544
12456TIP3    H158783   6.375   6.054   4.770  0.3316  0.4191  0.0246
12456TIP3    H258784   6.459   6.079   4.893 -0.4452  1.4082  0.3587
12457TIP3   OH258785   1.195   0.336   0.236  0.0360  0.2350 -0.3334
12457TIP3    H158786   1.207   0.427   0.206 -0.9707  1.2546  2.2642
12457TIP3    H258787   1.281   0.295   0.222  0.3740  1.4346 -1.9527
12458TIP3   OH258788   5.532   0.903   3.355 -0.6338 -0.1289 -0.1173
12458TIP3    H158789   5.534   0.998   3.368  1.6334 -0.1334 -0.1486
12458TIP3    H258790   5.531   0.892   3.260 -0.8915 -0.1296 -0.1137
12459TIP3   OH258791   0.621   1.759   5.827  0.3493  0.1427  0.4577
12459TIP3    H158792   0.543   1.710   5.802  0.6368 -0.1875  0.2055
12459TIP3    H258793   0.693   1.697   5.818  0.4669  0.0118  2.0665
12460TIP3   OH258794   5.413   2.501  12.818 -0.1923  0.0152 -0.1371
12460TIP3    H158795   5.436   2.593  12.815  0.9205 -0.2375  0.2723
12460TIP3    H258796   5.475   2.458  12.759 -0.7233 -0.4750 -0.3575
12461TIP3   OH258797   3.919   0.125  11.388  0.1242 -0.5691 -0.1570
12461TIP3    H158798   3.855   0.080  11.333 -0.3550  0.7147 -0.6518
12461TIP3    H258799   3.972   0.176  11.328  0.4985 -0.2595  0.4281
12462TIP3   OH258800   2.884   0.689  17.047  0.0055 -0.3275  0.0426
12462TIP3    H158801   2.842   0.725  17.125  1.4891  0.6433  0.4242
12462TIP3    H258802   2.863   0.751  16.978  2.3047  1.2016  0.6360
12463TIP3   OH258803   3.920   2.498  16.835 -0.3530  0.6099  0.2466
12463TIP3    H158804   3.850   2.515  16.898 -0.4048  1.2851  0.0033
12463TIP3    H258805   3.988   2.562  16.856  0.8909 -1.0860  1.5338
12464TIP3   OH258806   2.593   0.062   4.561  0.4085 -0.2279 -0.4014
12464TIP3    H158807   2.590  -0.025   4.521  1.6336  0.3167 -1.6981
12464TIP3    H258808   2.632   0.118   4.494 -0.7803  1.4260  0.2596
12465TIP3   OH258809   2.712   1.770  14.621  0.3159 -0.0038 -0.4859
12465TIP3    H158810   2.688   1.682  14.652  0.8708  0.5340  1.5394
12465TIP3    H258811   2.758   1.810  14.695 -1.0194  2.4403 -0.9251
12466TIP3   OH258812   6.351   0.734  12.604  0.1894 -0.1277  0.0960
12466TIP3    H158813   6.323   0.643  12.614  0.4170 -0.3616 -1.3160
12466TIP3    H258814   6.417   0.746  12.672  1.7431 -1.6765 -1.1046
12467TIP3   OH258815   5.328   0.582   3.444 -0.1016 -0.3051  0.3816
12467TIP3    H158816   5.366   0.520   3.381 -2.8655 -1.4134 -0.2388
12467TIP3    H258817   5.292   0.527   3.513 -0.3225  0.7602  1.1315
12468TIP3   OH258818   2.336   0.542   5.993 -0.3478 -0.2418 -0.1250
12468TIP3    H158819   2.367   0.507   6.077 -0.7911 -0.6232 -0.1220
12468TIP3    H258820   2.262   0.487   5.970  0.8857 -1.2831 -1.6780
12469TIP3   OH258821   4.963   0.992   2.752  0.4132  0.0582  0.4498
12469TIP3    H158822   4.954   1.038   2.835  0.4685  0.4305  0.2461
12469TIP3    H258823   4.922   0.907   2.768  2.7776 -0.8970  1.6863
12470TIP3   OH258824   3.010   6.721  16.736  0.4762  0.4825  0.2225
12470TIP3    H158825   3.092   6.762  16.764  0.8908  0.6444 -1.1907
12470TIP3    H258826   2.956   6.793  16.705 -0.1007  0.3443  0.8909
12471TIP3   OH258827   2.653   5.052  15.687  0.3981  0.4303 -0.1920
12471TIP3    H158828   2.690   4.979  15.637  0.6124  0.0114  0.5624
12471TIP3    H258829   2.721   5.074  15.750 -0.3451  0.1345  0.7257
12472TIP3   OH258830   0.128   1.077   2.350 -0.3499 -0.2589  0.7185
12472TIP3    H158831   0.215   1.044   2.373  0.6214  1.1975 -0.7474
12472TIP3    H258832   0.138   1.172   2.353 -1.8729 -0.0855  0.4172
12473TIP3   OH258833   5.952   0.606  15.283 -0.3630 -0.1000  0.2228
12473TIP3    H158834   5.982   0.620  15.193 -0.5062  0.0388  0.1974
12473TIP3    H258835   6.009   0.537  15.317  1.4814  1.7409  0.9472
12474TIP3   OH258836   1.458   2.046  11.588 -0.4788  0.4010 -0.7411
12474TIP3    H158837   1.521   2.095  11.534 -0.9370  0.3940 -1.2839
12474TIP3    H258838   1.482   1.954  11.576  1.7123  0.5263  1.8998
12475TIP3   OH258839   3.940   0.438  14.213 -0.1288  0.4892 -0.2890
12475TIP3    H158840   3.948   0.529  14.240 -0.6061  0.6987 -0.8520
12475TIP3    H258841   4.030   0.406  14.208  0.2196  1.8467 -3.2580
12476TIP3   OH258842   1.875   6.105  14.549 -0.0495 -0.4261 -0.2388
12476TIP3    H158843   1.915   6.184  14.587  0.0770 -1.9509  3.0447
12476TIP3    H258844   1.781   6.119  14.558 -0.0343 -0.4256 -0.0601
12477TIP3   OH258845   5.444   6.293  15.073 -0.2619  0.3660  0.1688
12477TIP3    H158846   5.453   6.320  15.165  0.3881 -0.2051  0.2795
12477TIP3    H258847   5.508   6.347  15.027 -0.2232  0.2832  0.1269
12478TIP3   OH258848   0.706   4.208   0.376  0.5365  0.5730  0.1568
12478TIP3    H158849   0.797   4.221   0.349  0.5339  0.7728  0.2394
12478TIP3    H258850   0.709   4.206   0.472  0.5304 -0.0111  0.1481
12479TIP3   OH258851   4.978   1.378  15.423  0.2729 -0.7567 -0.4150
12479TIP3    H158852   4.942   1.330  15.497  2.6415 -0.0001  1.2629
12479TIP3    H258853   4.982   1.314  15.352 -2.2090 -1.4319  0.0060
12480TIP3   OH258854   0.900   0.007   3.408  0.5654 -0.4581 -0.1843
12480TIP3    H158855   0.938  -0.047   3.477  1.2381 -0.5878 -0.6460
12480TIP3    H258856   0.928  -0.035   3.326  1.4858  0.8378 -0.5563
12481TIP3   OH258857   5.644   3.114   2.769 -0.2222  0.0733 -0.4058
12481TIP3    H158858   5.636   3.035   2.822  0.1853  0.0572 -0.3687
12481TIP3    H258859   5.561   3.119   2.721 -0.9940  0.6121  0.9608
12482TIP3   OH258860   0.067   6.562   3.115 -0.5357  0.2420  0.2506
12482TIP3    H158861   0.087   6.553   3.022 -2.0031  3.0117 -0.3830
12482TIP3    H258862   0.149   6.586   3.156 -0.4187  1.5535 -0.7377
12483TIP3   OH258863   4.856   5.825  12.769 -0.4038  0.2964 -0.1999
12483TIP3    H158864   4.764   5.838  12.792 -0.7326 -1.3304 -0.5599
12483TIP3    H258865   4.882   5.748  12.819 -0.0299 -0.9317 -2.2462
12484TIP3   OH258866   5.015   1.254   0.824  0.4127  0.2732  0.5611
12484TIP3    H158867   4.948   1.304   0.776  0.9955  1.1830  0.7031
12484TIP3    H258868   5.054   1.197   0.757  0.1560  0.4226  0.2812
12485TIP3   OH258869   5.962   2.095  16.284  0.1547  0.3107  0.3982
12485TIP3    H158870   6.034   2.134  16.233  0.8935 -2.2607 -0.6026
12485TIP3    H258871   5.910   2.170  16.312  1.8937  2.0709 -0.8967
12486TIP3   OH258872   5.206   2.618  14.704 -0.1149  0.4737 -0.1489
12486TIP3    H158873   5.255   2.626  14.786 -0.3008 -3.4059  0.4385
12486TIP3    H258874   5.127   2.670  14.718  1.1228  2.1214  1.0303
12487TIP3   OH258875   5.441   1.466  16.997  0.0117  0.0249  0.1784
12487TIP3    H158876   5.422   1.433  16.909 -2.6092  2.1973 -0.1180
12487TIP3    H258877   5.373   1.427  17.052 -1.2423  2.3750  0.3642
12488TIP3   OH258878   2.856   2.409   5.179 -0.3262  0.5357 -0.1618
12488TIP3    H158879   2.875   2.466   5.253 -0.7124 -0.1855  0.5076
12488TIP3    H258880   2.806   2.336   5.217  1.3822 -0.9847 -0.7263
12489TIP3   OH258881   2.114   4.681  14.595 -1.0477  0.1174 -0.5086
12489TIP3    H158882   2.091   4.650  14.682 -1.5908  0.2035 -0.6175
12489TIP3    H258883   2.202   4.648  14.580 -1.1106 -0.2456 -0.0911
12490TIP3   OH258884   2.444   4.368   0.677  0.4267 -0.3048  0.2566
12490TIP3    H158885   2.396   4.327   0.605 -0.5400 -1.3449  1.4747
12490TIP3    H258886   2.378   4.390   0.742  1.4500 -0.8948  1.5445
12491TIP3   OH258887   5.756   0.826  13.367  0.3802  0.9784  0.4328
12491TIP3    H158888   5.723   0.789  13.449 -0.4362  0.8580  0.0576
12491TIP3    H258889   5.709   0.909  13.358  0.0356  0.7226 -0.1979
12492TIP3   OH258890   6.546   5.694  13.237 -0.0287 -0.3057 -0.2581
12492TIP3    H158891   6.580   5.669  13.323 -1.2466 -0.2504  0.2535
12492TIP3    H258892   6.561   5.788  13.231  1.4149 -0.5515 -0.7435
12493TIP3   OH258893   0.217   0.004  14.359  0.5485  0.1769  0.1695
12493TIP3    H158894   0.131   0.046  14.364 -0.1203 -1.2294  1.0014
12493TIP3    H258895   0.250   0.005  14.448  0.5544 -0.9569  0.1937
12494TIP3   OH258896   5.426   2.847   3.949 -0.1636 -0.4282  0.1686
12494TIP3    H158897   5.492   2.887   4.005 -0.3322  0.5850 -0.3288
12494TIP3    H258898   5.346   2.848   4.002  0.0371 -0.8960  0.4736
12495TIP3   OH258899   4.246   3.285  15.106  0.1688  0.2941 -0.4538
12495TIP3    H158900   4.181   3.318  15.044 -0.7971  1.6102  1.1941
12495TIP3    H258901   4.318   3.347  15.099 -0.8403  1.7121  1.2453
12496TIP3   OH258902   3.922   4.612   2.368  0.0768 -0.0045  0.2490
12496TIP3    H158903   3.907   4.535   2.312  0.1563  0.5353 -0.5295
12496TIP3    H258904   3.925   4.577   2.457 -2.1297 -0.6403  0.1210
12497TIP3   OH258905   4.997   2.497   0.327 -0.2404  0.4606 -0.4901
12497TIP3    H158906   4.934   2.431   0.357  1.1774 -0.8034 -0.2054
12497TIP3    H258907   4.981   2.572   0.384 -0.3193 -0.4693  0.7566
12498TIP3   OH258908   6.464   0.211  16.816 -0.7786  0.7822  0.1682
12498TIP3    H158909   6.484   0.295  16.858  3.9403  0.3801 -0.9542
12498TIP3    H258910   6.463   0.232  16.722  0.6594 -0.4136 -0.1318
12499TIP3   OH258911   6.785   4.039   0.492 -0.4269 -0.1111  0.6362
12499TIP3    H158912   6.851   4.108   0.498 -0.0045 -0.4284 -0.2137
12499TIP3    H258913   6.831   3.960   0.520 -1.1446  0.0853  2.4203
12500TIP3   OH258914   2.060   2.783  10.433  0.0988 -0.2513  0.3244
12500TIP3    H158915   2.061   2.839  10.510 -0.4509 -0.0782  0.2060
12500TIP3    H258916   1.992   2.718  10.452  1.4512 -1.5119  0.9170
12501TIP3   OH258917   5.131   4.809  12.334 -0.5227  0.1795  0.2612
12501TIP3    H158918   5.156   4.900  12.348  0.3419  0.1272 -0.8639
12501TIP3    H258919   5.199   4.758  12.378 -1.6590  0.0699  1.9389
12502TIP3   OH258920   6.541   6.069  15.745 -0.4026 -0.1328  0.2406
12502TIP3    H158921   6.522   6.038  15.833 -0.9494 -2.0053 -0.5212
12502TIP3    H258922   6.483   6.144  15.732 -0.6657 -0.1550  1.2927
12503TIP3   OH258923   6.246   4.391  14.269  0.0419  0.5732  0.0718
12503TIP3    H158924   6.170   4.426  14.316 -0.5547 -2.3793  1.4265
12503TIP3    H258925   6.260   4.305  14.308  0.5164 -1.3700 -4.1063
12504TIP3   OH258926   0.400   0.886  10.762 -0.4190 -0.1016 -0.0615
12504TIP3    H158927   0.408   0.976  10.730  0.8984 -0.3985 -0.5931
12504TIP3    H258928   0.490   0.859  10.779 -0.9223 -0.7226  1.7741
12505TIP3   OH258929   6.466   2.358   5.668 -0.1726  0.0975  0.1260
12505TIP3    H158930   6.414   2.329   5.593 -1.9756  0.1201  1.3101
12505TIP3    H258931   6.424   2.439   5.697  1.3824  0.8598  0.2830
12506TIP3   OH258932   3.443   1.698   0.971  0.9287  0.2962 -0.1261
12506TIP3    H158933   3.503   1.624   0.978 -0.2027 -0.6494 -0.3638
12506TIP3    H258934   3.500   1.774   0.958  2.2969 -0.0402  3.3949
12507TIP3   OH258935   3.077   3.600   2.081  0.1969  0.1967  0.8254
12507TIP3    H158936   3.132   3.608   2.159  2.0828  1.1768 -0.5656
12507TIP3    H258937   3.081   3.687   2.040 -0.4479 -0.4107 -0.5666
12508TIP3   OH258938   3.650   2.635   6.247 -0.2169  0.4955 -0.2808
12508TIP3    H158939   3.592   2.702   6.209 -2.5696 -2.1105 -1.4494
12508TIP3    H258940   3.698   2.601   6.171  0.1891  0.0969  0.1597
12509TIP3   OH258941   0.407   4.019  16.826 -0.1007 -0.3843  0.0106
12509TIP3    H158942   0.448   3.933  16.820  1.4012  0.4067 -1.5204
12509TIP3    H258943   0.315   4.004  16.802  0.3011 -1.4364 -0.8667
12510TIP3   OH258944   4.435   0.564   5.277  0.6028  0.6211  0.0122
12510TIP3    H158945   4.508   0.542   5.335  1.4153  1.6573 -0.6016
12510TIP3    H258946   4.458   0.649   5.240 -1.1734  1.2115  0.2055
12511TIP3   OH258947   4.402   5.945  15.807  0.2588 -0.2706  0.2860
12511TIP3    H158948   4.325   5.913  15.759 -1.5291  0.4073  2.6296
12511TIP3    H258949   4.416   6.034  15.774 -0.3649 -0.1629  0.3067
12512TIP3   OH258950   1.188   6.594   2.871 -0.3833  0.1391  0.2470
12512TIP3    H158951   1.162   6.666   2.814  1.7244 -0.7043 -1.8799
12512TIP3    H258952   1.107   6.546   2.887 -0.9341 -0.0354 -2.7050
12513TIP3   OH258953   6.140   2.369   3.961 -0.0551  0.5554  0.7115
12513TIP3    H158954   6.116   2.376   4.054  0.5459 -0.9482  1.0113
12513TIP3    H258955   6.137   2.458   3.928  2.1877  1.4623  2.8240
12514TIP3   OH258956   3.110   3.774  14.820  0.1973  0.0556 -0.3781
12514TIP3    H158957   3.151   3.702  14.772  2.1377  0.1493  1.0465
12514TIP3    H258958   3.058   3.821  14.755 -0.1178 -1.9203 -1.5834
12515TIP3   OH258959   1.601   0.435  13.457  0.1244 -0.1490 -0.1330
12515TIP3    H158960   1.524   0.491  13.448  0.4150 -0.0512 -2.2728
12515TIP3    H258961   1.565   0.349  13.481 -0.7096 -0.2454 -1.7015
12516TIP3   OH258962   6.322   5.229   0.320  0.3129  0.1056 -0.6716
12516TIP3    H158963   6.344   5.173   0.395  1.5023  0.4289 -0.7643
12516TIP3    H258964   6.404   5.234   0.270 -0.3090  0.3911 -1.6637
12517TIP3   OH258965   5.822   0.778   4.673  0.1903 -0.0874 -0.4150
12517TIP3    H158966   5.838   0.732   4.755  1.3440  0.6174 -0.2372
12517TIP3    H258967   5.756   0.844   4.694  0.0113 -0.3353 -0.2040
12518TIP3   OH258968   4.914   1.170   2.932  0.1922 -0.3929  0.4797
12518TIP3    H158969   4.920   1.137   3.021  1.6148  1.3231  1.0459
12518TIP3    H258970   4.836   1.226   2.932  0.7506  0.3920  0.9209
12519TIP3   OH258971   2.274   2.704  12.372  0.7258  0.1576 -0.0001
12519TIP3    H158972   2.290   2.610  12.364 -2.2125 -0.3702 -0.1390
12519TIP3    H258973   2.263   2.719  12.466  2.1679  0.5609  0.1176
12520TIP3   OH258974   1.896   1.894  14.536  0.2895 -0.2391 -0.0512
12520TIP3    H158975   1.967   1.958  14.546 -0.1452  0.1548  0.5413
12520TIP3    H258976   1.888   1.881  14.441  2.2019 -1.4667 -0.0686
12521TIP3   OH258977   4.796   4.746  15.017  0.1199 -0.4646 -0.1071
12521TIP3    H158978   4.862   4.719  15.080  0.3110  0.2904  0.0208
12521TIP3    H258979   4.832   4.720  14.932 -1.0208 -3.2631  0.2242
12522TIP3   OH258980   6.080   5.296   4.729  0.7028  0.4139 -0.4597
12522TIP3    H158981   6.032   5.216   4.707 -0.0930  0.8193 -0.2042
12522TIP3    H258982   6.173   5.271   4.720  0.5226 -1.0630  1.4331
12523TIP3   OH258983   0.635   5.245  13.323 -0.8394  0.0483 -0.3893
12523TIP3    H158984   0.621   5.267  13.230  0.9901 -0.0043 -0.6867
12523TIP3    H258985   0.593   5.317  13.370 -0.7761  0.6898 -1.2853
12524TIP3   OH258986   3.066   1.315   0.644 -0.1373  1.1320  0.4250
12524TIP3    H158987   3.098   1.224   0.642  0.0319  1.1876  0.6170
12524TIP3    H258988   2.974   1.308   0.620  0.7826  1.3278 -3.3940
12525TIP3   OH258989   5.085   2.750   4.904  0.1736  0.2548  0.8554
12525TIP3    H158990   5.167   2.715   4.939 -0.3962 -0.8136  1.1729
12525TIP3    H258991   5.017   2.693   4.941 -0.7887  1.6492  1.2906
12526TIP3   OH258992   5.166   6.345  15.026 -0.4194 -0.2643  0.4763
12526TIP3    H158993   5.137   6.328  15.116 -1.1583  0.7533  0.4465
12526TIP3    H258994   5.261   6.333  15.028 -0.4576 -0.4188  1.3605
12527TIP3   OH258995   6.370   1.841   2.264 -0.2043 -0.1379 -0.1321
12527TIP3    H158996   6.319   1.762   2.283 -0.6844  0.4778  1.2137
12527TIP3    H258997   6.310   1.900   2.219  0.3282 -0.7599 -1.6958
12528TIP3   OH258998   5.747   0.143   4.774  0.4568 -0.2536  0.3105
12528TIP3    H158999   5.791   0.208   4.829  1.6107 -0.1013 -0.7594
12528TIP3    H259000   5.775   0.164   4.685  0.8486 -2.1895 -0.0547
12529TIP3   OH259001   5.704   3.588  13.840 -0.3337 -0.2547  0.8054
12529TIP3    H159002   5.785   3.537  13.842  0.2868  0.7242  2.1778
12529TIP3    H259003   5.634   3.524  13.828  0.6018 -1.1729  0.2048
12530TIP3   OH259004   1.799   2.610  15.490  0.1252  0.0653 -0.1829
12530TIP3    H159005   1.717   2.599  15.538 -0.3586  2.0528 -0.4997
12530TIP3    H259006   1.853   2.665  15.546 -0.6755  2.9384 -2.0741
12531TIP3   OH259007   4.144   0.699  12.663 -0.0767  0.5020 -0.1286
12531TIP3    H159008   4.157   0.657  12.577 -0.1608  1.2537 -0.5087
12531TIP3    H259009   4.065   0.751  12.652  0.1965  0.9965  0.2583
12532TIP3   OH259010   3.804   0.804   0.448  0.5708  0.1490 -0.3384
12532TIP3    H159011   3.807   0.708   0.446  0.7687  0.1720 -0.9915
12532TIP3    H259012   3.711   0.824   0.461  0.8549 -0.1741  2.4582
12533TIP3   OH259013   6.751   0.547   2.421  0.7742  0.1050 -0.3658
12533TIP3    H159014   6.801   0.567   2.500 -0.6321  0.6210  0.4137
12533TIP3    H259015   6.795   0.472   2.382  1.7491  0.1349  0.6680
12534TIP3   OH259016   6.381   2.682   1.603 -0.1792 -0.3389  0.2418
12534TIP3    H159017   6.347   2.604   1.648  0.0597 -0.6833 -0.1704
12534TIP3    H259018   6.434   2.726   1.670  0.7418 -1.2192  0.1112
12535TIP3   OH259019   0.059   0.959  14.573 -0.1525 -0.1702  0.9756
12535TIP3    H159020   0.059   1.017  14.649 -1.2277  1.5675 -0.3074
12535TIP3    H259021   0.025   1.013  14.502 -1.8814 -2.5639 -0.1032
12536TIP3   OH259022   6.443   5.885   1.373 -0.4453 -0.2278  0.8009
12536TIP3    H159023   6.456   5.960   1.314 -0.4563  0.0562  1.1533
12536TIP3    H259024   6.501   5.817   1.340 -0.7248 -0.1971  0.2419
12537TIP3   OH259025   0.321   1.970  13.749  0.5631 -0.0065 -0.2991
12537TIP3    H159026   0.276   2.049  13.720  0.4933 -0.4729 -1.4971
12537TIP3    H259027   0.290   1.955  13.838 -0.8837  0.2455 -0.7521
12538TIP3   OH259028   6.070   0.176   1.173  0.2929  0.9921  0.0372
12538TIP3    H159029   6.159   0.158   1.205 -0.3052  0.7363  1.6146
12538TIP3    H259030   6.074   0.158   1.079  1.5480 -0.4599  0.3412
12539TIP3   OH259031   1.533   0.044  17.139  0.4416  0.4726 -0.0175
12539TIP3    H159032   1.627   0.055  17.155 -0.0496  2.3445  1.7343
12539TIP3    H259033   1.514  -0.046  17.168  1.3048  0.7974  1.6119
12540TIP3   OH259034   2.492   6.787   3.731  0.2356  0.2306 -0.2289
12540TIP3    H159035   2.492   6.718   3.798 -0.0771 -0.2096 -0.6763
12540TIP3    H259036   2.406   6.828   3.739  0.1343  0.0662 -0.4721
12541TIP3   OH259037   6.464   6.532   2.714  0.2087 -0.4108 -0.3023
12541TIP3    H159038   6.525   6.593   2.755 -0.0375 -0.2945 -0.1048
12541TIP3    H259039   6.493   6.526   2.623  1.3982 -1.4623  0.1291
12542TIP3   OH259040   5.642   2.771   1.436 -0.5250 -0.1146  0.2000
12542TIP3    H159041   5.721   2.717   1.434  0.4641  1.1187  2.7945
12542TIP3    H259042   5.631   2.800   1.346  1.6980 -0.7133 -0.3174
12543TIP3   OH259043   2.528   1.571   2.003  0.2507 -0.2427 -0.3568
12543TIP3    H159044   2.564   1.541   2.086  1.3185  2.2297  0.1335
12543TIP3    H259045   2.605   1.584   1.947 -0.1791  1.2646 -0.6247
12544TIP3   OH259046   4.515   6.737  13.952  0.1801  0.2047 -0.2640
12544TIP3    H159047   4.467   6.805  13.904  1.8528  0.1666 -2.0749
12544TIP3    H259048   4.497   6.656  13.904 -0.3204 -0.3174  0.7914
12545TIP3   OH259049   3.685   3.276   1.220 -0.6434 -0.6176 -0.5104
12545TIP3    H159050   3.739   3.303   1.146 -0.1123 -0.2063  0.0277
12545TIP3    H259051   3.747   3.245   1.286 -0.9578  1.0549  0.6102
12546TIP3   OH259052   2.327   5.071  13.107  0.5419 -0.1426 -0.5168
12546TIP3    H159053   2.391   5.015  13.150  0.8454 -0.9445 -1.9737
12546TIP3    H259054   2.257   5.082  13.171  0.8195 -1.6083  0.0398
12547TIP3   OH259055   3.378   4.885   5.029  0.8620 -0.2325 -0.0032
12547TIP3    H159056   3.363   4.820   4.960  1.8242  0.3585 -0.7816
12547TIP3    H259057   3.290   4.916   5.052  0.5884  0.2104 -1.5997
12548TIP3   OH259058   5.092   1.518   6.101  0.1141  0.3630  0.2944
12548TIP3    H159059   5.002   1.544   6.121  0.0387  0.1629  0.2092
12548TIP3    H259060   5.114   1.452   6.167  0.1137  0.2319  0.1642
12549TIP3   OH259061   5.378   1.375   0.802  0.1415  0.2394  0.5410
12549TIP3    H159062   5.381   1.463   0.764  0.0952 -0.1470 -0.3530
12549TIP3    H259063   5.359   1.317   0.728  0.2759 -0.5356  1.1099
12550TIP3   OH259064   4.100   5.649   6.531  0.3060  0.0121 -0.9113
12550TIP3    H159065   4.172   5.587   6.542 -0.1100 -0.5481 -1.3115
12550TIP3    H259066   4.039   5.605   6.472 -0.7422  0.1650  0.0434
12551TIP3   OH259067   3.695   5.165   3.974 -0.4504 -0.2243  0.2695
12551TIP3    H159068   3.728   5.078   3.953 -0.2139 -0.1886  0.4947
12551TIP3    H259069   3.733   5.222   3.907 -0.3751 -0.2478  0.2922
12552TIP3   OH259070   4.538   1.388   5.995 -0.2670  0.0628  0.2889
12552TIP3    H159071   4.516   1.385   6.088 -1.8783 -0.6276 -0.1033
12552TIP3    H259072   4.559   1.480   5.978 -0.5805  0.3031  1.2027
12553TIP3   OH259073   6.754   2.868  11.897  0.1349  0.0299 -0.0698
12553TIP3    H159074   6.660   2.852  11.893  0.1661 -0.2435  0.2759
12553TIP3    H259075   6.779   2.888  11.807 -0.0932 -0.7644 -0.3124
12554TIP3   OH259076   2.144   5.130  16.059 -0.0505 -0.6195 -0.1368
12554TIP3    H159077   2.161   5.223  16.042  0.5148 -0.8467 -0.8949
12554TIP3    H259078   2.231   5.093  16.076 -0.1337 -1.2102 -0.9375
12555TIP3   OH259079   3.831   1.779  11.156  0.2985  0.0050  0.4131
12555TIP3    H159080   3.823   1.704  11.096  0.8397 -1.3381  1.9626
12555TIP3    H259081   3.923   1.804  11.150  0.5151 -0.5838  1.1893
12556TIP3   OH259082   4.685   3.280  13.221 -0.0389 -0.5003  0.1074
12556TIP3    H159083   4.630   3.280  13.300  0.7542  0.9555  0.6582
12556TIP3    H259084   4.752   3.215  13.239  1.4057  1.3497  1.5338
12557TIP3   OH259085   4.128   2.582  13.649  0.2294  0.0564 -0.2919
12557TIP3    H159086   4.216   2.550  13.672  0.0327 -0.8231 -0.7248
12557TIP3    H259087   4.070   2.537  13.710  0.1040  0.8851  0.2078
12558TIP3   OH259088   2.893   2.902  15.822  0.1856 -0.1247 -0.2908
12558TIP3    H159089   2.935   2.961  15.884  0.1491 -0.7938  0.3732
12558TIP3    H259090   2.963   2.879  15.760  0.7049 -0.9459  0.5959
12559TIP3   OH259091   2.690   4.142  16.238 -0.2399  0.1602  0.1165
12559TIP3    H159092   2.616   4.120  16.182  0.6198 -0.6075 -0.7147
12559TIP3    H259093   2.765   4.146  16.179  0.2793  1.5658  0.8537
12560TIP3   OH259094   5.215   3.458   1.411 -0.3421 -0.1453  0.3380
12560TIP3    H159095   5.296   3.450   1.460  0.3628 -1.8162 -1.0428
12560TIP3    H259096   5.239   3.507   1.332  0.0155 -3.1127 -1.4727
12561TIP3   OH259097   6.396   0.964  16.846 -0.0033  0.4508  0.1309
12561TIP3    H159098   6.365   0.874  16.855  1.6582 -0.3332 -1.6755
12561TIP3    H259099   6.437   0.984  16.930  0.4747 -0.8415  0.2204
12562TIP3   OH259100   4.921   3.866   4.187  0.2537 -0.7763 -0.0518
12562TIP3    H159101   4.901   3.777   4.157 -2.9004  0.5575 -2.2042
12562TIP3    H259102   4.855   3.883   4.255 -0.3278  0.5137 -0.9211
12563TIP3   OH259103   1.686   2.928   1.473  0.1001  1.0431  0.2470
12563TIP3    H159104   1.690   2.850   1.529  0.3054  0.7715 -0.1505
12563TIP3    H259105   1.592   2.938   1.454  0.2382 -0.0610 -1.0576
12564TIP3   OH259106   2.704   5.114  16.789 -0.4843 -0.3926  0.6679
12564TIP3    H159107   2.682   5.052  16.859 -2.4893 -0.5411 -0.0726
12564TIP3    H259108   2.627   5.170  16.782  0.5311  0.9138 -0.0339
12565TIP3   OH259109   3.303   0.658   3.932  0.3915  0.2270  0.2794
12565TIP3    H159110   3.296   0.590   3.864 -2.2755 -0.6211  1.3214
12565TIP3    H259111   3.381   0.707   3.909 -0.5087  0.0385 -3.5084
12566TIP3   OH259112   1.165   6.244   1.251 -0.7145 -0.0980  0.1890
12566TIP3    H159113   1.189   6.200   1.333  0.1587  0.1599  0.0749
12566TIP3    H259114   1.226   6.210   1.186  0.4263  1.7892  0.2452
12567TIP3   OH259115   0.408   0.490   2.995 -0.6753  0.1444  0.6615
12567TIP3    H159116   0.483   0.439   2.964 -0.6088  0.4341  0.3401
12567TIP3    H259117   0.441   0.536   3.072  0.4952  2.9266 -1.4418
12568TIP3   OH259118   5.508   2.624  10.905 -0.5230 -0.4048 -0.0879
12568TIP3    H159119   5.429   2.677  10.891 -0.8152 -0.8995 -0.3246
12568TIP3    H259120   5.479   2.534  10.891  0.3564 -0.4975 -1.4585
12569TIP3   OH259121   0.039   0.267  12.814  0.0088  0.4928 -0.0497
12569TIP3    H159122   0.131   0.267  12.838 -0.1705  0.3113  0.6352
12569TIP3    H259123   0.007   0.180  12.839  0.0236 -0.0312 -1.7377
12570TIP3   OH259124   3.977   4.307  12.871  0.4466 -0.6126  0.4531
12570TIP3    H159125   3.885   4.324  12.852  0.3216  0.5086  1.9936
12570TIP3    H259126   3.983   4.306  12.967  2.2074  0.3247  0.3805
12571TIP3   OH259127   6.463   6.772  14.828  0.7708  0.3433  0.3503
12571TIP3    H159128   6.502   6.854  14.796  0.9666 -0.0012 -0.3061
12571TIP3    H259129   6.538   6.720  14.856  0.6360  0.4368  0.8925
12572TIP3   OH259130   1.773   3.197  12.591 -0.0858 -0.3149 -0.2466
12572TIP3    H159131   1.678   3.209  12.591 -0.1808 -1.0466  0.1075
12572TIP3    H259132   1.807   3.277  12.552 -0.7416  0.8135  1.4375
12573TIP3   OH259133   1.914   0.828  15.450 -0.4774 -0.3791 -0.2069
12573TIP3    H159134   1.940   0.918  15.470 -1.4009  0.0380 -0.8418
12573TIP3    H259135   1.827   0.837  15.411 -0.6931 -1.5725 -0.0080
12574TIP3   OH259136   2.495   0.214  14.005  0.2171 -0.4418 -0.8513
12574TIP3    H159137   2.495   0.285  14.070  0.4563 -1.2845  0.0911
12574TIP3    H259138   2.413   0.224  13.958 -0.2522 -0.1827  0.0058
12575TIP3   OH259139   1.402   6.525  14.964  0.3016 -0.0855 -0.9714
12575TIP3    H159140   1.368   6.475  15.038  0.5443  3.4380  1.7036
12575TIP3    H259141   1.324   6.561  14.921  0.2567  0.4270 -0.4735
12576TIP3   OH259142   2.617   6.475   0.931 -0.1931  0.3517 -0.3343
12576TIP3    H159143   2.705   6.448   0.956 -0.7081 -0.8401  0.2512
12576TIP3    H259144   2.611   6.451   0.838  0.2183  0.7467 -0.4628
12577TIP3   OH259145   6.023   0.390   3.207  0.1379 -0.0556 -0.2426
12577TIP3    H159146   6.024   0.403   3.113  1.1070 -0.8998 -0.3620
12577TIP3    H259147   5.962   0.456   3.240 -0.6641 -0.1578 -1.5083
12578TIP3   OH259148   3.146   2.751   5.760  0.1016  0.3128 -0.3769
12578TIP3    H159149   3.227   2.794   5.785  1.9731 -2.4772 -1.3688
12578TIP3    H259150   3.150   2.665   5.802 -1.5834 -0.4694 -1.7309
12579TIP3   OH259151   3.619   0.669  15.563  0.1688 -0.8970 -0.3756
12579TIP3    H159152   3.610   0.656  15.469 -0.1327  1.0768 -0.6490
12579TIP3    H259153   3.627   0.764  15.573 -0.5847 -1.0215  1.6544
12580TIP3   OH259154   6.504   2.759  14.679 -0.2773 -0.2974 -0.2819
12580TIP3    H159155   6.478   2.848  14.654 -0.5616 -0.6540 -1.2702
12580TIP3    H259156   6.596   2.752  14.653  0.0997  0.1219  0.9279
12581TIP3   OH259157   2.669   0.516   6.524  0.1851 -0.1676 -0.3173
12581TIP3    H159158   2.751   0.472   6.502  0.4224  0.7024 -1.1682
12581TIP3    H259159   2.602   0.450   6.506  0.6070 -0.4932 -0.7268
12582TIP3   OH259160   2.687   6.137  14.897  0.3948  0.3026  0.6749
12582TIP3    H159161   2.745   6.178  14.833  0.2441 -0.6183 -0.0567
12582TIP3    H259162   2.687   6.045  14.874 -0.2712  0.0787  1.5358
12583TIP3   OH259163   2.875   2.055  14.536  0.2126  0.2797  0.0795
12583TIP3    H159164   2.823   2.021  14.463 -1.4638  1.4027  0.7293
12583TIP3    H259165   2.927   1.981  14.565  2.0858  0.1662 -3.2498
12584TIP3   OH259166   6.170   0.258  14.606  0.1584 -0.3863 -0.1261
12584TIP3    H159167   6.148   0.173  14.567 -1.6007 -0.1730  0.3911
12584TIP3    H259168   6.118   0.262  14.687  0.6798  0.9322  0.1547
12585TIP3   OH259169   0.152   0.654   0.134 -0.0370  0.3819 -0.0092
12585TIP3    H159170   0.238   0.671   0.171  1.7083 -3.6906 -1.8637
12585TIP3    H259171   0.163   0.667   0.040 -1.6270  0.4277 -0.2045
12586TIP3   OH259172   0.974   2.800  15.844 -0.1218  0.1835  0.0761
12586TIP3    H159173   1.030   2.810  15.921  0.2758  0.8051 -0.2891
12586TIP3    H259174   0.992   2.712  15.813  0.1530  0.1366  0.3588
12587TIP3   OH259175   1.296   3.935  15.112  0.5340 -0.1316 -0.1109
12587TIP3    H159176   1.325   3.878  15.041  1.1511 -0.3778  0.3357
12587TIP3    H259177   1.232   3.883  15.160  0.2413 -0.0273 -0.3928
12588TIP3   OH259178   6.153   0.109  13.552  0.0795  0.1224 -0.1004
12588TIP3    H159179   6.061   0.089  13.567  0.3333  0.4827  2.0276
12588TIP3    H259180   6.178   0.166  13.625  2.0366 -0.1229 -0.5487
12589TIP3   OH259181   1.370   4.024   6.301  0.3424  0.0899 -0.1916
12589TIP3    H159182   1.347   3.931   6.298  2.2749 -0.5127  2.1236
12589TIP3    H259183   1.289   4.070   6.278 -1.4708 -2.0875  1.6473
12590TIP3   OH259184   3.720   0.120   0.876 -0.0826 -0.0658 -0.2411
12590TIP3    H159185   3.645   0.062   0.887  0.6110 -0.9371 -0.0329
12590TIP3    H259186   3.777   0.075   0.813 -0.2347  1.0929 -1.2348
12591TIP3   OH259187   3.004   0.986   4.917 -0.3228 -0.0148 -0.3355
12591TIP3    H159188   3.004   1.032   5.001  0.1121 -2.0111  0.8160
12591TIP3    H259189   3.095   0.955   4.908 -0.6604 -0.8476 -0.9310
12592TIP3   OH259190   0.780   3.751  11.321 -0.5974  0.6490 -0.9442
12592TIP3    H159191   0.743   3.834  11.290 -1.7768 -0.7455 -3.4498
12592TIP3    H259192   0.873   3.758  11.303 -0.3085  2.3702  1.1003
12593TIP3   OH259193   3.523   2.127   0.894 -0.2917  0.4491 -0.3649
12593TIP3    H159194   3.555   2.040   0.918 -0.8517  0.5011  0.5923
12593TIP3    H259195   3.444   2.110   0.843 -0.2349  0.3941 -0.4349
12594TIP3   OH259196   2.253   6.604  13.286  0.3614 -0.0393 -0.0270
12594TIP3    H159197   2.219   6.681  13.330  0.4052  0.0947 -0.2266
12594TIP3    H259198   2.276   6.635  13.198  1.1874 -0.0780  0.1698
12595TIP3   OH259199   6.640   6.516   4.894  0.1504  0.3190  0.1312
12595TIP3    H159200   6.650   6.601   4.936  0.7362 -0.0544  0.7653
12595TIP3    H259201   6.694   6.457   4.946  1.2972 -0.0641 -1.4319
12596TIP3   OH259202   1.438   6.688   6.380  0.3620  0.0511 -0.3215
12596TIP3    H159203   1.472   6.607   6.340 -0.6069 -1.5661  2.0225
12596TIP3    H259204   1.510   6.719   6.434  0.4802  0.3541 -0.6546
12597TIP3   OH259205   3.605   1.916   3.750  0.7675  0.3904  0.0804
12597TIP3    H159206   3.534   1.967   3.712 -0.0135 -0.6207  0.1569
12597TIP3    H259207   3.626   1.961   3.832 -1.3251 -0.5776  1.1757
12598TIP3   OH259208   2.501   4.098  11.898  0.2474 -0.1439  0.0260
12598TIP3    H159209   2.553   4.021  11.875 -0.3193 -0.5027 -0.0593
12598TIP3    H259210   2.442   4.068  11.967 -0.0569  0.1836 -0.0883
12599TIP3   OH259211   1.262   3.662   6.336  0.4555 -0.1756  0.4373
12599TIP3    H159212   1.345   3.693   6.374 -0.2392  2.2381  0.0567
12599TIP3    H259213   1.243   3.724   6.266 -1.0259 -1.4980 -0.3697
12600TIP3   OH259214   4.748   2.669   0.161 -0.2060  0.1018 -0.2140
12600TIP3    H159215   4.738   2.580   0.129  0.6733  0.3288 -1.1265
12600TIP3    H259216   4.737   2.662   0.256  0.0071 -0.9879 -0.2740
12601TIP3   OH259217   1.164   0.253  13.414  0.3472 -0.0006 -0.6335
12601TIP3    H159218   1.168   0.268  13.320 -0.4044  0.3735 -0.6081
12601TIP3    H259219   1.075   0.277  13.438  0.3056 -0.8226  0.0480
12602TIP3   OH259220   2.402   2.560   4.048  0.0676 -0.7194  0.3695
12602TIP3    H159221   2.311   2.553   4.020  0.1838  0.8045 -0.4710
12602TIP3    H259222   2.398   2.594   4.137 -0.1829 -0.3168  0.2061
12603TIP3   OH259223   0.346   4.545   3.508 -0.4773 -0.0729 -0.4705
12603TIP3    H159224   0.296   4.519   3.585 -0.4027  0.0631 -0.3774
12603TIP3    H259225   0.381   4.631   3.529 -0.5598  0.0201 -0.7062
12604TIP3   OH259226   0.811   1.690  11.383  0.0686 -0.0814 -0.1196
12604TIP3    H159227   0.889   1.738  11.356 -0.7010  0.3879 -1.5739
12604TIP3    H259228   0.818   1.606  11.338  0.5438 -0.6728  1.0466
12605TIP3   OH259229   4.024   2.711  16.369  0.8125  0.0652 -0.0538
12605TIP3    H159230   4.059   2.626  16.344  1.3355  0.7004 -1.5494
12605TIP3    H259231   3.934   2.710  16.338  1.6710  1.1300 -2.7867
12606TIP3   OH259232   5.352   0.922   0.831  0.5252 -1.0365  0.1551
12606TIP3    H159233   5.288   0.987   0.862  0.6111 -0.5754 -0.6215
12606TIP3    H259234   5.311   0.838   0.848 -0.6354 -0.7252 -1.0591
12607TIP3   OH259235   1.235   4.842   5.881  0.1099  0.0984 -0.5426
12607TIP3    H159236   1.310   4.843   5.942 -1.2231 -0.2194  1.1354
12607TIP3    H259237   1.201   4.931   5.884 -0.7607 -0.2502  0.2149
12608TIP3   OH259238   4.811   1.607   5.633 -0.9020 -0.3997  0.2593
12608TIP3    H159239   4.880   1.560   5.680 -0.1284  1.7104  1.3223
12608TIP3    H259240   4.828   1.589   5.541 -0.1440 -1.5431  0.6107
12609TIP3   OH259241   3.953   3.795   2.923  0.0917  0.5003 -0.1143
12609TIP3    H159242   3.995   3.815   3.006 -0.4189 -0.5415  0.3969
12609TIP3    H259243   3.881   3.737   2.945 -0.7153  1.0734 -1.1597
12610TIP3   OH259244   5.644   6.387  17.089 -0.0831 -0.5476  0.1263
12610TIP3    H159245   5.641   6.344  17.003  0.6642  0.2158 -0.2868
12610TIP3    H259246   5.702   6.333  17.141 -0.9199 -1.2837  0.3028
12611TIP3   OH259247   2.307   2.111   4.513  0.4923  0.1958 -0.4299
12611TIP3    H159248   2.261   2.194   4.528  1.3619  0.7032 -0.5188
12611TIP3    H259249   2.374   2.108   4.582  1.6198  0.4267 -1.4966
12612TIP3   OH259250   1.516   6.485   1.582  0.1002  0.1872 -0.3777
12612TIP3    H159251   1.430   6.455   1.554 -0.0483  0.0986  0.1799
12612TIP3    H259252   1.524   6.572   1.544  0.7485 -0.7396 -2.4523
12613TIP3   OH259253   0.963   0.698  15.989 -0.2233  0.3467  0.3249
12613TIP3    H159254   0.970   0.700  16.085  0.1903  1.0302  0.2809
12613TIP3    H259255   1.042   0.653  15.960  0.2420  1.2143  0.2421
12614TIP3   OH259256   2.287   4.735  12.414 -0.6760 -0.0074  0.2966
12614TIP3    H159257   2.331   4.813  12.380  0.8811 -0.0026  2.2018
12614TIP3    H259258   2.337   4.662  12.377 -0.8808 -0.0707  0.1434
12615TIP3   OH259259   5.343   3.029  15.808 -0.3448 -0.2276  0.3808
12615TIP3    H159260   5.421   3.085  15.808 -0.3763 -0.1775 -0.4928
12615TIP3    H259261   5.284   3.071  15.745  0.8873 -2.9687 -2.7508
12616TIP3   OH259262   4.394   3.218  10.549 -0.7584  0.0250 -0.4619
12616TIP3    H159263   4.481   3.193  10.578 -1.0315  0.6601  0.9812
12616TIP3    H259264   4.365   3.282  10.614 -1.1769  1.9700 -2.5035
12617TIP3   OH259265   0.325   0.893  14.670  0.1953 -0.1817  0.0550
12617TIP3    H159266   0.383   0.863  14.600  0.5587 -0.9340  0.6633
12617TIP3    H259267   0.237   0.882  14.634  0.3936 -0.0395 -0.4841
12618TIP3   OH259268   2.328   4.771   4.044 -0.2023 -0.1390  0.4032
12618TIP3    H159269   2.323   4.855   4.090 -0.0046  0.5669 -0.8405
12618TIP3    H259270   2.422   4.756   4.034 -0.2406 -0.4605  0.5197
12619TIP3   OH259271   5.447   1.844   2.257 -0.5360  0.8654  0.0023
12619TIP3    H159272   5.438   1.834   2.351 -0.2113  0.1994 -0.0302
12619TIP3    H259273   5.482   1.932   2.245  1.1112  0.3262  0.6187
12620TIP3   OH259274   2.401   4.500   3.269 -0.2907 -0.0622 -0.4685
12620TIP3    H159275   2.483   4.457   3.244  0.0325  0.9074 -1.0827
12620TIP3    H259276   2.376   4.457   3.350 -0.9695 -2.7805 -2.0462
12621TIP3   OH259277   3.297   0.365  16.785  0.0610 -0.4363  0.3780
12621TIP3    H159278   3.240   0.410  16.723  0.7356 -0.7563 -0.4918
12621TIP3    H259279   3.271   0.398  16.871 -0.5421  0.3882 -0.1186
12622TIP3   OH259280   4.816   1.350  12.556 -0.1066  0.2992 -0.1260
12622TIP3    H159281   4.781   1.304  12.632 -2.5262  1.5694 -0.4247
12622TIP3    H259282   4.896   1.303  12.533 -0.5318 -1.4152  1.8675
12623TIP3   OH259283   6.624   3.671  16.319  0.0892  0.5257  0.3189
12623TIP3    H159284   6.603   3.740  16.382  1.6414 -0.1857  1.6492
12623TIP3    H259285   6.699   3.705  16.271  0.1875  0.2017  0.2452
12624TIP3   OH259286   3.183   4.829   2.479  0.2114 -0.4665 -0.9230
12624TIP3    H159287   3.183   4.817   2.574 -0.8757  1.1246 -0.7023
12624TIP3    H259288   3.275   4.827   2.454  0.6670  1.5380  0.5074
12625TIP3   OH259289   3.681   5.609  17.073 -0.0149  0.0964  0.1622
12625TIP3    H159290   3.727   5.683  17.114  1.2971  0.3003 -1.6083
12625TIP3    H259291   3.589   5.628  17.087  0.3668 -0.1679  3.5466
12626TIP3   OH259292   1.274   6.572   4.739  0.0587  0.0172 -0.1292
12626TIP3    H159293   1.247   6.649   4.688 -0.5629 -0.1508 -0.0608
12626TIP3    H259294   1.369   6.569   4.730 -0.0108  0.2096 -0.9729
12627TIP3   OH259295   1.347   2.957   3.219 -0.1593  0.0653 -0.2462
12627TIP3    H159296   1.343   2.913   3.304 -2.2579  1.1286  0.2299
12627TIP3    H259297   1.363   3.049   3.240 -0.6176  0.3217 -0.9998
12628TIP3   OH259298   2.789   5.901  10.995 -0.1716  0.2522  0.3604
12628TIP3    H159299   2.845   5.863  10.927 -0.1869 -1.2427  1.1774
12628TIP3    H259300   2.829   5.986  11.013 -0.3882  0.8293 -1.7888
12629TIP3   OH259301   2.485   2.998  11.861 -0.1946 -0.3980  0.3246
12629TIP3    H159302   2.573   3.022  11.891 -1.1617  0.1149  2.9004
12629TIP3    H259303   2.470   3.051  11.783  1.1044  0.8663  0.9146
12630TIP3   OH259304   2.830   1.572   3.912  0.2588 -0.0051  0.1028
12630TIP3    H159305   2.830   1.494   3.856  3.8858 -0.7878  1.0451
12630TIP3    H259306   2.755   1.560   3.970  0.7492 -2.8029  0.2279
12631TIP3   OH259307   3.911   4.705   3.058  0.0091  0.4239 -0.1505
12631TIP3    H159308   3.849   4.668   3.122  0.4588  0.6347  0.4065
12631TIP3    H259309   3.858   4.766   3.006 -0.1047  1.1097  0.7636
12632TIP3   OH259310   1.925   4.534  10.301 -0.5218  0.5108 -0.4411
12632TIP3    H159311   1.836   4.551  10.270 -1.2258  1.7835  2.1472
12632TIP3    H259312   1.913   4.487  10.383  1.1298  2.1497  0.7842
12633TIP3   OH259313   0.775   4.589  11.785  0.1561 -0.6727  0.3309
12633TIP3    H159314   0.775   4.524  11.855  0.3019 -0.6541  0.3460
12633TIP3    H259315   0.724   4.549  11.715  4.1973 -2.7817 -1.5552
12634TIP3   OH259316   2.545   1.242  11.655 -0.1342  0.6047 -0.0467
12634TIP3    H159317   2.487   1.232  11.579 -0.5720  2.7431 -0.0207
12634TIP3    H259318   2.632   1.256  11.617 -0.2078  0.8405 -0.1240
12635TIP3   OH259319   0.624   0.928  14.750  0.2136 -0.1778  0.7775
12635TIP3    H159320   0.687   0.915  14.679  0.9450  1.4015  1.1028
12635TIP3    H259321   0.586   0.842  14.765 -0.7429 -0.3221 -2.2630
12636TIP3   OH259322   1.057   1.201   1.814 -0.7511  0.4833 -0.4150
12636TIP3    H159323   1.082   1.261   1.745  0.5993 -0.6021 -0.8823
12636TIP3    H259324   1.139   1.161   1.842 -1.6837 -1.4748 -0.4325
12637TIP3   OH259325   4.128   1.155   0.695  0.2282 -0.3498 -0.6311
12637TIP3    H159326   4.039   1.188   0.680  0.3839  0.7366  0.7607
12637TIP3    H259327   4.153   1.114   0.612 -1.0790  0.4907 -1.4467
12638TIP3   OH259328   4.453   0.665   6.155 -0.5841 -0.5020 -0.0106
12638TIP3    H159329   4.433   0.749   6.197  0.8829 -1.4251  2.6609
12638TIP3    H259330   4.383   0.606   6.185 -0.3380 -0.8055 -0.0374
12639TIP3   OH259331   4.926   1.922  11.566  0.0225 -0.2648 -0.5607
12639TIP3    H159332   5.015   1.891  11.554  0.0192 -1.1336  1.3390
12639TIP3    H259333   4.933   1.988  11.635 -0.6873  0.2241 -0.9560
12640TIP3   OH259334   2.511   1.785   4.539 -0.0177  0.3468 -0.5334
12640TIP3    H159335   2.421   1.765   4.562  0.0563  2.1107  1.4009
12640TIP3    H259336   2.560   1.771   4.620  1.4104 -0.2915 -1.4791
12641TIP3   OH259337   1.661   4.542   0.317 -0.5335 -0.3973  0.4567
12641TIP3    H159338   1.664   4.491   0.236  0.1098 -0.1268  0.3070
12641TIP3    H259339   1.728   4.503   0.373 -1.0701 -0.6683  0.9113
12642TIP3   OH259340   4.159   3.217   0.115  0.2240 -0.3509 -0.1511
12642TIP3    H159341   4.191   3.241   0.028 -0.0641 -0.7468 -0.3687
12642TIP3    H259342   4.113   3.134   0.102 -2.0342  0.8542 -0.0952
12643TIP3   OH259343   5.560   1.857   5.651 -0.4225 -0.3381 -0.3585
12643TIP3    H159344   5.591   1.767   5.657  1.2198  0.2534  0.2962
12643TIP3    H259345   5.537   1.881   5.741  0.4816  0.3548 -0.3099
12644TIP3   OH259346   5.543   4.974   0.731 -0.7154 -0.4169 -0.2903
12644TIP3    H159347   5.586   5.032   0.668  1.4216 -0.7707  0.8018
12644TIP3    H259348   5.560   4.886   0.697 -1.6124 -0.5095 -0.4944
12645TIP3   OH259349   5.387   2.117   0.864 -0.0958  0.7132 -0.3169
12645TIP3    H159350   5.440   2.194   0.883  1.0003 -0.2706  0.6849
12645TIP3    H259351   5.365   2.125   0.771  1.4660  1.3291 -0.6469
12646TIP3   OH259352   0.368   0.403  14.842  0.2239 -1.1240 -0.0660
12646TIP3    H159353   0.386   0.495  14.861 -1.8043 -0.6089 -0.5015
12646TIP3    H259354   0.409   0.355  14.913 -0.8688  0.2919  1.5593
12647TIP3   OH259355   5.021   6.135  17.105 -0.0379 -0.1744 -0.0575
12647TIP3    H159356   4.972   6.058  17.133  1.8827 -1.1539  0.7087
12647TIP3    H259357   5.020   6.193  17.181  0.7113 -0.5816  0.2774
12648TIP3   OH259358   2.793   1.968  12.812  0.3231  0.6149  0.2107
12648TIP3    H159359   2.774   2.029  12.883 -2.6960 -0.9751  0.8180
12648TIP3    H259360   2.759   2.011  12.734 -0.0870  0.5493  0.3520
12649TIP3   OH259361   5.923   3.088  16.503 -0.1403  0.0423  0.2564
12649TIP3    H159362   5.839   3.090  16.550 -0.4269  1.1411 -0.3011
12649TIP3    H259363   5.909   3.143  16.426  1.0983  0.2358  0.1608
12650TIP3   OH259364   6.137   1.971   3.016 -0.5256  0.0438 -0.1439
12650TIP3    H159365   6.114   1.883   3.044 -2.2133  0.7651  0.8074
12650TIP3    H259366   6.162   1.962   2.924 -0.4708 -1.4493  0.0110
12651TIP3   OH259367   0.384   6.173   4.306 -0.1203 -0.3630  0.5001
12651TIP3    H159368   0.347   6.259   4.324 -0.9499 -0.3212 -1.3271
12651TIP3    H259369   0.473   6.191   4.276 -0.3447 -0.1322 -0.0266
12652TIP3   OH259370   3.857   3.386  13.682 -0.6150  0.1489 -0.3982
12652TIP3    H159371   3.776   3.366  13.635 -1.0336  0.9913 -0.0465
12652TIP3    H259372   3.905   3.445  13.624 -0.9234  0.8225  0.0298
12653TIP3   OH259373   4.220   3.693   2.861 -0.1418  0.0550 -0.3825
12653TIP3    H159374   4.301   3.643   2.868  0.9107  1.5346 -1.7069
12653TIP3    H259375   4.228   3.760   2.929  0.4839  1.1959 -1.5676
12654TIP3   OH259376   6.083   4.140  15.416 -0.1202 -0.0813  0.4907
12654TIP3    H159377   6.045   4.219  15.455  1.1803  2.3342 -2.9120
12654TIP3    H259378   6.177   4.151  15.425  0.1026 -0.7901 -0.8660
12655TIP3   OH259379   3.842   1.389  11.295 -0.2092 -0.6442  0.1039
12655TIP3    H159380   3.878   1.375  11.383 -1.0311  1.8709  0.8727
12655TIP3    H259381   3.912   1.434  11.247 -0.9926  1.0948  0.5447
12656TIP3   OH259382   2.089   0.879  12.512  0.1521  0.2646 -0.3013
12656TIP3    H159383   2.064   0.946  12.447 -0.4212 -1.1069 -1.5194
12656TIP3    H259384   2.020   0.883  12.577  0.0364  0.7422 -0.4449
12657TIP3   OH259385   4.871   2.489  16.858  0.2172 -0.4087  0.8418
12657TIP3    H159386   4.935   2.556  16.881 -0.3474 -0.4283  2.5420
12657TIP3    H259387   4.787   2.536  16.856  0.0967 -0.6508 -0.0289
12658TIP3   OH259388   4.762   4.831  16.372  0.0563 -0.0056  0.5522
12658TIP3    H159389   4.858   4.833  16.369  0.0182  1.2904 -0.3168
12658TIP3    H259390   4.741   4.746  16.410  1.5299 -0.8604 -0.4856
12659TIP3   OH259391   5.049   6.149   3.353  0.3160 -0.0854 -0.0423
12659TIP3    H159392   4.961   6.159   3.318 -0.1814 -1.0603  0.9050
12659TIP3    H259393   5.038   6.150   3.448  1.2049 -1.1931  0.0841
12660TIP3   OH259394   3.443   2.135   0.396  0.4800 -0.1846 -0.5602
12660TIP3    H159395   3.375   2.070   0.409 -1.7041  1.9675 -0.7268
12660TIP3    H259396   3.459   2.171   0.484  0.6313  0.0113 -0.6669
12661TIP3   OH259397   2.243   1.042   5.751 -0.3869 -0.2822  0.1662
12661TIP3    H159398   2.275   0.969   5.697 -1.5599 -0.1199 -0.7566
12661TIP3    H259399   2.318   1.065   5.805  0.3739 -1.3946 -0.3782
12662TIP3   OH259400   3.579   6.390  13.491  0.5266 -0.6187 -0.0704
12662TIP3    H159401   3.538   6.448  13.427 -1.3437 -1.1226  0.6251
12662TIP3    H259402   3.648   6.442  13.531 -0.5109  0.8237 -0.1223
12663TIP3   OH259403   4.959   4.385  12.144  0.0289 -0.2798  0.2271
12663TIP3    H159404   4.992   4.425  12.224  0.6757 -1.1005  0.3743
12663TIP3    H259405   4.944   4.459  12.085  0.2612  0.2611  0.8356
12664TIP3   OH259406   0.737   4.244   1.310 -0.3472  0.0000  0.4509
12664TIP3    H159407   0.783   4.184   1.368  0.9261 -0.9023 -1.4309
12664TIP3    H259408   0.684   4.187   1.254  1.6074  0.5076 -1.9826
12665TIP3   OH259409   4.221   3.978  13.273  0.4537 -0.3811 -0.2361
12665TIP3    H159410   4.167   4.042  13.227 -0.0624 -1.5490 -1.3086
12665TIP3    H259411   4.257   3.923  13.203  0.3636 -1.6514  0.6867
12666TIP3   OH259412   1.790   5.661  11.821  0.3566  0.3419 -0.1229
12666TIP3    H159413   1.725   5.606  11.777 -0.2274 -1.0272  2.3295
12666TIP3    H259414   1.817   5.725  11.755 -3.7869  1.2285 -1.1225
12667TIP3   OH259415   1.684   2.259   2.243 -0.7206 -0.1080 -0.2150
12667TIP3    H159416   1.667   2.167   2.219  0.0548 -0.4322  0.4517
12667TIP3    H259417   1.632   2.273   2.321 -1.1909  0.1557 -0.5774
12668TIP3   OH259418   0.332   0.197   6.284 -0.4907  0.0129 -0.8011
12668TIP3    H159419   0.389   0.258   6.332  0.8027  0.1749 -2.4805
12668TIP3    H259420   0.254   0.190   6.339  1.6363 -1.2145  2.2320
12669TIP3   OH259421   1.627   5.845   3.796 -0.2043  0.0598 -0.0808
12669TIP3    H159422   1.678   5.906   3.742 -0.6231  1.5984  1.2090
12669TIP3    H259423   1.687   5.821   3.867 -0.1912 -0.6898 -0.3433
12670TIP3   OH259424   0.750   4.363  16.396  0.0512  0.1927 -0.3918
12670TIP3    H159425   0.748   4.268  16.386 -2.5710  0.3817 -1.9098
12670TIP3    H259426   0.813   4.393  16.330 -0.8866 -0.3084 -1.5258
12671TIP3   OH259427   3.291   4.025   0.308 -0.0726  1.1155  0.2009
12671TIP3    H159428   3.261   3.997   0.394 -1.1780 -2.2078 -1.1650
12671TIP3    H259429   3.386   4.028   0.316 -0.0899 -0.2898  1.2682
12672TIP3   OH259430   3.485   0.277   0.969 -0.3329 -0.4749 -0.3350
12672TIP3    H159431   3.486   0.357   1.022 -2.3709 -1.6493  1.5705
12672TIP3    H259432   3.575   0.247   0.968  0.2737  1.2531 -0.1768
12673TIP3   OH259433   1.382   3.041   1.178  0.1085 -0.3502 -0.0776
12673TIP3    H159434   1.305   3.097   1.180  0.1446 -0.3446  2.1633
12673TIP3    H259435   1.453   3.099   1.150  0.2006  0.8573  2.4805
12674TIP3   OH259436   1.957   0.963   5.150 -0.1918 -0.5164  0.2420
12674TIP3    H159437   1.899   0.973   5.226  1.3894 -1.9942  1.6691
12674TIP3    H259438   2.008   1.044   5.148 -0.4030 -0.3752  0.6041
12675TIP3   OH259439   6.390   5.988   0.710  0.1294  0.5276 -0.3491
12675TIP3    H159440   6.464   6.033   0.669  1.3142  0.2670  1.4057
12675TIP3    H259441   6.413   5.988   0.804 -2.8057  1.7815  0.4120
12676TIP3   OH259442   6.192   0.933   0.761  0.2909  0.2227 -0.0075
12676TIP3    H159443   6.154   0.897   0.681  1.2407 -3.1194  0.9935
12676TIP3    H259444   6.116   0.945   0.819 -0.2311  1.4162 -0.9121
12677TIP3   OH259445   1.868   1.797  11.268  0.3373 -1.1781  0.7886
12677TIP3    H159446   1.803   1.866  11.253  2.2033  0.4514  0.0435
12677TIP3    H259447   1.818   1.715  11.258 -1.8071  0.0350  1.2510
12678TIP3   OH259448   0.437   0.831   4.356 -0.1252 -0.1032  0.0276
12678TIP3    H159449   0.505   0.767   4.336 -0.3951  0.3101 -2.2936
12678TIP3    H259450   0.375   0.784   4.413  0.2444 -1.5634 -0.7615
12679TIP3   OH259451   2.511   2.068   5.352 -0.2069  0.0712 -0.6607
12679TIP3    H159452   2.428   2.070   5.305 -0.6794 -1.1863  0.0971
12679TIP3    H259453   2.487   2.071   5.445  0.6136  0.1818 -0.4430
12680TIP3   OH259454   2.888   2.291  16.437 -0.0042 -0.7121 -0.7204
12680TIP3    H159455   2.858   2.378  16.462  1.0285 -0.2927 -0.9389
12680TIP3    H259456   2.808   2.243  16.415 -0.7255 -0.3509  1.0604
12681TIP3   OH259457   0.651   2.762  14.593  0.0207  0.5012 -0.1468
12681TIP3    H159458   0.701   2.762  14.512 -0.1576 -0.7181 -0.2604
12681TIP3    H259459   0.654   2.853  14.623  1.9297  0.5400 -0.3883
12682TIP3   OH259460   6.673   2.567   3.553 -0.0076 -0.1663 -0.0023
12682TIP3    H159461   6.746   2.625   3.578  0.8876 -1.2052 -0.1665
12682TIP3    H259462   6.628   2.615   3.483  0.4583  0.5294  0.1621
12683TIP3   OH259463   5.294   2.866  11.531 -0.1515 -0.0959 -0.1746
12683TIP3    H159464   5.274   2.959  11.537  3.0720  0.5195  2.1035
12683TIP3    H259465   5.328   2.843  11.617 -0.3191 -3.2687 -0.8945
12684TIP3   OH259466   0.899   3.673  14.696  0.1846  0.5650 -0.2001
12684TIP3    H159467   0.915   3.642  14.785 -1.7611 -0.0962 -0.0551
12684TIP3    H259468   0.840   3.608  14.658  0.3599  1.2643 -1.7177
12685TIP3   OH259469   6.340   5.071  15.755  0.0964 -0.4089 -0.5262
12685TIP3    H159470   6.293   5.150  15.728 -2.4400 -1.8255 -0.3823
12685TIP3    H259471   6.415   5.067  15.696  1.1581  2.9236  0.4872
12686TIP3   OH259472   4.271   5.597  16.973  0.1775 -0.0015  0.1722
12686TIP3    H159473   4.306   5.643  17.050  1.4268 -0.1614 -0.2931
12686TIP3    H259474   4.248   5.510  17.005  1.7060 -0.4360  0.1544
12687TIP3   OH259475   1.714   1.152  15.057 -0.1399  0.2517 -0.1372
12687TIP3    H159476   1.761   1.083  15.010  0.1206  1.0019 -0.9777
12687TIP3    H259477   1.777   1.185  15.121 -0.4785 -0.7308  0.7347
12688TIP3   OH259478   2.962   6.135  15.652  0.5300 -0.0589 -0.3847
12688TIP3    H159479   2.912   6.193  15.709 -1.6255 -1.3955 -0.8392
12688TIP3    H259480   3.001   6.192  15.587 -1.3284  0.9049 -0.6618
12689TIP3   OH259481   2.594   0.877   0.732 -0.0517 -0.2467  0.5146
12689TIP3    H159482   2.596   0.972   0.743  0.4989 -0.2760  0.6798
12689TIP3    H259483   2.671   0.857   0.679  0.1700 -0.6592  0.9798
12690TIP3   OH259484   4.536   2.897   3.855 -0.0520 -0.0899  0.0800
12690TIP3    H159485   4.526   2.954   3.778  0.9106 -0.2742 -0.1854
12690TIP3    H259486   4.596   2.945   3.911 -1.1236  0.2666  0.9470
12691TIP3   OH259487   2.677   0.512   1.934 -0.3291 -0.2710  0.3854
12691TIP3    H159488   2.630   0.474   1.860  1.1362  0.3970 -0.9375
12691TIP3    H259489   2.625   0.588   1.960 -0.3678  0.0430 -0.5910
12692TIP3   OH259490   4.158   0.752  11.737  0.3170 -0.3229  0.4440
12692TIP3    H159491   4.165   0.675  11.680 -1.6759 -1.2531  1.4160
12692TIP3    H259492   4.234   0.746  11.794  0.3459 -1.4060  0.2993
12693TIP3   OH259493   3.333   0.632   2.997  0.3896 -0.4004 -0.0486
12693TIP3    H159494   3.336   0.553   3.051 -0.8611  0.1732  0.8871
12693TIP3    H259495   3.278   0.608   2.922  0.2961 -0.5308  0.0622
12694TIP3   OH259496   5.783   3.013  13.244  0.3897  0.0642 -0.0483
12694TIP3    H159497   5.722   2.951  13.204  0.5838 -0.4425  0.4360
12694TIP3    H259498   5.762   3.011  13.338  0.3285  0.8050 -0.0400
12695TIP3   OH259499   0.576   4.000  15.882  0.6159 -0.4419 -0.4465
12695TIP3    H159500   0.563   4.081  15.833 -1.3779  0.1517  1.0173
12695TIP3    H259501   0.562   4.025  15.973  0.6185 -2.3151  0.0755
12696TIP3   OH259502   0.040   5.581  14.680 -0.4316  0.5865 -0.3636
12696TIP3    H159503  -0.034   5.546  14.731 -0.1624  0.7659  0.1509
12696TIP3    H259504   0.014   5.568  14.589 -1.5434  1.5618 -0.1957
12697TIP3   OH259505   1.352   5.356  16.439  0.1844 -0.1018  0.5895
12697TIP3    H159506   1.406   5.435  16.447  0.0779 -0.0807  1.0974
12697TIP3    H259507   1.410   5.292  16.398  0.8169 -0.3016  1.7943
12698TIP3   OH259508   2.110   0.790  11.465  0.5560  0.5240  0.3026
12698TIP3    H159509   2.032   0.793  11.410  1.3405 -1.1757 -0.9461
12698TIP3    H259510   2.167   0.859  11.431  1.8003 -1.6657 -2.2705
12699TIP3   OH259511   4.576   2.738  14.359  0.4136 -0.1400 -0.0624
12699TIP3    H159512   4.665   2.701  14.362  0.4968  0.0309 -0.4594
12699TIP3    H259513   4.586   2.826  14.393  0.8523  0.7872 -2.4615
12700TIP3   OH259514   5.523   4.267   3.351  0.3651 -0.1976  0.6777
12700TIP3    H159515   5.440   4.246   3.310  0.4037 -0.4483  0.7290
12700TIP3    H259516   5.532   4.362   3.339  0.6004 -0.3383 -0.3158
12701TIP3   OH259517   0.824   0.153   3.744  0.1228  0.6508  0.4364
12701TIP3    H159518   0.895   0.217   3.737  0.9461 -0.3835 -0.7828
12701TIP3    H259519   0.751   0.192   3.696 -0.2663  1.8564  1.9555
12702TIP3   OH259520   5.064   4.659  16.332 -0.6944 -0.2983  0.4722
12702TIP3    H159521   5.036   4.598  16.399 -1.7322 -2.8339 -2.1548
12702TIP3    H259522   5.134   4.614  16.285  0.2319  1.5483  0.0109
12703TIP3   OH259523   1.432   2.669  16.048 -0.1660  0.0737 -0.0094
12703TIP3    H159524   1.389   2.739  16.098 -1.2586  0.3301 -1.2656
12703TIP3    H259525   1.417   2.693  15.957 -0.8410 -1.9781 -0.4620
12704TIP3   OH259526   4.706   2.750  11.354  0.2801 -0.3480 -0.1212
12704TIP3    H159527   4.693   2.668  11.402 -0.0207 -1.0195 -1.3386
12704TIP3    H259528   4.795   2.777  11.377 -0.8080  0.7767  2.9859
12705TIP3   OH259529   2.984   1.583   5.970  0.2976 -0.0322  0.3451
12705TIP3    H159530   3.021   1.555   6.054 -0.1753 -2.2026 -0.1265
12705TIP3    H259531   3.035   1.535   5.904 -1.6888 -1.1469 -0.4226
12706TIP3   OH259532   1.484   5.597  12.355 -0.1421  0.1428 -0.4656
12706TIP3    H159533   1.409   5.549  12.388  0.0491  0.1246 -0.0466
12706TIP3    H259534   1.555   5.533  12.353  0.6592  0.8822  2.0974
12707TIP3   OH259535   1.166   4.529   2.674 -0.2116 -0.2603 -0.5481
12707TIP3    H159536   1.111   4.603   2.700  0.2430 -0.8211  2.1778
12707TIP3    H259537   1.252   4.548   2.713 -0.3556 -2.6651  1.0127
12708TIP3   OH259538   1.124   0.222   3.406  0.7555  0.5905  0.1354
12708TIP3    H159539   1.124   0.136   3.363 -1.1247  0.0479  1.1839
12708TIP3    H259540   1.059   0.273   3.358 -0.3402  0.4368  1.4430
12709TIP3   OH259541   4.548   1.747  14.480  1.0945 -0.2885 -0.0649
12709TIP3    H159542   4.497   1.669  14.460  0.5994 -0.6601  2.4881
12709TIP3    H259543   4.622   1.715  14.531  1.1384  0.8428  0.5948
12710TIP3   OH259544   0.257   5.966  16.885  0.1800  0.3577 -0.0777
12710TIP3    H159545   0.213   5.911  16.820 -1.8514 -0.7138  2.0816
12710TIP3    H259546   0.309   5.904  16.937 -2.6741  0.2065  2.8220
12711TIP3   OH259547   3.174   5.409   2.251 -0.0468  0.4731  0.9625
12711TIP3    H159548   3.185   5.349   2.177 -1.5498 -0.6711  1.6507
12711TIP3    H259549   3.264   5.435   2.274  0.6119 -1.2212  0.4063
12712TIP3   OH259550   0.999   3.373   5.063  0.2036  0.1983 -0.3264
12712TIP3    H159551   0.996   3.469   5.068  1.5463  0.4145 -2.9498
12712TIP3    H259552   1.092   3.351   5.061 -0.0788 -1.2396  0.8745
12713TIP3   OH259553   3.579   3.030   4.120  0.2549 -0.2446 -0.1031
12713TIP3    H159554   3.618   3.103   4.071  0.7666  1.4166  2.6579
12713TIP3    H259555   3.653   2.969   4.134  0.2550 -0.4112 -0.8151
12714TIP3   OH259556   4.265   3.921  10.688  0.7249 -0.2462 -0.2234
12714TIP3    H159557   4.268   3.828  10.662 -0.9640 -0.9647  1.9813
12714TIP3    H259558   4.354   3.953  10.670  1.1287 -2.0618 -1.7541
12715TIP3   OH259559   0.040   2.704   2.421 -0.3546 -0.4254 -0.1415
12715TIP3    H159560   0.105   2.764   2.385 -0.4151 -0.2524  0.0354
12715TIP3    H259561   0.000   2.753   2.494 -1.1027 -0.3000 -0.6241
12716TIP3   OH259562   5.815   6.509  15.250 -0.2032  0.3223  0.0579
12716TIP3    H159563   5.846   6.529  15.338  1.3618 -1.9239  0.0801
12716TIP3    H259564   5.789   6.416  15.254 -1.9717  0.7068 -1.3549
12717TIP3   OH259565   4.783   0.479   0.832 -0.1767  0.0469 -0.2517
12717TIP3    H159566   4.878   0.479   0.846 -0.0879  4.2094 -0.1875
12717TIP3    H259567   4.756   0.389   0.849  3.9995 -1.6742 -2.0424
12718TIP3   OH259568   2.824   4.129  14.387  0.6134 -0.0710 -1.2458
12718TIP3    H159569   2.775   4.072  14.447  1.3769  1.5248  0.9740
12718TIP3    H259570   2.900   4.077  14.362 -0.1669 -1.0875 -1.5486
12719TIP3   OH259571   1.078   2.580   1.981 -0.4567  0.1110 -0.9202
12719TIP3    H159572   1.012   2.649   1.980 -1.5878 -0.9459 -1.6937
12719TIP3    H259573   1.128   2.593   1.900 -1.2134 -0.4768 -1.4878
12720TIP3   OH259574   2.994   6.067   3.307  0.1436 -0.4241 -0.3150
12720TIP3    H159575   3.056   6.140   3.314  0.0556 -0.3519 -0.2803
12720TIP3    H259576   2.913   6.100   3.347  0.7868 -1.3365  1.8272
12721TIP3   OH259577   3.637   2.925   0.547  0.1851 -0.1556 -0.2225
12721TIP3    H159578   3.726   2.899   0.522  0.5049  2.0759 -1.5334
12721TIP3    H259579   3.649   2.976   0.627  0.1806  0.9262 -0.9119
12722TIP3   OH259580   2.200   6.287   6.611  0.0898  0.3599 -0.3292
12722TIP3    H159581   2.203   6.368   6.662 -1.3417  0.9455 -1.1618
12722TIP3    H259582   2.282   6.242   6.634  0.2746  1.3996  1.1644
12723TIP3   OH259583   1.737   5.256  15.303  0.0801 -0.2135  0.0606
12723TIP3    H159584   1.719   5.162  15.298  0.0584 -0.1872 -0.3644
12723TIP3    H259585   1.697   5.283  15.385 -0.3359 -0.4843 -0.0497
12724TIP3   OH259586   0.085   0.976   5.769  0.9187 -0.1693  0.3272
12724TIP3    H159587   0.126   0.915   5.707  1.5040  1.8603 -1.3166
12724TIP3    H259588   0.139   0.969   5.847  2.3542 -0.1026 -0.6345
12725TIP3   OH259589   1.527   0.901   1.964 -0.6797 -0.7273  0.4789
12725TIP3    H159590   1.527   0.891   1.868 -0.0261  2.2101  0.1063
12725TIP3    H259591   1.578   0.828   1.996  0.2927 -0.9806 -1.5476
12726TIP3   OH259592   3.253   1.531  13.984 -0.1761 -0.3205 -0.4966
12726TIP3    H159593   3.228   1.576  13.904  0.4511 -1.9791 -1.6572
12726TIP3    H259594   3.170   1.503  14.023 -0.6094  2.4383  0.6237
12727TIP3   OH259595   4.553   4.430  11.000  0.6227 -0.0167  0.3697
12727TIP3    H159596   4.532   4.347  10.958 -2.5443  1.3067 -0.8445
12727TIP3    H259597   4.503   4.429  11.082 -2.0404  1.9152 -1.1303
12728TIP3   OH259598   2.182   3.918  13.401 -0.2057  0.0689 -0.1719
12728TIP3    H159599   2.155   3.970  13.325  0.3948  1.7277  0.7276
12728TIP3    H259600   2.278   3.915  13.395 -0.2435 -1.0645 -0.2871
12729TIP3   OH259601   1.421   3.202   3.325 -0.2897  0.3646  0.5425
12729TIP3    H159602   1.492   3.207   3.389 -1.6162  1.3168  1.9619
12729TIP3    H259603   1.434   3.278   3.268  0.5773 -0.1844 -0.0027
12730TIP3   OH259604   5.398   4.209   6.074  0.4628  0.2561 -0.4577
12730TIP3    H159605   5.417   4.240   6.162 -1.2302 -0.7058  0.2725
12730TIP3    H259606   5.458   4.136   6.060  2.0616  1.6257 -0.8576
12731TIP3   OH259607   1.114   3.688   1.098  0.5973  0.4818 -0.4105
12731TIP3    H159608   1.046   3.706   1.034  0.8905 -1.1009 -1.2099
12731TIP3    H259609   1.079   3.616   1.150  0.9104  0.8748  0.3499
12732TIP3   OH259610   2.358   5.001   3.842 -0.0519 -0.4930  0.0445
12732TIP3    H159611   2.388   4.930   3.785  1.5656 -0.9282  1.4090
12732TIP3    H259612   2.266   5.014   3.817  0.1864 -1.7057 -1.5922
12733TIP3   OH259613   4.779   0.515   4.535  0.1080 -0.3451 -0.4001
12733TIP3    H159614   4.867   0.477   4.540 -0.2389 -1.0741  0.5020
12733TIP3    H259615   4.755   0.532   4.626 -0.6256 -0.0008 -0.6486
12734TIP3   OH259616   6.014   4.757  13.876 -0.2635 -0.7643 -0.1272
12734TIP3    H159617   6.061   4.811  13.812 -1.9028  0.9930  0.1274
12734TIP3    H259618   6.083   4.721  13.932  1.0066 -0.5878 -1.5545
12735TIP3   OH259619   5.767   2.515   1.750  0.3071  0.2460  0.6559
12735TIP3    H159620   5.836   2.454   1.777  0.4999 -0.2208 -0.8404
12735TIP3    H259621   5.687   2.480   1.788  0.8921  0.8673  2.5298
12736TIP3   OH259622   1.990   5.352  13.966 -0.0736 -0.4131  0.2041
12736TIP3    H159623   1.968   5.272  14.013  0.7550  0.4961  2.1673
12736TIP3    H259624   1.980   5.329  13.873  0.3894 -2.8495  0.7362
12737TIP3   OH259625   4.823   5.601   6.628 -0.1611 -0.1082  0.6895
12737TIP3    H159626   4.765   5.588   6.703  0.8888  0.4567  1.6201
12737TIP3    H259627   4.892   5.536   6.639  0.0276  0.0140  0.2405
12738TIP3   OH259628   5.309   2.745   4.711 -0.2163  0.1145  0.0786
12738TIP3    H159629   5.331   2.709   4.797  0.4049  1.5993  0.5677
12738TIP3    H259630   5.251   2.819   4.730 -0.1123  0.4211 -0.7779
12739TIP3   OH259631   2.645   0.066  12.542 -0.4512  0.3786  0.6805
12739TIP3    H159632   2.623   0.156  12.567  0.9271  0.6473  0.9531
12739TIP3    H259633   2.739   0.059  12.556 -0.4137 -0.8784 -0.0766
12740TIP3   OH259634   1.988   6.619  11.487  0.3068  0.1281  0.8372
12740TIP3    H159635   2.080   6.638  11.505  0.4529 -1.2412  1.5513
12740TIP3    H259636   1.989   6.568  11.406  0.3179 -1.3403  1.7428
12741TIP3   OH259637   4.882   5.662   3.721 -0.2558  0.7366  0.1142
12741TIP3    H159638   4.855   5.713   3.644 -1.0924 -0.0636 -0.1389
12741TIP3    H259639   4.838   5.706   3.794 -1.7231 -0.1370 -0.2138
12742TIP3   OH259640   1.703   6.389  16.468  0.4905  0.2003 -0.2358
12742TIP3    H159641   1.657   6.465  16.433 -0.2874 -0.0018  0.3398
12742TIP3    H259642   1.693   6.322  16.400  0.0775  0.2128 -0.1899
12743TIP3   OH259643   4.581   0.812   4.642 -0.3724 -0.1059 -0.1515
12743TIP3    H159644   4.538   0.892   4.672  0.1633 -0.5384  1.8150
12743TIP3    H259645   4.592   0.759   4.721 -0.8957 -2.2150 -1.4535
12744TIP3   OH259646   0.681   6.658   2.855 -0.0828  0.5080 -0.3453
12744TIP3    H159647   0.642   6.601   2.789 -1.8507  0.5264  0.6532
12744TIP3    H259648   0.620   6.654   2.929  2.0522  0.1653  1.4355
12745TIP3   OH259649   6.479   6.298  15.312  0.3566 -0.3738 -0.0341
12745TIP3    H159650   6.560   6.345  15.331 -0.8722  1.1862  1.5161
12745TIP3    H259651   6.494   6.256  15.227  2.2884  0.9913 -0.3793
12746TIP3   OH259652   6.680   0.299   3.185 -0.7569  0.1419  0.1501
12746TIP3    H159653   6.769   0.272   3.208 -1.2660 -1.1830  0.6624
12746TIP3    H259654   6.639   0.322   3.269 -1.5220 -1.2851  0.2012
12747TIP3   OH259655   3.357   0.393  15.368  0.0637  0.1520 -0.2493
12747TIP3    H159656   3.304   0.472  15.384 -0.5797  0.0360 -1.6785
12747TIP3    H259657   3.352   0.344  15.450  0.0674  1.3691  0.4965
12748TIP3   OH259658   5.197   4.878   6.380  0.3637  0.3100  0.2247
12748TIP3    H159659   5.273   4.866   6.437  0.1290  0.5150  0.5860
12748TIP3    H259660   5.126   4.831   6.424  0.4752 -0.5641 -0.5262
12749TIP3   OH259661   5.633   4.671  15.684 -0.1858  0.6952  0.1665
12749TIP3    H159662   5.675   4.757  15.684 -0.3887  0.8420  2.9587
12749TIP3    H259663   5.695   4.614  15.732 -0.0901 -0.7054 -1.5776
12750TIP3   OH259664   5.620   0.335   2.716 -0.5835 -0.1858 -0.1363
12750TIP3    H159665   5.601   0.290   2.799 -2.0349 -0.7113 -0.7374
12750TIP3    H259666   5.680   0.276   2.670  1.4351  0.8083  1.1618
12751TIP3   OH259667   1.439   3.545  11.902  0.1785  0.1989 -0.1009
12751TIP3    H159668   1.363   3.501  11.938 -0.0974  0.6097 -0.1831
12751TIP3    H259669   1.409   3.581  11.819  0.4909  0.2733 -0.1832
12752TIP3   OH259670   4.833   5.415   5.716 -0.3125  0.1390  0.3370
12752TIP3    H159671   4.785   5.495   5.736  0.0477  0.3010  0.5550
12752TIP3    H259672   4.921   5.444   5.693 -0.1445 -0.2026  0.5417
12753TIP3   OH259673   1.413   1.795   2.462 -0.0313 -0.3262 -0.2202
12753TIP3    H159674   1.364   1.875   2.441  0.5589  0.1021  0.0190
12753TIP3    H259675   1.489   1.826   2.512 -0.3138 -1.1408  0.7112
12754TIP3   OH259676   0.835   1.008  12.896  0.7059 -0.7907  0.5563
12754TIP3    H159677   0.862   1.080  12.953  0.5266 -1.2900  1.2771
12754TIP3    H259678   0.902   1.005  12.827 -0.3771  1.3771 -0.6316
12755TIP3   OH259679   0.228   3.372   4.643 -0.5951 -0.9074  0.3921
12755TIP3    H159680   0.179   3.318   4.705 -1.5035  0.1764  0.6457
12755TIP3    H259681   0.308   3.323   4.625 -0.4407 -1.3545  2.2293
12756TIP3   OH259682   2.854   4.431  16.249  0.0041 -0.3429 -0.6527
12756TIP3    H159683   2.937   4.400  16.284  0.6302 -0.5884 -2.3083
12756TIP3    H259684   2.848   4.522  16.280  0.3984 -0.6369  0.2997
12757TIP3   OH259685   1.754   2.486   4.102 -0.3393 -0.3342  0.0414
12757TIP3    H159686   1.676   2.430   4.098  0.2436 -1.1227 -0.4971
12757TIP3    H259687   1.722   2.574   4.082 -1.0799 -0.6667 -0.2314
12758TIP3   OH259688   3.052   3.803  11.949  0.5876  0.2441  0.9636
12758TIP3    H159689   2.999   3.738  11.995 -0.5186 -1.6919 -2.7841
12758TIP3    H259690   2.988   3.860  11.906  1.4922 -0.4188 -1.3435
12759TIP3   OH259691   6.090   2.941  13.374  0.4758  0.0233 -0.1024
12759TIP3    H159692   6.096   2.889  13.455 -0.9337 -0.1323 -0.0705
12759TIP3    H259693   5.999   2.928  13.346  0.8779  0.3475 -1.5346
12760TIP3   OH259694   4.026   1.243  14.283  0.3945  0.4181  0.2041
12760TIP3    H159695   3.998   1.257  14.193  1.4582 -1.9518 -0.5531
12760TIP3    H259696   4.096   1.307  14.297 -1.8809  2.9382  0.4523
12761TIP3   OH259697   2.727   6.355  15.384 -0.3530 -0.2418  0.4172
12761TIP3    H159698   2.741   6.324  15.295 -1.5116  1.2008 -0.2961
12761TIP3    H259699   2.811   6.342  15.428 -0.1997 -2.2858 -0.4668
12762TIP3   OH259700   2.919   1.012   4.444 -0.0918  0.0577  0.0596
12762TIP3    H159701   2.981   0.941   4.459  1.1831  1.5926  2.4268
12762TIP3    H259702   2.838   0.969   4.417  1.2714 -2.1328 -0.6048
12763TIP3   OH259703   2.593   3.351   5.295  0.6710 -0.9043 -0.1204
12763TIP3    H159704   2.621   3.439   5.269  0.8929 -0.5209  1.3326
12763TIP3    H259705   2.538   3.321   5.224  1.0593  0.1945 -0.8979
12764TIP3   OH259706   1.196   5.777   2.920  0.0076 -0.1154  0.2310
12764TIP3    H159707   1.238   5.711   2.975 -0.6196 -1.7312 -1.1526
12764TIP3    H259708   1.257   5.791   2.848 -0.0756  0.4790  0.2697
12765TIP3   OH259709   1.307   0.477   4.607  0.1747  0.3485 -0.0944
12765TIP3    H159710   1.285   0.420   4.680  1.5535 -0.9735 -0.6842
12765TIP3    H259711   1.287   0.565   4.639 -0.7398 -0.3346  1.2919
12766TIP3   OH259712   3.403   2.847   3.477  0.0013 -0.6142  0.2754
12766TIP3    H159713   3.315   2.820   3.451  0.3309 -0.6874 -0.8041
12766TIP3    H259714   3.390   2.921   3.536 -0.7852 -0.6780  0.1850
12767TIP3   OH259715   4.028   5.797  11.897  0.4403  0.1886 -0.3380
12767TIP3    H159716   3.997   5.813  11.808  0.5250 -0.7338 -0.5323
12767TIP3    H259717   4.066   5.709  11.894 -2.7666 -1.3362  1.4798
12768TIP3   OH259718   4.403   4.411   1.707 -0.4181 -0.1711  0.1433
12768TIP3    H159719   4.359   4.412   1.622  0.7482 -2.0133 -0.4968
12768TIP3    H259720   4.432   4.502   1.719 -1.8356  0.4242 -0.7481
12769TIP3   OH259721   3.405   1.438   1.442 -0.1942 -0.3233 -0.3346
12769TIP3    H159722   3.324   1.490   1.445 -0.4958 -0.8619  1.7296
12769TIP3    H259723   3.475   1.501   1.459 -0.4209 -0.3132  0.5696
12770TIP3   OH259724   3.934   2.270  13.544  0.0878  0.0389 -0.1093
12770TIP3    H159725   3.904   2.181  13.562 -0.2696  0.3875  1.0293
12770TIP3    H259726   4.021   2.258  13.506  0.3110 -0.7783  0.6396
12771TIP3   OH259727   1.628   6.553  13.208  0.2845  0.2580 -0.6968
12771TIP3    H159728   1.721   6.573  13.221  0.7899 -2.3548  0.0728
12771TIP3    H259729   1.605   6.597  13.127  2.6923 -0.5272 -1.8418
12772TIP3   OH259730   4.210   1.643   2.332 -0.3269 -0.4027 -0.3630
12772TIP3    H159731   4.232   1.562   2.379 -1.3667 -0.6686 -0.3277
12772TIP3    H259732   4.216   1.712   2.399 -0.8599 -0.6492 -0.0609
12773TIP3   OH259733   5.306   2.147   1.156  0.4391  0.7425 -0.2376
12773TIP3    H159734   5.348   2.149   1.070 -0.0052 -0.2769 -0.4988
12773TIP3    H259735   5.358   2.084   1.206 -0.0513  0.3833 -0.1760
12774TIP3   OH259736   5.626   0.018   2.582 -0.3053 -0.3151  0.0949
12774TIP3    H159737   5.712  -0.022   2.567  1.6984  3.7206  0.1524
12774TIP3    H259738   5.565  -0.040   2.536  2.3859 -3.2671  0.0213
12775TIP3   OH259739   1.828   5.799   6.154  0.2593  0.1229 -0.2128
12775TIP3    H159740   1.757   5.819   6.216 -1.2366  0.9299 -2.1257
12775TIP3    H259741   1.813   5.707   6.130  0.1817  0.1327 -0.2043
12776TIP3   OH259742   0.840   1.282  12.221  0.3781  0.4633 -0.3436
12776TIP3    H159743   0.808   1.201  12.182  0.4246  0.4375 -0.3278
12776TIP3    H259744   0.883   1.328  12.149  1.7826 -0.2700  0.0134
12777TIP3   OH259745   6.502   6.454   4.305 -0.2006 -0.5017 -0.3181
12777TIP3    H159746   6.406   6.447   4.306 -0.2482  0.1129 -0.1534
12777TIP3    H259747   6.528   6.415   4.221 -0.6264 -0.3443 -0.5276
12778TIP3   OH259748   2.655   3.097   0.232  0.0889 -0.2656 -0.2111
12778TIP3    H159749   2.612   3.029   0.284  0.4171 -1.6250 -1.6942
12778TIP3    H259750   2.586   3.131   0.175  0.3812 -0.7565 -0.8695
12779TIP3   OH259751   3.167   1.945  13.370 -0.4130 -0.3496  0.5561
12779TIP3    H159752   3.255   1.972  13.398 -0.9962  0.5835  1.5405
12779TIP3    H259753   3.153   1.861  13.414 -1.1983  0.9575  2.9164
12780TIP3   OH259754   2.287   1.597   1.852  0.6189 -0.6748 -0.0065
12780TIP3    H159755   2.294   1.689   1.825  0.9325 -0.7411 -0.1487
12780TIP3    H259756   2.373   1.576   1.888  0.2080 -0.5809  1.0629
12781TIP3   OH259757   2.313   5.169  17.062 -0.0782  0.4262 -0.2644
12781TIP3    H159758   2.238   5.220  17.030  0.4164  0.6703 -1.0643
12781TIP3    H259759   2.292   5.078  17.038 -0.8691  0.2785  0.9844
12782TIP3   OH259760   1.033   3.406   3.700  0.1817 -0.0903  0.3014
12782TIP3    H159761   0.957   3.448   3.660  0.5194 -1.1069 -1.4471
12782TIP3    H259762   1.046   3.326   3.650  1.7632 -0.4625  1.2583
12783TIP3   OH259763   2.375   2.545  15.036  0.0122  0.1268 -0.0376
12783TIP3    H159764   2.325   2.569  14.958 -0.6279  0.1199  0.3713
12783TIP3    H259765   2.423   2.625  15.059 -1.4257  0.7559  0.7893
12784TIP3   OH259766   2.483   0.975  15.386 -1.1563  0.6528 -0.3479
12784TIP3    H159767   2.521   1.057  15.353 -0.1370  0.1930 -0.3556
12784TIP3    H259768   2.453   0.996  15.474  0.0774  0.7562  0.0545
12785TIP3   OH259769   6.498   0.855  12.828 -0.2475  0.2403 -0.4102
12785TIP3    H159770   6.517   0.935  12.779  0.3599 -0.0348 -0.6263
12785TIP3    H259771   6.582   0.809  12.833 -0.7552 -0.7579 -0.9581
12786TIP3   OH259772   1.614   6.415  14.787 -0.2092 -0.2635  0.4263
12786TIP3    H159773   1.530   6.454  14.812 -0.2209 -1.1622  1.8577
12786TIP3    H259774   1.674   6.441  14.856  0.8957  0.9791 -0.9731
12787TIP3   OH259775   4.641   1.735  15.582 -0.5265  0.7193  0.3301
12787TIP3    H159776   4.656   1.752  15.489 -1.5808 -0.8951 -0.1533
12787TIP3    H259777   4.706   1.668  15.605 -0.3506  1.0231  0.7251
12788TIP3   OH259778   4.327   0.516  13.352 -0.9976  0.3219 -0.0374
12788TIP3    H159779   4.268   0.494  13.279  1.8701 -2.7655 -1.5905
12788TIP3    H259780   4.327   0.438  13.407 -1.4972  1.8490  2.1505
12789TIP3   OH259781   0.542   2.200   0.073  0.0726  0.3765  0.3159
12789TIP3    H159782   0.540   2.113   0.113 -2.0175  0.7447  1.0754
12789TIP3    H259783   0.566   2.184  -0.018 -0.0689 -0.9814  0.5011
12790TIP3   OH259784   3.642   6.672  11.572 -0.3657  0.8965  0.6230
12790TIP3    H159785   3.561   6.692  11.525 -1.1224 -1.2187  0.9273
12790TIP3    H259786   3.695   6.624  11.509  0.5596  2.0743  0.5021
12791TIP3   OH259787   2.680   5.808   3.495 -0.1907 -0.5880 -0.2406
12791TIP3    H159788   2.772   5.820   3.519 -0.3039  1.8985 -0.8827
12791TIP3    H259789   2.645   5.750   3.563  1.1919  0.6830  1.6259
12792TIP3   OH259790   0.895   2.328  10.713  0.1077  0.2152 -0.5126
12792TIP3    H159791   0.938   2.245  10.693 -0.0232  0.3521 -1.3849
12792TIP3    H259792   0.954   2.395  10.676 -0.0091  0.4935 -0.2037
12793TIP3   OH259793   2.174   3.865  15.545  0.2074  0.3284  0.2550
12793TIP3    H159794   2.180   3.951  15.503  0.1547  0.2238  0.0291
12793TIP3    H259795   2.133   3.809  15.479  1.7036 -0.2673 -0.1897
12794TIP3   OH259796   3.684   0.294  16.223  0.0441 -0.0754 -0.5450
12794TIP3    H159797   3.770   0.271  16.259  0.1440 -0.7886 -1.2349
12794TIP3    H259798   3.646   0.211  16.196 -1.0295  0.2003  0.0972
12795TIP3   OH259799   1.368   4.675   1.243 -0.1695 -0.0885  1.0801
12795TIP3    H159800   1.406   4.652   1.328  2.8495 -0.4320 -0.3108
12795TIP3    H259801   1.438   4.721   1.197 -2.7113  2.7127 -0.1610
12796TIP3   OH259802   6.318   3.428   1.363 -0.0664  1.0695  0.3014
12796TIP3    H159803   6.362   3.445   1.280 -2.9438 -0.9382 -1.7000
12796TIP3    H259804   6.362   3.351   1.399  0.1078  0.9488 -0.1722
12797TIP3   OH259805   6.714   3.622  17.038 -0.0132 -0.4832 -0.3295
12797TIP3    H159806   6.654   3.652  16.971  0.4182  0.1731 -0.4256
12797TIP3    H259807   6.727   3.698  17.095 -0.0758 -0.9183  0.2796
12798TIP3   OH259808   6.044   2.109   3.414  0.3575  0.5326 -0.1582
12798TIP3    H159809   6.055   2.187   3.360  2.3792  1.2857  1.2717
12798TIP3    H259810   6.127   2.102   3.462  1.0417 -3.6624 -1.7647
12799TIP3   OH259811   3.555   3.438   4.450 -0.6986  0.5472  0.2213
12799TIP3    H159812   3.607   3.378   4.396 -0.3145 -0.4986  1.7361
12799TIP3    H259813   3.577   3.525   4.416  1.5745  0.0885  0.4127
12800TIP3   OH259814   5.570   2.860   2.887 -0.2818  0.1944 -0.6194
12800TIP3    H159815   5.502   2.818   2.835 -1.9021  2.0935 -0.0572
12800TIP3    H259816   5.523   2.916   2.949  1.6868 -0.3173  1.4232
12801TIP3   OH259817   2.486   1.014  12.211 -0.2166 -0.2500  0.0196
12801TIP3    H159818   2.457   0.925  12.230  1.4039 -0.6713  0.5556
12801TIP3    H259819   2.409   1.056  12.170 -2.0203 -0.9169  2.6122
12802TIP3   OH259820   0.207   0.034  10.780 -0.6537  0.0102  0.0037
12802TIP3    H159821   0.218   0.105  10.717  0.4104  1.3000  1.5898
12802TIP3    H259822   0.290   0.031  10.827 -1.0717 -1.5887  0.6599
12803TIP3   OH259823   4.751   2.940   4.107 -0.2729  0.5599  0.7926
12803TIP3    H159824   4.815   2.881   4.066 -0.5933  0.1153  0.9288
12803TIP3    H259825   4.798   3.023   4.117 -0.0621  0.5552 -0.1076
12804TIP3   OH259826   1.199   3.076  15.988 -0.0833 -0.6582 -0.0430
12804TIP3    H159827   1.238   3.148  15.938  0.2178 -0.2658  0.7380
12804TIP3    H259828   1.106   3.080  15.967 -0.4002  1.2890  1.5957
12805TIP3   OH259829   6.328   6.436  12.335  0.8404 -0.1027  0.1894
12805TIP3    H159830   6.289   6.428  12.422 -0.8382  2.4920 -0.2401
12805TIP3    H259831   6.401   6.496  12.347  0.0088  1.0374 -0.3250
12806TIP3   OH259832   6.155   2.723  15.402  0.7704 -0.3802 -0.5438
12806TIP3    H159833   6.182   2.668  15.329 -1.1934 -1.1169 -0.7428
12806TIP3    H259834   6.236   2.743  15.449  2.0789  0.2526 -3.0001
12807TIP3   OH259835   1.642   3.209   1.672  0.2725 -0.6764 -0.1670
12807TIP3    H159836   1.578   3.227   1.603  1.7733  1.7138 -1.0195
12807TIP3    H259837   1.665   3.295   1.706  1.8339 -1.6121  1.2338
12808TIP3   OH259838   0.643   3.873   4.549 -0.4332  0.8077 -0.1955
12808TIP3    H159839   0.672   3.782   4.554 -2.5181 -0.1037 -3.3892
12808TIP3    H259840   0.696   3.918   4.614  0.5386 -2.7016  1.5977
12809TIP3   OH259841   4.661   2.874  12.226  0.4362  0.0890  0.2257
12809TIP3    H159842   4.583   2.828  12.256  0.0017  1.7425  1.6924
12809TIP3    H259843   4.628   2.941  12.167  0.7435  0.8190  0.8825
12810TIP3   OH259844   2.647   4.887   0.580 -0.5984 -0.1849 -0.1464
12810TIP3    H159845   2.720   4.830   0.602 -1.4963 -0.9156  1.0616
12810TIP3    H259846   2.619   4.858   0.493  0.6248  0.1875 -0.6663
12811TIP3   OH259847   2.387   1.370  12.461 -0.1189 -0.1394  0.3016
12811TIP3    H159848   2.452   1.356  12.392  0.4081 -1.3634  1.0478
12811TIP3    H259849   2.315   1.415  12.416 -0.2590 -1.9124 -1.3046
12812TIP3   OH259850   4.671   2.147  11.723 -0.1627  0.3099  0.2075
12812TIP3    H159851   4.618   2.158  11.802  1.2449  0.1952  1.1702
12812TIP3    H259852   4.616   2.184  11.653 -1.0427  1.2310  1.3542
12813TIP3   OH259853   3.180   0.982   0.300 -0.3568 -0.7969  0.1857
12813TIP3    H159854   3.264   0.955   0.264 -0.4377 -1.2224  0.3202
12813TIP3    H259855   3.128   0.902   0.304 -1.2722 -0.3022 -1.2742
12814TIP3   OH259856   0.914   0.540   5.503 -0.5662 -0.4192  0.2993
12814TIP3    H159857   0.926   0.462   5.558  2.7580 -0.1549  0.0430
12814TIP3    H259858   0.927   0.508   5.414  0.0207  0.2528  0.1380
12815TIP3   OH259859   1.895   3.379  13.404  0.1277  0.2432 -0.5914
12815TIP3    H159860   1.914   3.294  13.363  0.2158  0.4274 -0.9386
12815TIP3    H259861   1.927   3.370  13.493  0.4265  0.0185 -0.7197
12816TIP3   OH259862   0.498   0.235   0.500 -0.2682  0.0284 -0.1019
12816TIP3    H159863   0.557   0.278   0.438  1.8470 -0.1269  1.7261
12816TIP3    H259864   0.556   0.178   0.552 -2.2405 -1.1125  0.9021
12817TIP3   OH259865   3.729   2.082   5.798  0.3712  0.7729  0.1786
12817TIP3    H159866   3.756   2.174   5.791 -0.1547  0.8658 -0.6841
12817TIP3    H259867   3.724   2.066   5.893  1.8578  1.2103  0.3554
12818TIP3   OH259868   4.966   3.510  11.731  0.6214  0.4603  0.8890
12818TIP3    H159869   4.972   3.493  11.637  0.9644  1.9199  0.6312
12818TIP3    H259870   5.023   3.445  11.771  0.8685  0.1550  0.0487
12819TIP3   OH259871   4.242   0.010   4.843 -0.3327 -0.1917  0.7204
12819TIP3    H159872   4.331   0.021   4.876 -0.7549  1.3166  1.4143
12819TIP3    H259873   4.228   0.086   4.786 -1.3780 -0.0700  1.1250
12820TIP3   OH259874   4.173   4.146  11.671  0.0495  0.1955 -0.4954
12820TIP3    H159875   4.095   4.171  11.621  0.3462 -2.1883 -2.2812
12820TIP3    H259876   4.202   4.227  11.713 -1.6349  1.7690 -2.2531
12821TIP3   OH259877   1.967   5.600   3.374  0.1991 -0.3836  0.3158
12821TIP3    H159878   1.999   5.601   3.464  2.0475  1.3447 -0.3250
12821TIP3    H259879   2.043   5.624   3.321 -0.9990 -0.8194 -1.6653
12822TIP3   OH259880   4.375   2.991  14.666 -0.5334 -0.6771 -0.2915
12822TIP3    H159881   4.361   2.899  14.645 -1.1335 -0.6546  0.0130
12822TIP3    H259882   4.348   2.999  14.757 -2.1245  0.1617 -0.8175
12823TIP3   OH259883   0.573   2.241  16.492 -0.8251 -0.2764 -0.5050
12823TIP3    H159884   0.559   2.334  16.512 -0.6873 -0.6169  1.2809
12823TIP3    H259885   0.657   2.238  16.446 -1.1280  0.5433 -1.1263
12824TIP3   OH259886   2.997   5.520   2.759 -0.0633  0.2330 -0.4548
12824TIP3    H159887   3.057   5.586   2.795 -0.0191 -0.3268  0.5332
12824TIP3    H259888   3.030   5.503   2.671  2.4804 -1.5399  0.7762
12825TIP3   OH259889   1.062   5.367  16.091  0.0046 -0.1893 -0.7604
12825TIP3    H159890   0.968   5.376  16.103  0.0937  0.8085 -0.7442
12825TIP3    H259891   1.100   5.416  16.165  0.5320 -0.4253 -0.8732
12826TIP3   OH259892   5.649   2.087   6.133 -0.6840 -0.2414  0.5973
12826TIP3    H159893   5.561   2.087   6.095 -0.4515  0.9108  0.0215
12826TIP3    H259894   5.707   2.075   6.059 -0.3667 -1.3567  1.0248
12827TIP3   OH259895   4.924   0.952   2.001 -0.9753  0.2802 -0.1129
12827TIP3    H159896   4.901   1.043   2.017  0.0443  0.7372 -1.1535
12827TIP3    H259897   4.954   0.919   2.086  2.3174  2.0430 -0.5205
12828TIP3   OH259898   6.429   4.004   4.888 -0.4191  0.0143 -0.1194
12828TIP3    H159899   6.455   3.914   4.868  1.3184  0.6526 -0.7384
12828TIP3    H259900   6.413   4.045   4.803  0.7898  0.8801  0.0580
12829TIP3   OH259901   6.450   6.292   4.884  0.5740 -0.2693  0.1815
12829TIP3    H159902   6.499   6.374   4.883  1.6094 -0.8833 -1.0779
12829TIP3    H259903   6.359   6.318   4.899  0.6190  1.2702 -1.9912
12830TIP3   OH259904   4.543   6.708  10.840 -0.0254  0.0663  0.4574
12830TIP3    H159905   4.503   6.621  10.834 -0.3311  0.2857 -0.9623
12830TIP3    H259906   4.470   6.766  10.862 -0.5946  0.4844 -2.2454
12831TIP3   OH259907   5.007   5.874  12.532  0.8252 -0.1477  0.0890
12831TIP3    H159908   4.962   5.931  12.470  0.1186  0.7198  1.3838
12831TIP3    H259909   4.950   5.872  12.609  1.7072 -1.1829  0.7271
12832TIP3   OH259910   1.884   5.863   5.513  0.4901  1.0383  0.4128
12832TIP3    H159911   1.837   5.788   5.550 -0.9882  1.4487 -0.5947
12832TIP3    H259912   1.932   5.900   5.587 -0.2737  0.2262  1.3266
12833TIP3   OH259913   0.393   5.292   0.256 -0.1437  0.2013  0.1151
12833TIP3    H159914   0.355   5.351   0.191 -0.0871 -0.0074 -0.1082
12833TIP3    H259915   0.320   5.234   0.280 -0.5469  1.1628  1.2692
12834TIP3   OH259916   1.221   0.620  11.662  1.1016 -0.1517  0.9329
12834TIP3    H159917   1.228   0.661  11.576 -0.2397 -2.3516 -0.2603
12834TIP3    H259918   1.306   0.578  11.676  0.5785 -1.6954 -0.3513
12835TIP3   OH259919   2.127   6.339  13.232 -0.5079  0.2418  0.0395
12835TIP3    H159920   2.057   6.317  13.171  0.2586  0.0788 -0.7869
12835TIP3    H259921   2.148   6.430  13.212  0.8772 -0.3029 -1.0896
12836TIP3   OH259922   1.253   4.309   4.729 -0.3537  0.0689 -0.1146
12836TIP3    H159923   1.226   4.275   4.814 -0.4023 -0.9947 -0.5474
12836TIP3    H259924   1.186   4.277   4.668  0.2829 -0.1300 -0.7278
12837TIP3   OH259925   5.511   1.334   1.997 -0.3536  0.3040  0.2445
12837TIP3    H159926   5.604   1.344   1.974 -0.4224 -0.3920 -0.3643
12837TIP3    H259927   5.510   1.262   2.060 -0.5073  0.1228  0.0365
12838TIP3   OH259928   4.936   0.978   4.709  0.9021  1.0408 -0.1141
12838TIP3    H159929   4.851   1.011   4.680  0.3142 -0.0843  0.2994
12838TIP3    H259930   4.985   1.057   4.733 -0.2753  1.6540  0.3309
12839TIP3   OH259931   4.536   4.995   4.528  0.2397  0.0885  0.7233
12839TIP3    H159932   4.462   5.037   4.484  0.1576 -0.6451  0.1464
12839TIP3    H259933   4.545   4.910   4.484  0.8423 -0.2079  1.4056
12840TIP3   OH259934   5.804   4.190  12.200  0.1010 -0.0593  0.7196
12840TIP3    H159935   5.743   4.153  12.136  0.9437 -0.6611  0.2584
12840TIP3    H259936   5.873   4.124  12.209  0.6888  0.6105  1.2439
12841TIP3   OH259937   1.455   4.453  11.829 -0.0535  0.0252  0.0570
12841TIP3    H159938   1.391   4.393  11.792  0.4507 -0.2581 -0.3582
12841TIP3    H259939   1.404   4.531  11.852 -0.1427  0.8060 -2.6358
12842TIP3   OH259940   4.395   4.650  16.445 -0.0866 -0.1380  0.3635
12842TIP3    H159941   4.439   4.712  16.387 -1.5855  1.4520  0.8981
12842TIP3    H259942   4.304   4.678  16.446 -0.5039 -1.4580  1.7932
12843TIP3   OH259943   5.318   3.035  14.802 -0.5082 -0.1237  0.4460
12843TIP3    H159944   5.411   3.037  14.782 -0.7624 -1.4251 -0.9346
12843TIP3    H259945   5.303   2.949  14.840 -1.1823  0.0189  0.5085
12844TIP3   OH259946   4.436   2.043   5.626  0.2942 -0.0098 -0.0442
12844TIP3    H159947   4.417   1.962   5.577 -1.9751  0.0354  0.6860
12844TIP3    H259948   4.518   2.074   5.589  0.8443 -2.2720 -0.8440
12845TIP3   OH259949   3.969   4.903  13.967  0.3653  0.2516  0.7570
12845TIP3    H159950   3.956   4.944  14.053 -0.1091 -0.6713  1.1327
12845TIP3    H259951   4.046   4.848  13.978 -0.1206 -0.4195  0.7902
12846TIP3   OH259952   6.327   2.622   3.439  0.1923 -0.3837 -0.5877
12846TIP3    H159953   6.331   2.557   3.368  0.5057  1.0650 -1.9132
12846TIP3    H259954   6.405   2.676   3.427  1.3527 -1.3553  2.0973
12847TIP3   OH259955   2.021   0.065   0.674 -0.0790 -0.0567  0.3190
12847TIP3    H159956   2.072   0.072   0.755  0.5623 -0.0035 -0.0873
12847TIP3    H259957   2.027   0.152   0.634 -0.7763  0.0491  0.4413
12848TIP3   OH259958   3.988   3.775   1.838  1.0045  0.3386  0.0249
12848TIP3    H159959   4.037   3.712   1.786  3.6123  0.0809  2.7041
12848TIP3    H259960   3.898   3.743   1.835  1.8462 -2.0254 -0.8289
12849TIP3   OH259961   5.127   5.540   5.433 -0.1154  0.0813  0.2039
12849TIP3    H159962   5.058   5.578   5.378 -1.6625 -1.2465  1.1970
12849TIP3    H259963   5.206   5.551   5.381 -1.3017  0.2308 -1.6452
12850TIP3   OH259964   2.203   4.817   2.727 -0.4244  0.6830 -0.2563
12850TIP3    H159965   2.120   4.778   2.756  0.9622 -0.3951  2.4919
12850TIP3    H259966   2.227   4.878   2.797  0.4046  2.0788 -1.7170
12851TIP3   OH259967   2.444   3.451  16.627  0.2474  0.5237  0.2689
12851TIP3    H159968   2.472   3.361  16.645  0.0734  0.0575 -1.6369
12851TIP3    H259969   2.412   3.484  16.711  0.8028 -1.0200  1.1041
12852TIP3   OH259970   0.950   2.597   3.789  0.1000 -0.7963  0.4921
12852TIP3    H159971   0.942   2.600   3.693 -2.6007  0.0774  0.6846
12852TIP3    H259972   0.998   2.516   3.806 -0.1857 -1.4564 -1.5812
12853TIP3   OH259973   6.208   1.839  13.751  0.4285 -0.1024 -0.4415
12853TIP3    H159974   6.114   1.854  13.739  0.4423 -0.7338 -1.3742
12853TIP3    H259975   6.217   1.817  13.844 -0.1309  1.5139  0.0259
12854TIP3   OH259976   6.787   2.785  14.207  1.0489 -0.3445  0.0139
12854TIP3    H159977   6.771   2.875  14.181 -0.4039  0.1572  2.4305
12854TIP3    H259978   6.797   2.737  14.125 -3.2837  1.1371 -1.5129
12855TIP3   OH259979   1.261   2.572   3.840 -0.1016  0.8247  0.2889
12855TIP3    H159980   1.181   2.589   3.790 -0.2901  1.9602  0.9681
12855TIP3    H259981   1.262   2.638   3.908  0.5798 -0.2119  1.3117
12856TIP3   OH259982   4.735   5.750  10.329  0.8316 -0.2455 -0.1939
12856TIP3    H159983   4.685   5.678  10.367  1.6941 -0.6927  0.1119
12856TIP3    H259984   4.750   5.810  10.401  1.3930 -0.4859 -0.1079
12857TIP3   OH259985   2.480   5.887   2.693 -0.2991 -0.1239 -1.2233
12857TIP3    H159986   2.462   5.795   2.670 -1.0010 -0.0756 -0.8706
12857TIP3    H259987   2.414   5.936   2.644 -1.5601  0.0138  0.6017
12858TIP3   OH259988   2.881   2.206  15.348  0.1776  0.1763 -0.0534
12858TIP3    H159989   2.960   2.219  15.400  0.5589  0.3158 -0.6603
12858TIP3    H259990   2.846   2.294  15.335 -1.3431 -0.0623  2.1415
12859TIP3   OH259991   0.363   5.840   5.095 -0.9695  0.5143  0.4113
12859TIP3    H159992   0.398   5.847   5.006 -1.4957  2.5210  0.3510
12859TIP3    H259993   0.346   5.746   5.106  1.5396 -0.0907 -0.6354
12860TIP3   OH259994   4.260   3.414  14.572  0.3304 -0.3864 -0.2102
12860TIP3    H159995   4.192   3.474  14.543  1.6614  1.2973  0.0323
12860TIP3    H259996   4.238   3.393  14.662 -0.6418 -0.9981 -0.5868
12861TIP3   OH259997   5.299   3.460  17.165 -0.2250 -0.2806  0.0012
12861TIP3    H159998   5.295   3.535  17.224 -3.5084  0.8091 -1.5135
12861TIP3    H259999   5.227   3.403  17.193  0.9254 -1.8705 -0.2033
12862TIP3   OH260000   0.979   4.500  12.909  0.2166 -0.4308  0.2568
12862TIP3    H160001   0.895   4.516  12.864  0.1620 -2.4933 -0.4196
12862TIP3    H260002   1.044   4.508  12.840  0.6878  1.9245  0.9284
12863TIP3   OH260003   1.139   6.064   5.379 -0.1218  0.3843 -0.4470
12863TIP3    H160004   1.110   5.989   5.328 -2.1252  1.1581 -0.5131
12863TIP3    H260005   1.234   6.068   5.366 -0.1496 -1.4879 -1.2809
12864TIP3   OH260006   5.765   6.598   4.137  0.2437  0.3656  0.1056
12864TIP3    H160007   5.780   6.688   4.109  0.2162  0.6511  1.0045
12864TIP3    H260008   5.672   6.582   4.119  0.2138  0.5604  0.0864
12865TIP3   OH260009   6.326   4.807   3.715  0.2274  0.6266  0.1156
12865TIP3    H160010   6.297   4.897   3.704 -1.2331  0.2344  0.5757
12865TIP3    H260011   6.370   4.806   3.801 -1.0864  0.5819  0.7954
12866TIP3   OH260012   2.209   4.954  14.091  0.0395  0.1189  0.0394
12866TIP3    H160013   2.294   4.918  14.066 -1.0218 -1.3343 -1.5539
12866TIP3    H260014   2.148   4.881  14.083 -1.3059  1.0362  1.5505
12867TIP3   OH260015   3.216   5.846  17.104 -0.1585  0.0240 -0.2687
12867TIP3    H160016   3.272   5.836  17.180 -2.1689  1.6664  1.4783
12867TIP3    H260017   3.265   5.903  17.045  1.2602 -0.9816 -0.0718
12868TIP3   OH260018   5.095   2.545   5.392  0.5239  0.3640 -0.6405
12868TIP3    H160019   5.165   2.542   5.458  2.6627  0.7327 -2.8478
12868TIP3    H260020   5.095   2.635   5.361 -1.8507  0.6969  0.2479
12869TIP3   OH260021   4.601   6.153  16.096 -0.2064  0.2023 -0.1507
12869TIP3    H160022   4.552   6.234  16.082  3.3674  2.0572 -2.7235
12869TIP3    H260023   4.626   6.157  16.188  0.4582  2.3707 -0.3915
12870TIP3   OH260024   2.120   6.100   2.640 -0.7436 -0.3333 -0.1199
12870TIP3    H160025   2.106   6.009   2.666  1.2048  0.4581  4.2264
12870TIP3    H260026   2.200   6.097   2.587 -0.3925 -1.1446  0.4320
12871TIP3   OH260027   6.253   6.111  15.941 -0.2618  0.2257  0.2052
12871TIP3    H160028   6.317   6.041  15.953 -0.6491 -0.4280 -1.3571
12871TIP3    H260029   6.168   6.066  15.943 -0.5711  0.7977  0.2228
12872TIP3   OH260030   0.451   2.878   3.741  0.0762  0.1245 -0.1228
12872TIP3    H160031   0.401   2.958   3.756  2.0926  1.6646 -1.3564
12872TIP3    H260032   0.408   2.837   3.665 -1.8928 -0.8019  1.4396
12873TIP3   OH260033   3.295   2.457  12.800  0.4184 -0.4697 -0.1315
12873TIP3    H160034   3.358   2.463  12.871  0.6101 -0.4890 -0.2982
12873TIP3    H260035   3.315   2.374  12.757 -0.4965 -1.0409  0.5379
12874TIP3   OH260036   3.814   0.827  16.142 -0.2155  0.2080  0.9535
12874TIP3    H160037   3.865   0.854  16.065 -2.2798  3.0609  0.5454
12874TIP3    H260038   3.789   0.908  16.185 -2.3512 -1.2135  2.5214
12875TIP3   OH260039   2.520   3.947   3.319  0.8937 -0.0791 -0.1569
12875TIP3    H160040   2.456   4.016   3.338  1.5230  0.5735 -0.4199
12875TIP3    H260041   2.590   3.961   3.383 -0.5133 -2.5321  2.0515
12876TIP3   OH260042   5.871   6.466   1.088 -0.7470  0.3930 -0.4690
12876TIP3    H160043   5.914   6.424   1.163  1.2723  0.1114 -1.7451
12876TIP3    H260044   5.812   6.400   1.053  1.6277 -1.0565 -1.8233
12877TIP3   OH260045   1.300   5.755   3.214 -0.5027 -0.0213  0.3595
12877TIP3    H160046   1.318   5.681   3.272 -0.0801  0.0634  0.3422
12877TIP3    H260047   1.224   5.798   3.253 -0.4593 -0.1919  0.6339
12878TIP3   OH260048   6.223   4.686   6.673  0.2719 -0.6267 -0.0991
12878TIP3    H160049   6.247   4.779   6.679 -1.0058 -0.0928 -2.6390
12878TIP3    H260050   6.158   4.682   6.603 -1.5708 -3.0992  1.6445
12879TIP3   OH260051   4.062   2.103   0.168 -0.1325  0.2281 -0.7247
12879TIP3    H160052   4.003   2.167   0.208 -0.0174  0.4908 -0.9692
12879TIP3    H260053   4.039   2.104   0.075 -1.9995 -2.0982 -0.3312
12880TIP3   OH260054   0.284   1.022   2.080  0.3590  0.2468  0.3656
12880TIP3    H160055   0.305   1.097   2.024 -0.5586  0.4931  0.3389
12880TIP3    H260056   0.210   1.052   2.133 -0.1515 -0.6993  0.2081
12881TIP3   OH260057   5.777   4.287  13.258 -0.5043 -0.5315 -0.5698
12881TIP3    H160058   5.816   4.326  13.336  0.1491 -0.5542 -0.8799
12881TIP3    H260059   5.685   4.316  13.260 -0.5553 -0.7493  0.3392
12882TIP3   OH260060   6.696   5.652  13.901  0.0077  0.1056  0.1501
12882TIP3    H160061   6.721   5.595  13.828  0.5456 -0.2281  0.5875
12882TIP3    H260062   6.627   5.708  13.865  1.3396  1.0072 -1.0806
12883TIP3   OH260063   4.751   5.796   1.916 -0.1921 -0.2105  0.1126
12883TIP3    H160064   4.689   5.763   1.851 -0.2786 -1.2018  0.6888
12883TIP3    H260065   4.703   5.866   1.961  0.6990  2.1565 -2.4856
12884TIP3   OH260066   6.071   0.684  15.601  0.2925  0.0252 -0.3556
12884TIP3    H160067   6.088   0.598  15.639  1.6899 -0.3441 -1.7792
12884TIP3    H260068   6.158   0.719  15.581 -0.3769  0.5328 -2.4739
12885TIP3   OH260069   4.853   6.143   3.148  0.0821 -0.0575  0.9216
12885TIP3    H160070   4.783   6.077   3.151 -0.1696  0.2264  1.3154
12885TIP3    H260071   4.891   6.133   3.061 -1.4828  0.8707  0.1214
12886TIP3   OH260072   1.543   3.197  11.825  0.2453  0.5847 -0.7555
12886TIP3    H160073   1.463   3.150  11.847  0.9130  0.0396  0.5716
12886TIP3    H260074   1.613   3.134  11.840  1.1121  1.7956  0.5186
12887TIP3   OH260075   1.573   6.529  13.513 -0.6589  0.0189  0.1445
12887TIP3    H160076   1.514   6.558  13.443 -0.4867 -0.2074 -0.0983
12887TIP3    H260077   1.531   6.450  13.548  0.0525 -0.8004 -0.7858
12888TIP3   OH260078   2.295   0.869   2.413  0.4261  0.0856 -0.2913
12888TIP3    H160079   2.241   0.930   2.363  0.2736  0.3213  0.1577
12888TIP3    H260080   2.239   0.792   2.425  1.0982 -0.7288 -2.0648
12889TIP3   OH260081   2.564   3.126   1.640 -0.3569 -0.0344  0.0968
12889TIP3    H160082   2.511   3.047   1.646  0.8960 -0.8902  0.1319
12889TIP3    H260083   2.550   3.171   1.723 -1.7542  0.2322 -0.2742
12890TIP3   OH260084   6.506   6.211   1.305 -0.1571  0.1025  1.1413
12890TIP3    H160085   6.564   6.279   1.340 -0.2273  1.3619 -1.1440
12890TIP3    H260086   6.446   6.258   1.248 -0.5284 -1.8233 -0.0785
12891TIP3   OH260087   0.170   3.879  13.649 -0.0900  0.7450  0.2026
12891TIP3    H160088   0.238   3.943  13.627 -0.0365  0.5203 -0.2886
12891TIP3    H260089   0.095   3.932  13.676 -0.3895  1.0548 -1.1760
12892TIP3   OH260090   3.656   4.349   3.520  0.0774 -0.2940  0.0495
12892TIP3    H160091   3.678   4.275   3.462  1.4240 -0.4935  0.7948
12892TIP3    H260092   3.708   4.421   3.487  0.2433 -0.1944  0.5344
12893TIP3   OH260093   5.979   5.616   3.915  0.3347 -0.2104  0.1039
12893TIP3    H160094   6.013   5.605   3.826  0.2047 -0.8741  0.1280
12893TIP3    H260095   5.886   5.636   3.902  0.4009  0.0863  0.0817
12894TIP3   OH260096   4.800   4.684   1.569 -0.2959  0.2788  0.0480
12894TIP3    H160097   4.841   4.755   1.520 -0.8543 -0.1029 -0.9905
12894TIP3    H260098   4.795   4.716   1.659  0.9685  0.8859 -0.0956
12895TIP3   OH260099   2.684   2.083   3.890  0.1829  0.8751  0.0577
12895TIP3    H160100   2.635   2.164   3.878  2.2875  2.3540  1.2462
12895TIP3    H260101   2.686   2.070   3.985  2.2620  0.9380  0.0260
12896TIP3   OH260102   2.849   5.778  13.749  0.2690 -0.5191  0.0115
12896TIP3    H160103   2.862   5.703  13.692 -0.0647 -0.2789 -0.3797
12896TIP3    H260104   2.887   5.751  13.833  0.3207 -1.0524 -0.1816
12897TIP3   OH260105   5.701   6.597  16.851  0.3217  0.0108 -0.6754
12897TIP3    H160106   5.767   6.536  16.884 -1.8204 -1.4761  1.0233
12897TIP3    H260107   5.689   6.573  16.759  1.5911 -0.1925 -0.7984
12898TIP3   OH260108   3.845   1.436   5.701 -0.2082 -0.1357 -0.2004
12898TIP3    H160109   3.889   1.356   5.670  0.4840  0.3947 -0.6110
12898TIP3    H260110   3.775   1.405   5.758  0.5014 -1.0163  0.1996
12899TIP3   OH260111   4.547   3.389   2.633 -0.0748  0.5626 -0.0636
12899TIP3    H160112   4.552   3.484   2.634 -0.0589  0.6167 -2.8394
12899TIP3    H260113   4.468   3.369   2.582  0.0697 -0.9081  0.2571
12900TIP3   OH260114   2.302   4.184   5.696 -0.4767 -0.1597  0.1345
12900TIP3    H160115   2.299   4.278   5.677  1.1889 -0.1048  0.0498
12900TIP3    H260116   2.311   4.180   5.791 -0.4649 -0.2269  0.1308
12901TIP3   OH260117   4.085   4.988   5.416  0.1903  0.0366  0.1134
12901TIP3    H160118   4.131   4.907   5.391  0.4131 -0.0771  0.8700
12901TIP3    H260119   4.154   5.044   5.452 -0.3985 -0.5371  2.2404
12902TIP3   OH260120   6.559   3.713  11.798  0.4877 -0.1757  0.1188
12902TIP3    H160121   6.605   3.796  11.811  1.2168 -0.3552 -1.2325
12902TIP3    H260122   6.474   3.726  11.840 -0.3640  2.1343 -2.2121
12903TIP3   OH260123   3.541   4.735  12.756 -0.8319 -0.0466  0.0365
12903TIP3    H160124   3.615   4.773  12.710  0.9885 -0.8755  2.1936
12903TIP3    H260125   3.506   4.669  12.697  1.7050 -1.3956 -0.0259
12904TIP3   OH260126   4.008   6.555  14.831 -0.0629 -0.4837 -0.6287
12904TIP3    H160127   3.959   6.623  14.785  0.4612 -0.4536 -1.1413
12904TIP3    H260128   3.956   6.537  14.909  0.0220  0.8181 -0.2689
12905TIP3   OH260129   5.388   5.615  11.453  0.3901  0.2936  0.2762
12905TIP3    H160130   5.310   5.568  11.422  0.8467 -0.4687  0.2746
12905TIP3    H260131   5.404   5.681  11.385  0.9240 -0.8608 -0.7516
12906TIP3   OH260132   4.076   1.857  11.048 -0.4248 -0.5395  0.3874
12906TIP3    H160133   4.083   1.808  10.966  1.3924 -3.2761  2.0658
12906TIP3    H260134   4.166   1.869  11.077 -0.8195  3.8302  0.1199
12907TIP3   OH260135   6.609   1.902  14.409 -0.1363  0.2957 -0.3026
12907TIP3    H160136   6.560   1.893  14.491  1.7553 -0.3310  0.8117
12907TIP3    H260137   6.680   1.838  14.417 -0.0392  0.0802 -2.5503
12908TIP3   OH260138   4.171   6.145   5.260  0.1280 -0.4396 -0.3383
12908TIP3    H160139   4.085   6.147   5.218  0.6937  0.0880 -1.4729
12908TIP3    H260140   4.227   6.097   5.200  1.0643  0.7578 -0.4562
12909TIP3   OH260141   5.930   4.177  13.515 -0.1579  0.0935  0.3818
12909TIP3    H160142   5.983   4.190  13.437 -0.1215 -1.3323  0.1577
12909TIP3    H260143   5.863   4.114  13.489  0.4073 -1.1131  1.7329
12910TIP3   OH260144   3.788   3.569  13.890  0.2766  0.0749  0.1377
12910TIP3    H160145   3.819   3.543  13.803  0.6875  0.3362  0.2000
12910TIP3    H260146   3.694   3.553  13.888  0.5491 -1.5933  0.2583
12911TIP3   OH260147   4.806   2.808  16.695 -0.1168  0.4209  0.1900
12911TIP3    H160148   4.888   2.793  16.742 -0.8484  1.6699  1.9263
12911TIP3    H260149   4.745   2.743  16.732 -0.7639  1.5714  1.1906
12912TIP3   OH260150   1.783   0.702   2.738  0.2246 -0.1836  0.0454
12912TIP3    H160151   1.699   0.659   2.721  0.1192 -0.0985  0.3449
12912TIP3    H260152   1.764   0.795   2.726  0.4583 -0.2246 -0.6302
12913TIP3   OH260153   0.255   4.161  15.814  0.1295 -0.0468 -0.5880
12913TIP3    H160154   0.336   4.183  15.767  1.0555 -0.5508  0.7130
12913TIP3    H260155   0.270   4.192  15.903 -1.0004 -0.4264 -0.2561
12914TIP3   OH260156   2.904   3.402   1.475  0.0245  0.2284  0.6472
12914TIP3    H160157   2.883   3.384   1.567  1.3052  0.5859  1.0324
12914TIP3    H260158   2.829   3.370   1.426 -0.9353  0.5708  1.8704
12915TIP3   OH260159   3.709   3.479  13.041  0.3213  0.3650 -0.0503
12915TIP3    H160160   3.639   3.422  13.072 -0.3579  0.9593 -0.4912
12915TIP3    H260161   3.755   3.506  13.121  0.3372 -0.3837  0.2010
12916TIP3   OH260162   4.971   3.621   6.087  0.8941  0.1411  0.0895
12916TIP3    H160163   4.972   3.525   6.087  0.9334  0.1202 -2.2565
12916TIP3    H260164   5.060   3.645   6.115  0.1805 -0.4411  3.0920
12917TIP3   OH260165   1.830   1.751   6.197 -0.6644  0.4474 -0.1356
12917TIP3    H160166   1.859   1.666   6.165 -0.0612  1.0420 -1.2043
12917TIP3    H260167   1.911   1.798   6.217 -0.9791  0.9079  0.0693
12918TIP3   OH260168   3.204   6.499  11.478  0.2083  0.4997 -0.0162
12918TIP3    H160169   3.281   6.553  11.494 -2.6761  5.4416 -1.4552
12918TIP3    H260170   3.205   6.482  11.384  0.3328 -0.7948  0.2069
12919TIP3   OH260171   0.346   3.500  14.750  0.0431 -0.1132  0.6595
12919TIP3    H160172   0.424   3.517  14.802  1.2961  0.3495 -1.2946
12919TIP3    H260173   0.277   3.553  14.790  0.8815 -0.0589  2.0315
12920TIP3   OH260174   5.643   0.317  13.679  0.9394 -0.4191 -0.1468
12920TIP3    H160175   5.585   0.293  13.606 -0.8844  0.6541  0.8969
12920TIP3    H260176   5.616   0.260  13.751  1.5550 -0.2781  0.1987
12921TIP3   OH260177   3.511   2.848   5.637 -0.1046 -0.2732  0.2194
12921TIP3    H160178   3.513   2.904   5.559  1.9914  1.6343  1.5769
12921TIP3    H260179   3.496   2.760   5.604  1.4804  0.4105 -2.4003
12922TIP3   OH260180   6.734   4.798   5.663 -0.3553 -0.0478  0.6119
12922TIP3    H160181   6.661   4.841   5.619  0.4734 -0.7091 -1.4737
12922TIP3    H260182   6.810   4.852   5.642  0.7349 -2.5505 -2.2370
12923TIP3   OH260183   3.016   4.489   3.592  0.0477  0.1254  0.1207
12923TIP3    H160184   3.039   4.582   3.584 -0.0790  0.1971  0.5772
12923TIP3    H260185   3.097   4.443   3.571 -0.1680  0.3104 -1.1698
12924TIP3   OH260186   4.449   3.754  10.965 -0.1788 -0.3270  0.0943
12924TIP3    H160187   4.482   3.831  11.012 -0.5019  0.0010 -0.2030
12924TIP3    H260188   4.359   3.777  10.942 -0.2527 -0.7645 -0.0649
12925TIP3   OH260189   1.869   6.115  13.974 -0.2936 -0.0633 -0.6305
12925TIP3    H160190   1.792   6.166  13.949  0.6683  0.8523 -1.7873
12925TIP3    H260191   1.944   6.171  13.952  0.6832  0.3403  3.3028
12926TIP3   OH260192   1.948   0.197   3.412  0.2360 -0.1607  0.6031
12926TIP3    H160193   1.903   0.120   3.448  0.0425  0.6487  2.1377
12926TIP3    H260194   1.919   0.269   3.468  1.0799  0.8828 -0.3030
12927TIP3   OH260195   2.793   4.368  10.494 -0.0756  0.0606 -0.3647
12927TIP3    H160196   2.798   4.309  10.569 -0.0244  0.9583  0.3301
12927TIP3    H260197   2.722   4.427  10.514 -1.5895 -1.1215 -2.0510
12928TIP3   OH260198   3.032   0.879  16.030 -0.0500  0.4269 -0.0479
12928TIP3    H160199   2.971   0.812  16.061 -1.4658  2.5576  1.8634
12928TIP3    H260200   3.111   0.865  16.082 -0.4325  0.4056  0.5311
12929TIP3   OH260201   2.221   6.027   4.734 -0.5059 -0.0766  0.1644
12929TIP3    H160202   2.158   6.056   4.801  0.3834  0.4159  0.8013
12929TIP3    H260203   2.291   5.985   4.784  0.5324  0.9706 -0.3817
12930TIP3   OH260204   0.528   5.267  15.221  0.7369 -0.4280 -0.1201
12930TIP3    H160205   0.507   5.327  15.292  0.1946 -0.1959 -0.4720
12930TIP3    H260206   0.489   5.184  15.247  1.2377 -0.5611  0.2280
12931TIP3   OH260207   4.436   4.793   2.665  0.0732 -0.0384  0.3962
12931TIP3    H160208   4.522   4.754   2.683  1.2535  1.2709 -2.1182
12931TIP3    H260209   4.445   4.884   2.695 -0.7101 -0.1077  0.8416
12932TIP3   OH260210   6.320   1.720   5.362  0.3360  0.2252  0.7715
12932TIP3    H160211   6.282   1.775   5.430  0.9344  1.5958  0.0274
12932TIP3    H260212   6.247   1.703   5.302  0.3280  0.8633  0.5959
12933TIP3   OH260213   3.591   3.207   2.451  0.0745 -0.1507 -0.4845
12933TIP3    H160214   3.627   3.118   2.447 -0.3735 -0.2806 -1.9172
12933TIP3    H260215   3.508   3.197   2.497 -0.8374 -0.7814 -2.2228
12934TIP3   OH260216   4.558   2.012   1.985 -0.1298  0.1536 -0.0832
12934TIP3    H160217   4.584   2.075   1.918  0.0394  0.7897  0.5845
12934TIP3    H260218   4.483   1.967   1.946  0.2419  0.2124 -0.8841
12935TIP3   OH260219   0.624   2.978   1.910 -0.1986 -0.4479  0.1122
12935TIP3    H160220   0.577   2.905   1.951 -0.4955  0.0410  0.6374
12935TIP3    H260221   0.620   2.959   1.816 -1.7699 -0.2004  0.1318
12936TIP3   OH260222   5.474   0.493  17.092 -0.0088  0.3767 -0.5719
12936TIP3    H160223   5.469   0.412  17.042 -0.6958  0.7562 -1.1256
12936TIP3    H260224   5.400   0.490  17.152  0.1677  0.4290 -0.3513
12937TIP3   OH260225   3.100   0.030  12.307 -0.0392  0.3336 -0.6163
12937TIP3    H160226   3.054   0.105  12.268 -0.8234 -0.3045 -0.9406
12937TIP3    H260227   3.111  -0.031  12.234 -0.6646 -0.4603 -0.0609
12938TIP3   OH260228   2.682   3.972   1.481 -0.1550  0.3545 -0.2536
12938TIP3    H160229   2.592   3.980   1.513  0.2481  0.9820  0.7528
12938TIP3    H260230   2.691   3.879   1.461 -0.9213  0.2215 -0.0134
12939TIP3   OH260231   1.953   1.683  13.337 -0.0965 -0.0999 -0.4419
12939TIP3    H160232   1.980   1.709  13.425  0.3159 -0.2268 -0.5279
12939TIP3    H260233   1.946   1.588  13.342  0.1761 -0.1298 -0.6126
12940TIP3   OH260234   0.745   2.994  14.665 -0.8694 -0.4639 -0.6105
12940TIP3    H160235   0.758   2.972  14.757 -1.8939  1.0452 -0.0965
12940TIP3    H260236   0.834   2.999  14.629 -0.4800 -1.5939  0.1603
12941TIP3   OH260237   2.565   2.669   6.234  0.2931 -0.3027  0.2808
12941TIP3    H160238   2.494   2.643   6.175 -0.5539  1.1400  0.6357
12941TIP3    H260239   2.538   2.637   6.320 -0.0091  0.3575  0.4386
12942TIP3   OH260240   2.248   3.148   5.127  0.4303 -0.5367  0.2629
12942TIP3    H160241   2.313   3.102   5.074 -0.6076 -1.8740  0.1177
12942TIP3    H260242   2.230   3.088   5.200 -1.7422 -0.8835 -0.5026
12943TIP3   OH260243   0.825   2.549   2.120  0.0592 -0.4403 -0.0625
12943TIP3    H160244   0.881   2.476   2.146  1.7492 -0.2474 -2.8981
12943TIP3    H260245   0.848   2.619   2.181 -0.4435 -1.7757  1.6941
12944TIP3   OH260246   3.728   5.358  10.553 -0.0492 -0.8681 -0.4766
12944TIP3    H160247   3.747   5.448  10.576 -1.6785 -0.1948 -1.6269
12944TIP3    H260248   3.812   5.321  10.527  0.9098 -0.1821  1.5904
12945TIP3   OH260249   0.678   0.660   5.861 -0.2037 -0.0569 -0.3921
12945TIP3    H160250   0.686   0.572   5.899 -0.7252 -0.0051 -0.1548
12945TIP3    H260251   0.748   0.710   5.904  0.6815 -0.5820 -1.2036
12946TIP3   OH260252   6.777   1.326   1.619 -0.2633  0.5585  0.4676
12946TIP3    H160253   6.688   1.349   1.596 -0.9808 -2.2171  0.2969
12946TIP3    H260254   6.805   1.265   1.551  0.9599 -0.3345  1.7258
12947TIP3   OH260255   3.758   0.333   5.557 -0.0681  0.6240 -0.2594
12947TIP3    H160256   3.769   0.328   5.651  2.3611  2.1152 -0.4451
12947TIP3    H260257   3.836   0.292   5.521 -1.6667 -1.3029 -1.6564
12948TIP3   OH260258   0.662   4.012  13.161 -0.6128 -0.0607 -0.0559
12948TIP3    H160259   0.649   4.036  13.069 -0.5660 -0.9314 -0.3000
12948TIP3    H260260   0.695   4.091  13.202  2.1524 -0.4307 -1.4230
12949TIP3   OH260261   5.040   3.052   2.196 -0.0060 -0.5077 -0.0004
12949TIP3    H160262   4.971   3.092   2.145  0.1861 -0.1796 -0.0060
12949TIP3    H260263   5.066   3.119   2.259  0.0673 -0.7499  0.2304
12950TIP3   OH260264   0.900   3.435  13.540 -0.4080 -0.3859 -0.3621
12950TIP3    H160265   0.927   3.404  13.453  1.2730  0.2089 -0.0763
12950TIP3    H260266   0.910   3.360  13.597 -1.6201 -0.8094 -0.6893
12951TIP3   OH260267   2.157   2.650  14.576 -0.5667 -0.1503  0.0485
12951TIP3    H160268   2.139   2.744  14.576 -1.0968 -0.2373 -1.1745
12951TIP3    H260269   2.112   2.617  14.498  0.9511 -1.1633 -0.4247
12952TIP3   OH260270   6.420   0.580   5.609  0.1090  0.4786 -0.5637
12952TIP3    H160271   6.490   0.560   5.670 -0.6626 -0.0044  0.1685
12952TIP3    H260272   6.342   0.590   5.663 -0.4865  0.5706 -1.4125
12953TIP3   OH260273   4.632   3.297   0.967  0.1015  0.1218 -0.0631
12953TIP3    H160274   4.686   3.375   0.976  0.8019 -0.6476  2.7702
12953TIP3    H260275   4.546   3.323   0.998  0.1367 -0.0223  0.1565
12954TIP3   OH260276   5.807   0.835   0.396 -0.0926  0.5029 -0.6895
12954TIP3    H160277   5.879   0.886   0.358 -1.6617  3.5835  0.3074
12954TIP3    H260278   5.850   0.761   0.438  2.3650  1.4823 -1.3801
12955TIP3   OH260279   0.228   0.435   1.025 -1.1616 -0.4863  0.0180
12955TIP3    H160280   0.265   0.375   0.960 -1.5234 -0.7341  0.0388
12955TIP3    H260281   0.269   0.519   1.006 -1.6981 -0.4270 -0.9074
12956TIP3   OH260282   5.546   3.258   1.460  0.4422 -0.0939 -0.3619
12956TIP3    H160283   5.623   3.202   1.452  1.4224  0.8157  2.0871
12956TIP3    H260284   5.582   3.346   1.475 -1.0691  0.5213 -0.1989
12957TIP3   OH260285   2.188   3.605  11.250  0.1253  0.1197  0.0941
12957TIP3    H160286   2.184   3.669  11.320 -0.3937  0.0736  0.1101
12957TIP3    H260287   2.258   3.637  11.192  1.5101 -0.5972  1.3549
12958TIP3   OH260288   0.431   4.768   3.898  0.3347  0.1582  0.0235
12958TIP3    H160289   0.437   4.746   3.991  0.0130 -0.7716 -0.1681
12958TIP3    H260290   0.489   4.844   3.887 -0.2993  0.8146  1.1475
12959TIP3   OH260291   6.131   3.381  17.016 -0.4046  0.2444 -0.1837
12959TIP3    H160292   6.048   3.425  16.995  0.3238  1.1573 -1.1939
12959TIP3    H260293   6.143   3.318  16.946  0.2922  0.8747 -0.6418
12960TIP3   OH260294   1.364   6.306   4.933  0.2832  0.4618  0.3251
12960TIP3    H160295   1.423   6.324   5.007  2.0178  0.3180 -0.9920
12960TIP3    H260296   1.340   6.214   4.944  0.8674  0.3215  0.4865
12961TIP3   OH260297   3.170   0.592  15.560  0.1563 -0.0714 -0.5023
12961TIP3    H160298   3.215   0.627  15.484  0.2155 -1.0244 -0.9104
12961TIP3    H260299   3.098   0.653  15.576  0.6995  0.6435 -0.7420
12962TIP3   OH260300   1.461   0.444  11.183 -0.2039  0.3698  0.0897
12962TIP3    H160301   1.518   0.383  11.137  2.5013  2.2737  0.8100
12962TIP3    H260302   1.454   0.520  11.125  0.6690  1.4880  1.4167
12963TIP3   OH260303   6.058   3.588  11.868 -0.5394 -0.0577 -0.2115
12963TIP3    H160304   6.064   3.493  11.855 -1.0701 -0.0593 -0.4911
12963TIP3    H260305   6.040   3.598  11.961 -1.3335 -0.2818 -0.3280
12964TIP3   OH260306   3.538   2.976   5.407 -0.3882  0.1606 -0.1320
12964TIP3    H160307   3.588   3.037   5.354 -1.0677 -2.1708 -3.6239
12964TIP3    H260308   3.491   2.922   5.344 -0.2622 -3.6047  2.7949
12965TIP3   OH260309   2.614   0.386   4.337 -0.5673  0.0283  0.5824
12965TIP3    H160310   2.522   0.402   4.317 -1.1706 -3.1285  0.6690
12965TIP3    H260311   2.630   0.435   4.418 -1.7520  1.6819 -0.1425
12966TIP3   OH260312   2.470   4.269   5.058 -0.5755  0.1250 -0.1132
12966TIP3    H160313   2.409   4.244   5.127  0.1746 -3.6526 -0.6884
12966TIP3    H260314   2.556   4.260   5.098 -0.1988 -0.5496 -1.0562
12967TIP3   OH260315   1.620   2.724  11.772 -0.0717  0.2722 -0.0660
12967TIP3    H160316   1.559   2.794  11.795 -0.5432 -0.3456  0.5978
12967TIP3    H260317   1.582   2.683  11.695  0.9882  1.7013 -1.3856
12968TIP3   OH260318   3.289   0.298   3.412  0.0502 -0.4323  0.5025
12968TIP3    H160319   3.262   0.232   3.476  0.9458  0.4001  1.7546
12968TIP3    H260320   3.210   0.350   3.397  0.2862  0.5222  2.3654
12969TIP3   OH260321   6.097   5.861   4.268  0.2864 -0.2026 -0.5080
12969TIP3    H160322   6.172   5.894   4.316  0.3715  0.5666 -1.1582
12969TIP3    H260323   6.029   5.849   4.334  0.6707  0.0352 -0.0735
12970TIP3   OH260324   1.845   0.595   0.283 -0.2553  0.0617 -0.2873
12970TIP3    H160325   1.888   0.540   0.217 -0.4603 -2.2080  1.3922
12970TIP3    H260326   1.754   0.601   0.253  0.0575  0.5866 -1.1582
12971TIP3   OH260327   0.050   1.719  13.429  0.2516 -0.1670 -0.1811
12971TIP3    H160328   0.111   1.651  13.458  1.7660  1.5516  0.7396
12971TIP3    H260329   0.058   1.788  13.494 -0.1375  1.5411 -1.9007
12972TIP3   OH260330   0.126   1.853  13.172  0.5426  0.2739  0.7587
12972TIP3    H160331   0.138   1.758  13.174  0.7658  0.2894  0.1582
12972TIP3    H260332   0.056   1.869  13.235  0.6832 -0.2616  1.0573
12973TIP3   OH260333   1.481   5.343  10.516 -0.4235  0.2022 -0.0705
12973TIP3    H160334   1.405   5.285  10.526  0.9273 -1.5855  0.0734
12973TIP3    H260335   1.518   5.349  10.604  0.8968 -0.7812 -0.5390
12974TIP3   OH260336   2.185   5.713   1.292 -0.3597 -0.3284 -0.0485
12974TIP3    H160337   2.230   5.630   1.276 -1.7450 -0.5946 -2.7251
12974TIP3    H260338   2.250   5.767   1.338  1.1670 -2.2393  0.0978
12975TIP3   OH260339   5.302   3.082  14.196 -0.5897 -0.1725 -0.0527
12975TIP3    H160340   5.244   3.070  14.271  0.7863  0.3294  1.1184
12975TIP3    H260341   5.356   3.003  14.193  0.7795  0.7022  0.7853
12976TIP3   OH260342   2.475   4.954  14.506  0.1700 -0.1192 -0.3747
12976TIP3    H160343   2.485   4.911  14.591 -1.6374 -0.2229 -0.1986
12976TIP3    H260344   2.381   4.950  14.488  0.4351  0.6349 -2.0004
12977TIP3   OH260345   6.493   1.897   4.607 -0.0979  0.5136  0.1805
12977TIP3    H160346   6.576   1.897   4.654 -0.0684  0.2465  0.1287
12977TIP3    H260347   6.513   1.858   4.522  0.1657  2.3085 -0.6221
12978TIP3   OH260348   1.741   6.357   2.008 -0.7164  0.9667  0.4625
12978TIP3    H160349   1.651   6.365   1.977 -0.3530  1.3288 -0.5271
12978TIP3    H260350   1.777   6.285   1.957 -0.0939  1.6036 -0.0097
12979TIP3   OH260351   1.560   0.590  11.661  0.1623 -0.7032  0.4469
12979TIP3    H160352   1.510   0.595  11.742 -1.1327 -2.1346 -0.2327
12979TIP3    H260353   1.544   0.673  11.617  0.2754 -0.2190  1.3214
12980TIP3   OH260354   5.143   1.530   1.001 -0.4344 -0.0153 -0.7948
12980TIP3    H160355   5.231   1.541   0.966 -1.1100  0.6635 -2.3518
12980TIP3    H260356   5.096   1.609   0.973 -1.2737  0.1163  0.8758
12981TIP3   OH260357   0.221   3.806   3.571  0.0344 -0.5283 -0.0647
12981TIP3    H160358   0.241   3.810   3.664  0.0079 -1.0592 -0.0310
12981TIP3    H260359   0.225   3.896   3.541  0.7896 -0.4385  0.2986
12982TIP3   OH260360   6.438   3.872  16.163 -0.1422 -0.3990  0.1983
12982TIP3    H160361   6.404   3.828  16.085 -1.5497  0.6478  0.1947
12982TIP3    H260362   6.359   3.897  16.212  0.6904  0.3650  1.1573
12983TIP3   OH260363   5.229   4.467  17.109 -0.1170 -0.3083  0.0159
12983TIP3    H160364   5.246   4.519  17.030  0.3458  0.3393  0.5410
12983TIP3    H260365   5.150   4.505  17.147  0.2838  0.0798  0.4586
12984TIP3   OH260366   6.714   2.817   1.553 -0.3267  0.4945 -1.0548
12984TIP3    H160367   6.718   2.788   1.644  0.2012 -0.1797 -1.2901
12984TIP3    H260368   6.663   2.749   1.509 -1.1265  1.1380 -1.1486
12985TIP3   OH260369   3.932   4.680   0.640  0.5679 -0.2543 -0.0419
12985TIP3    H160370   4.019   4.716   0.620  0.7879 -1.0387 -0.5259
12985TIP3    H260371   3.871   4.747   0.608  0.9923  0.5935  0.8858
12986TIP3   OH260372   4.299   2.144  11.856  0.1360 -0.3887  0.6544
12986TIP3    H160373   4.215   2.102  11.838 -0.0188 -0.1367  0.7852
12986TIP3    H260374   4.276   2.231  11.886  0.4443 -0.3510  0.7805
12987TIP3   OH260375   0.748   6.273  15.462 -0.2632  0.2797 -0.2266
12987TIP3    H160376   0.835   6.253  15.499 -0.7144 -1.1919  0.0716
12987TIP3    H260377   0.757   6.362  15.427  1.1554  0.4200  0.4460
12988TIP3   OH260378   1.831   5.808  16.779  0.5906 -0.4459 -0.3709
12988TIP3    H160379   1.853   5.759  16.699 -0.2042 -0.9147 -0.3156
12988TIP3    H260380   1.899   5.783  16.841  0.8500 -0.5805 -0.7029
12989TIP3   OH260381   3.444   0.857   4.165  0.0493  0.0663  0.0882
12989TIP3    H160382   3.352   0.860   4.191 -0.5110 -1.1522 -1.5955
12989TIP3    H260383   3.474   0.770   4.192 -0.0329 -0.5145 -1.6427
12990TIP3   OH260384   6.734   2.857  14.809 -0.1542 -0.2000 -0.1840
12990TIP3    H160385   6.696   2.926  14.863 -0.1948 -0.2818 -0.1075
12990TIP3    H260386   6.829   2.870  14.816 -0.1661 -0.0194 -0.3427
12991TIP3   OH260387   3.869   0.229   1.218 -0.4006 -0.1755 -0.3723
12991TIP3    H160388   3.825   0.286   1.156 -0.2281  0.7086  0.3080
12991TIP3    H260389   3.955   0.213   1.179  0.6029  2.2925  0.7171
12992TIP3   OH260390   2.120   6.346   4.177  0.4393 -0.7916 -0.2703
12992TIP3    H160391   2.067   6.272   4.148 -0.0156 -1.1167  1.3706
12992TIP3    H260392   2.177   6.310   4.245  2.4380 -0.3266 -1.6712
12993TIP3   OH260393   3.714   0.813   2.502  0.1355  0.6020  0.4084
12993TIP3    H160394   3.633   0.846   2.540 -0.1405  0.5669 -0.1549
12993TIP3    H260395   3.771   0.799   2.578 -0.8138 -0.5819  0.9364
12994TIP3   OH260396   1.484   5.396  12.641 -0.0056  0.1185 -0.0402
12994TIP3    H160397   1.399   5.374  12.679  0.3922  1.0605  1.4126
12994TIP3    H260398   1.490   5.491  12.649  0.4627  0.2580 -1.6862
12995TIP3   OH260399   0.553   3.042  15.383  0.6522  0.3170 -0.2485
12995TIP3    H160400   0.637   3.069  15.346  1.2385 -1.9099 -0.6214
12995TIP3    H260401   0.559   2.946  15.389 -1.8043  0.1357 -0.1630
12996TIP3   OH260402   4.560   2.089   5.301  0.0800 -0.2407 -0.0437
12996TIP3    H160403   4.626   2.111   5.236  2.5217  0.5436  2.5906
12996TIP3    H260404   4.486   2.146   5.280  0.5879 -0.3794 -2.4066
12997TIP3   OH260405   4.528   6.643   6.063  0.9259  0.1838 -0.4020
12997TIP3    H160406   4.492   6.672   5.980 -0.3758 -1.3972 -0.3972
12997TIP3    H260407   4.458   6.591   6.104  2.5011 -1.3335  0.4499
12998TIP3   OH260408   6.041   0.163  11.036  0.1798 -0.5236 -0.1676
12998TIP3    H160409   6.098   0.145  10.961 -0.1114 -1.6204 -0.1457
12998TIP3    H260410   6.029   0.258  11.036  0.3174 -0.4967 -1.4200
12999TIP3   OH260411   1.250   0.434  13.929 -0.2135 -0.1801 -0.2124
12999TIP3    H160412   1.277   0.487  13.854 -0.8569  2.4382  1.3194
12999TIP3    H260413   1.279   0.485  14.005 -3.0900 -0.7914  1.3686
13000TIP3   OH260414   3.469   1.379  13.984  0.0379 -0.2776 -0.3107
13000TIP3    H160415   3.392   1.436  13.979  0.7742  0.9195  1.4277
13000TIP3    H260416   3.433   1.292  14.004 -0.8692  0.2654  0.4557
13001TIP3   OH260417   3.511   0.909   0.481  0.3289  0.3041  0.0642
13001TIP3    H160418   3.466   0.855   0.417 -0.7246  2.0203 -0.6703
13001TIP3    H260419   3.484   0.998   0.461  0.7903  0.9658  2.2449
13002TIP3   OH260420   4.266   0.264  13.042  0.3915  0.4186  0.1882
13002TIP3    H160421   4.195   0.217  13.000  0.7537 -0.4595  0.5502
13002TIP3    H260422   4.224   0.340  13.083 -0.4204 -0.3949  0.8738
13003TIP3   OH260423   3.871   1.598   1.682 -0.6937  0.4020  0.0068
13003TIP3    H160424   3.939   1.563   1.625 -0.0242  1.5208  0.1078
13003TIP3    H260425   3.897   1.689   1.699 -1.8048  0.6166  0.6651
13004TIP3   OH260426   0.782   3.574  13.257  0.6472 -0.4095  0.1534
13004TIP3    H160427   0.870   3.551  13.229  0.7245  1.1984 -0.9426
13004TIP3    H260428   0.740   3.611  13.179  0.0972  1.9394  1.5109
13005TIP3   OH260429   2.287   0.246  12.182 -0.0376  0.1262  0.5224
13005TIP3    H160430   2.265   0.155  12.201  1.9334 -0.4303  0.1861
13005TIP3    H260431   2.382   0.248  12.177 -0.0607  2.1667  0.2785
13006TIP3   OH260432   4.394   3.208  12.713  0.3793 -0.4245 -0.0238
13006TIP3    H160433   4.381   3.289  12.665  0.3474 -0.1905  0.3711
13006TIP3    H260434   4.427   3.236  12.799  0.7885 -0.8529 -0.0351
13007TIP3   OH260435   4.171   5.335   5.086  0.7598  0.3363 -0.3594
13007TIP3    H160436   4.225   5.263   5.055 -1.8460 -1.3222 -1.2605
13007TIP3    H260437   4.126   5.367   5.008  1.8160  2.9122  0.0467
13008TIP3   OH260438   5.377   0.390   3.250  0.2588 -0.1312 -0.7273
13008TIP3    H160439   5.332   0.311   3.278  0.4631  0.0328  0.0815
13008TIP3    H260440   5.352   0.401   3.158 -1.8466  0.2700 -0.1539
13009TIP3   OH260441   1.944   5.383  14.957  0.3142  0.0289  0.4293
13009TIP3    H160442   1.945   5.351  15.047  0.8683  0.8080  0.7048
13009TIP3    H260443   2.033   5.414  14.942  0.4040 -0.7043 -0.6140
13010TIP3   OH260444   3.110   6.091  16.611  0.0759  0.4954  0.6364
13010TIP3    H160445   3.111   6.186  16.609 -3.4091  0.5959 -0.3074
13010TIP3    H260446   3.027   6.069  16.654 -0.6433 -2.0844 -1.9057
13011TIP3   OH260447   2.741   2.525   2.961  0.1789  0.6478  1.1044
13011TIP3    H160448   2.799   2.452   2.983 -0.4583 -0.3146 -0.3097
13011TIP3    H260449   2.668   2.517   3.021 -0.1030 -0.1527  0.6612
13012TIP3   OH260450   1.834   1.755   5.145  0.1581 -0.1083  0.0049
13012TIP3    H160451   1.891   1.762   5.069 -0.5019 -2.3382 -0.7182
13012TIP3    H260452   1.745   1.761   5.109 -0.1468 -0.3403  0.7053
13013TIP3   OH260453   5.415   3.181  14.499  0.0233  0.3691 -0.2612
13013TIP3    H160454   5.337   3.130  14.476  0.5532 -0.7117  0.3122
13013TIP3    H260455   5.481   3.152  14.436  0.2287  0.6351 -0.1678
13014TIP3   OH260456   2.239   5.448  15.653 -0.0977  0.3177  0.7232
13014TIP3    H160457   2.271   5.379  15.594 -0.1588 -0.3754  1.4858
13014TIP3    H260458   2.248   5.529  15.603 -0.6877 -0.3308 -0.4540
13015TIP3   OH260459   2.817   6.375  11.301  0.1866 -0.1349 -0.2984
13015TIP3    H160460   2.885   6.341  11.243  1.0204  0.6737  0.1929
13015TIP3    H260461   2.860   6.443  11.352 -0.6737 -0.4424  0.8760
13016TIP3   OH260462   3.894   1.146  11.735  0.0553 -0.0084 -0.2658
13016TIP3    H160463   3.813   1.158  11.784  0.3671 -1.0391  0.5094
13016TIP3    H260464   3.868   1.151  11.643 -0.6253  1.3275 -0.0150
13017TIP3   OH260465   0.390   1.039   0.391 -0.7155 -0.5563 -0.3517
13017TIP3    H160466   0.426   1.089   0.318 -0.4245 -0.8972 -0.4438
13017TIP3    H260467   0.296   1.059   0.389 -0.7713 -0.8428 -1.0448
13018TIP3   OH260468   0.396   6.293   3.655 -0.1222 -0.4127 -0.5325
13018TIP3    H160469   0.348   6.368   3.690  1.2684  0.6343 -0.8159
13018TIP3    H260470   0.416   6.318   3.564  2.3804 -0.0976  0.0669
13019TIP3   OH260471   4.880   6.606  17.171 -0.0213  0.4068  0.1461
13019TIP3    H160472   4.866   6.538  17.105  0.6294  1.4337 -1.0702
13019TIP3    H260473   4.849   6.567  17.253 -0.9467 -0.8448 -0.7827
13020TIP3   OH260474   3.478   0.536  12.325 -0.4651  0.3624 -0.1652
13020TIP3    H160475   3.499   0.608  12.265  0.8725  0.4361  0.3763
13020TIP3    H260476   3.390   0.508  12.299 -0.6395  1.6014 -0.9644
13021TIP3   OH260477   6.690   5.585   0.848 -0.3104  0.4900  0.2782
13021TIP3    H160478   6.737   5.631   0.918 -0.8966 -1.3734  1.9333
13021TIP3    H260479   6.748   5.590   0.772  1.5507  0.1977  1.6535
13022TIP3   OH260480   3.957   3.357  12.030 -0.0342  0.5658 -0.0747
13022TIP3    H160481   3.909   3.378  11.950 -0.6470  0.3837  0.2398
13022TIP3    H260482   3.940   3.431  12.088 -1.3717 -0.2868  0.6672
13023TIP3   OH260483   2.415   3.186  16.430  0.2126 -1.2924 -0.4593
13023TIP3    H160484   2.478   3.116  16.442  0.1977 -1.3124 -0.4969
13023TIP3    H260485   2.359   3.182  16.508  2.2830  0.8171  1.1873
13024TIP3   OH260486   0.731   3.624  12.987  0.3655  0.1812  0.0757
13024TIP3    H160487   0.776   3.708  12.989 -1.3506  1.1188  0.9951
13024TIP3    H260488   0.705   3.612  12.896  2.6993 -0.5297 -0.5291
13025TIP3   OH260489   3.393   2.496  15.862 -0.1321  0.2296  0.6009
13025TIP3    H160490   3.310   2.455  15.889  0.4658 -1.1654  0.3852
13025TIP3    H260491   3.390   2.583  15.901 -0.4244 -0.8188  3.0843
13026TIP3   OH260492   3.118   2.334   5.064 -0.1861 -0.8323  0.0413
13026TIP3    H160493   3.108   2.429   5.058  5.0430 -0.2453 -1.6282
13026TIP3    H260494   3.046   2.306   5.121 -2.5151  3.9227 -0.3070
13027TIP3   OH260495   0.348   6.019   2.570  0.4139 -0.3685 -0.0223
13027TIP3    H160496   0.436   6.031   2.604 -0.5627 -0.6860  2.6912
13027TIP3    H260497   0.350   6.060   2.483  2.7601  1.0592  0.6832
13028TIP3   OH260498   2.950   1.534  12.288 -0.3832  0.5317  0.2125
13028TIP3    H160499   2.870   1.572  12.324 -0.7655 -0.9385  0.9660
13028TIP3    H260500   2.961   1.576  12.203 -1.7548  1.0197  0.2660
13029TIP3   OH260501   5.180   2.668  11.782 -0.0746  0.2378  0.2475
13029TIP3    H160502   5.186   2.762  11.798  2.3414  0.1289  0.2662
13029TIP3    H260503   5.163   2.661  11.688 -0.9001  0.7095  0.3650
13030TIP3   OH260504   0.895   0.002  13.486  0.1399  0.1148  0.0417
13030TIP3    H160505   0.984   0.038  13.483  0.6816 -1.2659 -1.3465
13030TIP3    H260506   0.844   0.058  13.428  1.0755 -1.5214 -2.4466
13031TIP3   OH260507   2.491   2.310   2.170 -0.0940 -0.0837  0.2177
13031TIP3    H160508   2.513   2.272   2.085 -1.5854  0.7093 -0.5371
13031TIP3    H260509   2.525   2.399   2.165 -0.4115  0.0441  0.3644
13032TIP3   OH260510   2.642   3.913   2.822 -0.5667 -0.0805 -0.0155
13032TIP3    H160511   2.681   3.925   2.735 -1.3691  0.9711 -0.2464
13032TIP3    H260512   2.578   3.843   2.810  0.6589 -1.2564  0.1790
13033TIP3   OH260513   5.909   6.073  14.772 -0.0167 -0.0666  0.0392
13033TIP3    H160514   5.982   6.050  14.715 -0.4267  0.1757 -0.5860
13033TIP3    H260515   5.914   6.168  14.780 -0.8083  0.0508 -0.7538
13034TIP3   OH260516   2.635   6.179  13.453 -0.0165 -0.2197 -0.3913
13034TIP3    H160517   2.592   6.098  13.425  0.3804 -0.4855 -0.2392
13034TIP3    H260518   2.584   6.209  13.528 -0.6555  0.1094 -0.9514
13035TIP3   OH260519   4.222   4.732  12.539  0.5297  0.4998 -0.0590
13035TIP3    H160520   4.153   4.741  12.605 -0.5729 -2.1091 -0.7801
13035TIP3    H260521   4.286   4.672  12.579  0.1347 -0.6436 -1.0969
13036TIP3   OH260522   1.788   6.477   2.714 -0.1264 -1.0301  1.1279
13036TIP3    H160523   1.771   6.569   2.733  0.6558 -0.2947 -1.5620
13036TIP3    H260524   1.767   6.467   2.621 -0.5169 -3.6610  1.4477
13037TIP3   OH260525   3.790   4.910  15.802 -0.3033 -0.3884 -0.9692
13037TIP3    H160526   3.739   4.975  15.752 -0.0396  1.8748  1.5662
13037TIP3    H260527   3.871   4.956  15.823  0.1172 -1.7571  0.4163
13038TIP3   OH260528   1.056   4.183   4.887  0.2016 -0.0736 -0.9450
13038TIP3    H160529   0.977   4.217   4.928 -0.8163 -0.8310 -2.2591
13038TIP3    H260530   1.064   4.094   4.920  0.6051  0.0528 -0.6938
13039TIP3   OH260531   2.389   5.308   5.268 -0.3609  0.3239 -0.2676
13039TIP3    H160532   2.352   5.226   5.236 -0.6152  0.6132 -0.7100
13039TIP3    H260533   2.321   5.346   5.323 -0.2457  0.2431 -0.0686
13040TIP3   OH260534   1.120   5.588  17.162 -0.4720 -0.3761  0.6163
13040TIP3    H160535   1.077   5.559  17.082 -0.7386 -2.2538  1.4092
13040TIP3    H260536   1.213   5.594  17.138 -0.6407 -0.2556 -0.0169
13041TIP3   OH260537   6.567   0.643   3.770 -0.3543 -0.0530  0.1453
13041TIP3    H160538   6.514   0.594   3.707 -0.8126  1.1913 -0.4555
13041TIP3    H260539   6.653   0.602   3.766 -0.2561  0.2646 -1.6186
13042TIP3   OH260540   6.648   4.259   0.334  0.2983 -0.2348  0.3611
13042TIP3    H160541   6.684   4.179   0.372 -1.8856 -0.6898  1.6074
13042TIP3    H260542   6.609   4.305   0.409 -1.1224  0.5091 -0.8046
13043TIP3   OH260543   4.756   2.538   0.651 -0.3490  0.4999  0.0507
13043TIP3    H160544   4.712   2.460   0.615 -0.8265  0.9035 -0.2481
13043TIP3    H260545   4.831   2.503   0.698 -1.8071 -0.3201  1.8375
13044TIP3   OH260546   6.559   3.789   4.774 -0.0051 -0.6443 -0.7131
13044TIP3    H160547   6.616   3.786   4.852  0.7214 -2.8489 -1.2748
13044TIP3    H260548   6.619   3.777   4.701 -0.7330  1.0802 -1.6134
13045TIP3   OH260549   0.285   1.798   3.440 -0.0142  0.1599 -0.5407
13045TIP3    H160550   0.263   1.863   3.373 -1.6015  0.9136  0.6867
13045TIP3    H260551   0.200   1.767   3.472  0.7037  1.0132  2.2845
13046TIP3   OH260552   6.610   1.093   2.560  0.1355  0.3996  0.5784
13046TIP3    H160553   6.641   1.133   2.479  0.4031  1.1085  1.0179
13046TIP3    H260554   6.516   1.112   2.562 -0.2758 -1.4599 -0.5921
13047TIP3   OH260555   1.904   6.175   0.862 -0.3105  0.5638 -0.3413
13047TIP3    H160556   1.908   6.115   0.788 -0.6349 -0.5414  0.5184
13047TIP3    H260557   1.898   6.118   0.939 -0.3903  1.6934  0.5079
13048TIP3   OH260558   0.961   1.824  16.794  0.4422 -0.4546 -0.0921
13048TIP3    H160559   1.020   1.816  16.869  1.6268  0.7580 -0.8608
13048TIP3    H260560   0.934   1.916  16.795 -1.0879 -0.8873 -0.0310
13049TIP3   OH260561   4.419   3.554   3.794 -0.0202 -0.6492 -0.3523
13049TIP3    H160562   4.437   3.623   3.858  1.9349 -0.7333 -0.7709
13049TIP3    H260563   4.470   3.479   3.826 -1.1655 -1.5243 -0.5602
13050TIP3   OH260564   2.919   5.296   3.251 -0.1117  0.0262 -0.1837
13050TIP3    H160565   2.910   5.374   3.306  1.0502 -0.5493  0.8423
13050TIP3    H260566   2.840   5.245   3.269  0.5667 -0.4713  1.4831
13051TIP3   OH260567   3.189   0.101  11.607 -0.0984 -0.2445 -0.0674
13051TIP3    H160568   3.218   0.012  11.627  0.3613  0.0128  0.4139
13051TIP3    H260569   3.265   0.156  11.625 -0.5991  0.3278  0.3308
13052TIP3   OH260570   0.236   0.244  10.589 -0.6290 -0.5006 -0.5096
13052TIP3    H160571   0.225   0.338  10.578 -2.4542 -0.3556  1.9730
13052TIP3    H260572   0.311   0.221  10.534 -2.0860  1.8485 -3.6262
13053TIP3   OH260573   3.550   0.649   2.239  0.2856  0.0565  0.1458
13053TIP3    H160574   3.563   0.557   2.263 -0.5691 -0.4057 -1.1108
13053TIP3    H260575   3.620   0.668   2.177 -0.2642 -0.1030 -0.5251
13054TIP3   OH260576   6.433   4.393   3.158 -0.0493  0.2655 -0.5077
13054TIP3    H160577   6.341   4.394   3.134  0.0803 -1.1631 -1.1096
13054TIP3    H260578   6.455   4.300   3.166  0.5964  0.6082  2.5031
13055TIP3   OH260579   5.985   5.996   1.567 -0.6866 -0.7537 -0.6035
13055TIP3    H160580   5.898   6.016   1.600 -0.9438  0.0566 -1.7382
13055TIP3    H260581   6.044   6.009   1.641 -1.0338  2.6421 -0.8468
13056TIP3   OH260582   5.742   4.839  11.690  0.0549  0.4561 -0.5385
13056TIP3    H160583   5.796   4.911  11.724 -3.6401  3.8756 -1.5975
13056TIP3    H260584   5.719   4.788  11.767  1.0168  1.6254  0.5443
13057TIP3   OH260585   1.852   3.812   0.964  0.2615 -0.4048 -0.7394
13057TIP3    H160586   1.808   3.771   0.890  0.0925  0.3349 -1.0538
13057TIP3    H260587   1.805   3.781   1.041  2.9474 -4.5396 -0.5384
13058TIP3   OH260588   2.828   1.989   3.434 -0.3799  0.0613  0.5576
13058TIP3    H160589   2.859   2.037   3.511  2.4145 -2.3048  0.9535
13058TIP3    H260590   2.764   1.927   3.468  0.2996 -0.4650  0.8855
13059TIP3   OH260591   3.798   6.447   0.235  0.3724  0.0860  0.5915
13059TIP3    H160592   3.716   6.491   0.260 -0.0922 -0.0343 -0.6818
13059TIP3    H260593   3.772   6.385   0.167  1.7197  0.9892 -0.7753
13060TIP3   OH260594   1.577   4.601   3.626  0.3773 -0.3338  0.1779
13060TIP3    H160595   1.667   4.633   3.621 -0.0640  0.7696 -0.8426
13060TIP3    H260596   1.526   4.675   3.660 -0.5887 -0.0531 -1.8157
13061TIP3   OH260597   5.867   6.686  17.102  0.3557  0.3228  0.0639
13061TIP3    H160598   5.878   6.632  17.024 -0.0791 -0.9986  0.8960
13061TIP3    H260599   5.777   6.717  17.098  0.3856  0.3928 -0.0512
13062TIP3   OH260600   6.198   6.434   4.250  0.1238  0.0522  0.1539
13062TIP3    H160601   6.161   6.496   4.188 -2.1273 -1.1893  0.2111
13062TIP3    H260602   6.165   6.463   4.335  1.4649  0.4874  0.5423
13063TIP3   OH260603   1.224   1.117  14.636  0.3224 -0.4506 -0.5521
13063TIP3    H160604   1.146   1.102  14.689  1.0737 -0.2983  0.6077
13063TIP3    H260605   1.192   1.166  14.559 -1.0381 -2.1681 -1.0986
13064TIP3   OH260606   1.087   2.874   5.301  0.3603  0.5156  0.4237
13064TIP3    H160607   1.058   2.949   5.354  0.1750 -0.1229  1.2298
13064TIP3    H260608   1.168   2.905   5.259 -0.2841  1.5374 -0.1058
13065TIP3   OH260609   3.342   1.251  14.420  0.4174  0.1416 -0.5777
13065TIP3    H160610   3.426   1.259  14.375  0.8587  0.3897  0.2870
13065TIP3    H260611   3.356   1.183  14.486  0.1702  0.7483  0.1010
13066TIP3   OH260612   2.755   2.571   0.377 -0.2968  0.1353 -0.5603
13066TIP3    H160613   2.805   2.622   0.313 -1.4775  1.5249 -0.3856
13066TIP3    H260614   2.682   2.536   0.327  0.2104 -0.9531 -0.5517
13067TIP3   OH260615   4.133   2.653   3.284 -0.3684  0.1426  0.0665
13067TIP3    H160616   4.051   2.604   3.285 -0.3200  0.0648  0.1459
13067TIP3    H260617   4.143   2.681   3.193 -0.5267  0.2248  0.0747
13068TIP3   OH260618   1.716   4.951  12.285 -0.7223 -0.1049  0.5159
13068TIP3    H160619   1.711   5.043  12.310 -1.8495 -0.5709  2.0692
13068TIP3    H260620   1.806   4.938  12.256 -0.8298  1.7334 -0.7507
13069TIP3   OH260621   5.203   4.995   6.131  0.3104 -0.5882  0.7384
13069TIP3    H160622   5.203   5.086   6.158  0.8883 -0.3523 -0.0497
13069TIP3    H260623   5.207   4.945   6.213 -1.2547  0.0690  1.2154
13070TIP3   OH260624   3.141   2.378   6.023 -0.3197 -0.4862  0.0612
13070TIP3    H160625   3.098   2.409   6.103  0.6155  1.2448 -0.0789
13070TIP3    H260626   3.099   2.294   6.005 -5.8423  2.3756 -1.7135
13071TIP3   OH260627   1.192   2.443   0.615  0.1271 -0.5922  0.1650
13071TIP3    H160628   1.125   2.505   0.585 -0.1037 -0.4175  1.0383
13071TIP3    H260629   1.249   2.431   0.539  0.3276  0.8967  0.0645
13072TIP3   OH260630   5.316   4.834   0.495  0.3776 -0.5608  0.0673
13072TIP3    H160631   5.321   4.906   0.558 -0.2946  0.1477 -0.6847
13072TIP3    H260632   5.406   4.804   0.486  0.7844  0.6764 -0.1658
13073TIP3   OH260633   1.585   2.222   4.077  0.4469 -0.2133  0.5207
13073TIP3    H160634   1.537   2.270   4.010  0.2918 -0.3206  0.5539
13073TIP3    H260635   1.542   2.247   4.159  0.3424 -0.4366  0.5340
13074TIP3   OH260636   2.128   4.361  13.574  0.2851 -0.7003 -0.3657
13074TIP3    H160637   2.074   4.367  13.653  0.7333  0.0958 -0.1174
13074TIP3    H260638   2.070   4.326  13.507 -0.5725  0.2701 -0.1345
13075TIP3   OH260639   5.243   5.993  16.379  0.4967  0.5630 -0.0736
13075TIP3    H160640   5.224   6.004  16.473 -1.9731 -1.8957 -0.2235
13075TIP3    H260641   5.283   5.906  16.373  1.6581  1.1539 -1.2104
13076TIP3   OH260642   5.821   5.057   4.284  0.0875  0.3144  0.5133
13076TIP3    H160643   5.726   5.049   4.278 -0.1215  2.3122  0.9732
13076TIP3    H260644   5.844   5.119   4.216  0.6940  2.2353  2.4233
13077TIP3   OH260645   0.285   0.824  16.910  0.0991  0.6343  0.3881
13077TIP3    H160646   0.249   0.881  16.842 -4.0322  1.9603  3.4448
13077TIP3    H260647   0.327   0.883  16.972 -0.5164 -0.0345  1.4628
13078TIP3   OH260648   5.224   2.254  13.222  0.6100  0.4828  0.3022
13078TIP3    H160649   5.283   2.179  13.229 -0.4890 -0.2744  2.1151
13078TIP3    H260650   5.253   2.313  13.291 -0.6918  0.1111  1.1975
13079TIP3   OH260651   3.827   3.086   4.310 -0.3769  0.6658  0.3824
13079TIP3    H160652   3.841   3.052   4.221 -0.0029  1.5947  0.0775
13079TIP3    H260653   3.803   3.009   4.362  0.6739 -0.0943 -0.2477
13080TIP3   OH260654   6.115   5.235  17.002 -1.0971 -0.6986  0.1633
13080TIP3    H160655   6.083   5.180  16.930 -0.5644  0.1507 -0.7485
13080TIP3    H260656   6.180   5.180  17.046 -1.9028 -1.4649  0.3957
13081TIP3   OH260657   4.712   3.321   5.814 -0.2858  0.2954  0.5028
13081TIP3    H160658   4.691   3.238   5.855  0.0661  0.1879  0.4625
13081TIP3    H260659   4.636   3.377   5.833 -1.4198 -0.6369 -1.1391
13082TIP3   OH260660   4.814   1.388   4.541 -0.0441 -0.2606 -0.1246
13082TIP3    H160661   4.806   1.435   4.458 -0.7474  2.0581  1.1970
13082TIP3    H260662   4.744   1.323   4.540 -0.3212  0.0498 -1.1463
13083TIP3   OH260663   0.790   0.926   0.019  0.1462 -0.0638 -0.0044
13083TIP3    H160664   0.858   0.969   0.072  0.0609 -0.3562  0.3447
13083TIP3    H260665   0.832   0.846  -0.013 -0.2328 -0.5605  0.7298
13084TIP3   OH260666   6.750   4.027  14.978 -0.1338 -0.3832 -0.0135
13084TIP3    H160667   6.821   3.970  15.007  1.3202  0.6990 -1.4055
13084TIP3    H260668   6.720   3.987  14.896  0.2154  0.2913 -0.4681
13085TIP3   OH260669   4.868   0.001   5.437 -0.1207 -0.0879 -0.0145
13085TIP3    H160670   4.849  -0.082   5.394 -0.9953  0.7669 -1.3002
13085TIP3    H260671   4.798   0.060   5.410  1.8838  1.8269 -1.2308
13086TIP3   OH260672   2.154   2.811   1.515  0.2402  0.4787  0.4506
13086TIP3    H160673   2.165   2.717   1.510  0.3835  0.5288 -0.1426
13086TIP3    H260674   2.123   2.827   1.605 -2.0514 -0.3524 -0.1570
13087TIP3   OH260675   1.961   3.571  11.103 -0.0608 -0.0814  0.3566
13087TIP3    H160676   2.007   3.638  11.051  2.0608 -2.0781 -0.3972
13087TIP3    H260677   2.019   3.554  11.177 -2.5398  1.8906  2.8865
13088TIP3   OH260678   4.874   5.507   6.277  0.6026  0.4172  0.0236
13088TIP3    H160679   4.871   5.411   6.267  3.1667  0.0476  2.3613
13088TIP3    H260680   4.951   5.534   6.227  1.0876  1.0143  1.0820
13089TIP3   OH260681   0.961   4.073  11.595 -0.1581  0.1071 -0.2433
13089TIP3    H160682   0.881   4.125  11.594  0.5873  1.2637 -0.0291
13089TIP3    H260683   1.018   4.115  11.531 -0.1182 -1.3606 -1.1993
13090TIP3   OH260684   4.067   4.523  15.200  0.5699  0.0828  0.0783
13090TIP3    H160685   4.162   4.523  15.189  0.8339  0.8524  2.1982
13090TIP3    H260686   4.039   4.609  15.170  0.6309  0.1394  0.1830
13091TIP3   OH260687   4.598   6.598  13.592  0.1303  0.5155 -0.1456
13091TIP3    H160688   4.609   6.520  13.538 -2.6096 -0.9765  1.3595
13091TIP3    H260689   4.519   6.582  13.642  1.2747  2.9119  2.5790
13092TIP3   OH260690   0.786   5.042   3.841  0.1608 -0.3614  0.5455
13092TIP3    H160691   0.864   5.096   3.828 -0.4327 -0.0119 -1.7043
13092TIP3    H260692   0.717   5.088   3.794 -0.7710 -2.1141  0.1541
13093TIP3   OH260693   5.952   6.074  16.821 -0.0293  0.1258  1.0632
13093TIP3    H160694   5.994   6.142  16.768 -0.5059 -0.3624  0.0627
13093TIP3    H260695   5.926   6.120  16.901 -0.3645  1.1228  0.3866
13094TIP3   OH260696   3.936   0.704  16.344  0.1667  0.5764 -0.3464
13094TIP3    H160697   3.880   0.731  16.272  1.1147 -0.7957 -1.6235
13094TIP3    H260698   3.989   0.782  16.364 -0.6015  1.1794 -0.6394
13095TIP3   OH260699   0.520   6.211  14.472 -0.1011  0.0850 -0.4130
13095TIP3    H160700   0.497   6.192  14.563  1.7132 -2.8484 -0.4857
13095TIP3    H260701   0.549   6.302  14.472 -2.2240  0.8039  1.4864
13096TIP3   OH260702   3.801   6.011   2.973 -0.1406  0.0238  0.4824
13096TIP3    H160703   3.754   5.929   2.963 -0.1914  0.1345 -0.2688
13096TIP3    H260704   3.883   5.998   2.926 -0.8946  0.9816 -1.1554
13097TIP3   OH260705   0.381   2.406  15.511  0.1649  0.5347  0.1747
13097TIP3    H160706   0.415   2.374  15.594  0.2980  0.9055  0.2626
13097TIP3    H260707   0.458   2.414  15.454  0.1041  0.5023  0.0869
13098TIP3   OH260708   0.104   1.636   2.584  0.5568 -0.3767  0.0789
13098TIP3    H160709   0.067   1.553   2.614  0.0351 -0.7151 -1.4835
13098TIP3    H260710   0.185   1.611   2.539  0.6729  0.0134  0.0712
13099TIP3   OH260711   5.799   1.793   3.116  0.1166 -0.3927  0.1993
13099TIP3    H160712   5.830   1.825   3.201 -0.2856 -1.1129  0.6254
13099TIP3    H260713   5.703   1.795   3.124  0.0623 -3.6208  0.9891
13100TIP3   OH260714   2.876   4.195   2.556 -0.5690 -0.2046  0.0253
13100TIP3    H160715   2.810   4.172   2.491 -1.5008  3.7315 -0.5485
13100TIP3    H260716   2.850   4.281   2.588  1.6254 -0.6696  3.3734
13101TIP3   OH260717   4.063   5.147  14.746 -0.3897  0.4606  0.4012
13101TIP3    H160718   4.100   5.095  14.675 -0.3432 -1.3266  1.6925
13101TIP3    H260719   4.127   5.140  14.817 -0.7975  1.5697  0.8897
13102TIP3   OH260720   2.412   3.790  12.171 -0.0500  0.0601  0.2565
13102TIP3    H160721   2.506   3.780  12.181 -0.1454 -2.0252 -0.6861
13102TIP3    H260722   2.375   3.726  12.233 -0.8418  0.2977  0.0357
13103TIP3   OH260723   3.486   5.958   1.322 -0.4125  0.6556 -0.0143
13103TIP3    H160724   3.570   5.921   1.297 -0.4057  1.3849 -1.0988
13103TIP3    H260725   3.431   5.949   1.244 -1.8511 -1.2560  1.1838
13104TIP3   OH260726   2.679   2.057   0.727 -0.4036  0.6099 -0.4494
13104TIP3    H160727   2.762   2.088   0.689  0.0131 -0.5925 -0.5437
13104TIP3    H260728   2.681   2.090   0.816  0.1461  0.6614 -0.4735
13105TIP3   OH260729   2.146   3.998   6.378  0.5515  0.1582  0.1844
13105TIP3    H160730   2.227   4.048   6.368  0.2361  0.6202 -0.0568
13105TIP3    H260731   2.170   3.925   6.435  0.4674  1.8307  2.4296
13106TIP3   OH260732   5.250   1.362  14.761  0.3152  0.2077  0.4778
13106TIP3    H160733   5.249   1.266  14.765  2.1334  0.2727  3.5945
13106TIP3    H260734   5.289   1.389  14.844 -2.6081  3.7456  0.8195
13107TIP3   OH260735   3.723   3.776   1.980 -0.0270  0.0510  0.5982
13107TIP3    H160736   3.664   3.773   2.056 -0.5887  0.3335  0.1735
13107TIP3    H260737   3.665   3.778   1.904  0.5281  0.6428  0.1851
13108TIP3   OH260738   4.000   0.080   3.094  0.2483 -0.3243  0.1356
13108TIP3    H160739   3.993   0.000   3.146 -2.4953 -0.2674 -0.0801
13108TIP3    H260740   3.956   0.059   3.011 -1.1303  1.5988  0.3504
13109TIP3   OH260741   0.961   1.056   0.184 -0.3506  0.0139  0.3965
13109TIP3    H160742   0.988   1.080   0.273  2.1763 -2.3082  0.3005
13109TIP3    H260743   0.931   1.139   0.146  0.1465  1.3794  2.8276
13110TIP3   OH260744   5.808   3.800  15.533 -0.3160  0.5932 -0.0844
13110TIP3    H160745   5.723   3.757  15.520  0.8646 -0.9359 -3.2035
13110TIP3    H260746   5.861   3.734  15.578 -0.2814  0.9598  0.4131
13111TIP3   OH260747   0.007   5.660   5.184 -0.0831  0.7636  0.5955
13111TIP3    H160748  -0.080   5.685   5.215 -0.6420 -0.8801  0.3787
13111TIP3    H260749   0.037   5.595   5.248 -0.0911 -0.5760 -0.7156
13112TIP3   OH260750   6.461   4.899   5.619 -0.1371  0.1219  0.3203
13112TIP3    H160751   6.382   4.949   5.639 -0.6937 -0.8201  0.5373
13112TIP3    H260752   6.433   4.807   5.625  0.2938 -0.2256 -2.3614
13113TIP3   OH260753   0.155   0.303   1.268 -0.5342  0.4411 -0.0035
13113TIP3    H160754   0.159   0.213   1.235 -1.4681  0.0790  0.8360
13113TIP3    H260755   0.209   0.353   1.208 -2.4194 -0.1535 -2.2557
13114TIP3   OH260756   5.758   4.922  16.276  0.1046  0.3299  0.2084
13114TIP3    H160757   5.813   4.844  16.284 -1.8568 -0.7905  4.1155
13114TIP3    H260758   5.819   4.993  16.264  1.9857 -1.7017 -2.8409
13115TIP3   OH260759   2.839   4.951  13.641  0.6172  0.4915 -0.4820
13115TIP3    H160760   2.800   4.937  13.555  1.6461  0.7111 -0.9956
13115TIP3    H260761   2.774   5.004  13.689 -0.2852 -0.2677 -0.8549
13116TIP3   OH260762   6.423   0.271   1.851  0.1593  0.2136  0.0791
13116TIP3    H160763   6.449   0.363   1.860 -0.9154  0.5202  0.2077
13116TIP3    H260764   6.505   0.222   1.850  0.8581  1.3686 -2.3936
13117TIP3   OH260765   2.477   1.837  12.659 -0.0861  0.1683 -0.5704
13117TIP3    H160766   2.456   1.745  12.676 -0.1412 -0.6086 -4.4517
13117TIP3    H260767   2.465   1.880  12.744 -0.8454 -3.2370  1.1451
13118TIP3   OH260768   1.255   0.081   1.603 -0.1051  0.0476  0.2400
13118TIP3    H160769   1.266   0.043   1.690 -2.8433 -0.9213  0.2032
13118TIP3    H260770   1.167   0.118   1.604  0.0783  0.5979 -1.8998
13119TIP3   OH260771   0.075   6.036   5.029 -0.1203  0.4883 -0.4868
13119TIP3    H160772   0.046   6.127   5.016  2.2598  1.4614  0.5839
13119TIP3    H260773   0.134   6.019   4.956 -0.3850 -0.1189 -0.5601
13120TIP3   OH260774   1.146   3.654  12.921 -0.0891  0.2565 -0.5218
13120TIP3    H160775   1.239   3.639  12.906 -0.4786 -0.7893 -2.0102
13120TIP3    H260776   1.130   3.742  12.885  0.2439  0.2883 -0.5931
13121TIP3   OH260777   5.030   2.557  13.395 -0.7304 -0.1287 -0.2935
13121TIP3    H160778   5.112   2.509  13.392 -1.2483 -1.1734  1.3961
13121TIP3    H260779   4.990   2.531  13.478 -2.2265  1.2559 -0.5471
13122TIP3   OH260780   1.062   0.893   2.085  0.2318 -0.0893  0.1539
13122TIP3    H160781   1.058   0.964   2.149 -1.9768  0.9727 -1.0982
13122TIP3    H260782   1.006   0.824   2.121 -0.1736  0.0844 -0.1457
13123TIP3   OH260783   4.149   2.760   3.028  0.5681 -0.2513 -0.0399
13123TIP3    H160784   4.060   2.728   3.015 -0.3863  0.6726  3.7056
13123TIP3    H260785   4.145   2.853   3.008  0.0763  0.3006  2.5104
13124TIP3   OH260786   2.370   1.046  15.613  0.2506 -0.0374  0.3870
13124TIP3    H160787   2.287   1.000  15.601 -0.5876  1.2945  0.9517
13124TIP3    H260788   2.375   1.062  15.707 -1.0794  3.9227 -0.1322
13125TIP3   OH260789   1.921   1.847   2.246 -0.1914  0.4600 -0.6760
13125TIP3    H160790   1.973   1.885   2.317 -1.2205 -1.4531  1.1407
13125TIP3    H260791   1.969   1.870   2.166  1.7044  1.4709  0.7222
13126TIP3   OH260792   0.130   4.635  12.048  0.6400 -0.1844  0.3566
13126TIP3    H160793   0.109   4.704  11.985 -0.1472 -0.8065 -0.0758
13126TIP3    H260794   0.070   4.649  12.121 -0.6982 -1.4332 -0.4891
13127TIP3   OH260795   2.571   6.585   4.849 -0.0819 -0.3306  0.1010
13127TIP3    H160796   2.656   6.574   4.808 -0.2678 -0.1434 -0.3378
13127TIP3    H260797   2.557   6.679   4.853  0.6194 -0.2898  2.0261
13128TIP3   OH260798   4.001   6.000   4.630  0.0899 -0.1133 -0.2657
13128TIP3    H160799   3.925   6.002   4.572  0.2722 -1.0535 -0.5480
13128TIP3    H260800   4.072   6.035   4.577 -0.1428  0.7889  0.0057
13129TIP3   OH260801   1.053   5.796  16.868 -0.0601  0.2108 -0.2167
13129TIP3    H160802   0.991   5.734  16.830  1.0622 -2.2562  1.8311
13129TIP3    H260803   1.013   5.820  16.952  1.4124 -0.8962  0.8156
13130TIP3   OH260804   0.891   5.482   1.866 -0.1266  0.4688  0.0334
13130TIP3    H160805   0.925   5.398   1.896 -0.9192  0.3918  0.7344
13130TIP3    H260806   0.879   5.533   1.946 -3.1351 -0.0721 -0.0178
13131TIP3   OH260807   3.871   2.001   6.050  0.3912 -0.2777  0.2497
13131TIP3    H160808   3.778   1.984   6.070  0.4569 -1.1283 -0.1359
13131TIP3    H260809   3.884   2.092   6.074 -0.7633  0.0856 -0.4743
13132TIP3   OH260810   5.532   1.783   3.153 -0.4089  0.0588 -0.2621
13132TIP3    H160811   5.534   1.874   3.183 -2.9412  0.1826 -0.3479
13132TIP3    H260812   5.530   1.731   3.234  2.8063 -0.0497 -0.1792
13133TIP3   OH260813   5.868   0.040  14.286 -0.1207  0.3864  0.0203
13133TIP3    H160814   5.902   0.019  14.199 -1.2137  0.8218 -0.5197
13133TIP3    H260815   5.850  -0.045  14.325 -1.3091  0.2305 -0.8604
13134TIP3   OH260816   3.622   0.667   4.865 -0.2546  0.2583  0.7270
13134TIP3    H160817   3.679   0.625   4.928  1.2272 -1.1497 -1.4803
13134TIP3    H260818   3.536   0.625   4.878 -0.2092  0.7006  2.4542
13135TIP3   OH260819   5.559   6.604  14.800  0.0226 -1.0883 -0.0299
13135TIP3    H160820   5.538   6.577  14.711 -3.5101  1.3167 -0.0147
13135TIP3    H260821   5.622   6.675  14.790 -0.3364 -0.8547 -0.5995
13136TIP3   OH260822   3.781   3.642   5.643  0.7937  0.0711 -0.1183
13136TIP3    H160823   3.848   3.605   5.587  2.7133  1.0325  1.4836
13136TIP3    H260824   3.740   3.711   5.591  0.9801 -0.5745 -1.1219
13137TIP3   OH260825   2.947   5.444  12.810  0.2739  0.1640 -0.1212
13137TIP3    H160826   2.923   5.527  12.853  1.6081  0.0125  0.9552
13137TIP3    H260827   3.042   5.444  12.810  0.2927 -1.5914  0.3200
13138TIP3   OH260828   0.388   0.912  12.119  0.0924 -0.0881 -0.3910
13138TIP3    H160829   0.321   0.852  12.086 -1.3295  1.0347  0.4376
13138TIP3    H260830   0.470   0.862  12.110 -1.0102 -2.0399 -0.0357
13139TIP3   OH260831   6.142   5.430   3.397  0.2085 -0.2380 -0.3531
13139TIP3    H160832   6.236   5.444   3.396  0.5029 -2.1200 -1.0378
13139TIP3    H260833   6.131   5.344   3.437 -1.2387  0.1160  0.0323
13140TIP3   OH260834   4.875   1.784   2.835  0.6891 -0.1451  0.0304
13140TIP3    H160835   4.902   1.692   2.842  2.5563  0.4372  0.6398
13140TIP3    H260836   4.906   1.811   2.749  0.7619  0.1364  0.1476
13141TIP3   OH260837   0.417   4.575  11.418  0.8696  0.6198 -0.3349
13141TIP3    H160838   0.344   4.583  11.480  0.9369 -0.4001 -0.1192
13141TIP3    H260839   0.401   4.492  11.373  2.2140  0.1172  0.1200
13142TIP3   OH260840   6.352   0.837  13.303 -0.1895  0.1372 -0.7738
13142TIP3    H160841   6.408   0.807  13.231  0.2216 -1.3469  0.1536
13142TIP3    H260842   6.412   0.874  13.366 -0.3083 -0.7419 -0.1312
13143TIP3   OH260843   2.815   3.772   4.687 -0.3922  0.8143  0.1214
13143TIP3    H160844   2.787   3.799   4.774 -0.6719  0.6017  0.0977
13143TIP3    H260845   2.910   3.785   4.688 -0.3886  0.7807  0.4693
13144TIP3   OH260846   2.641   5.613  14.599 -0.2678 -0.2825  0.2563
13144TIP3    H160847   2.699   5.592  14.525 -0.9558 -0.1730 -0.3257
13144TIP3    H260848   2.555   5.623  14.559 -0.3914  1.2414  0.8506
13145TIP3   OH260849   5.389   3.486   3.266 -0.4788  0.2211  0.0001
13145TIP3    H160850   5.432   3.486   3.352 -0.3145 -2.4502 -0.0410
13145TIP3    H260851   5.305   3.529   3.282 -0.7446 -0.8674  1.6777
13146TIP3   OH260852   1.352   3.203  13.369  0.0268 -0.3732 -0.0290
13146TIP3    H160853   1.282   3.193  13.305  0.1352  1.1617 -0.4224
13146TIP3    H260854   1.429   3.167  13.327  0.1871  1.0140 -0.9535
13147TIP3   OH260855   5.725   3.268   2.317 -0.3084 -0.6948  0.6629
13147TIP3    H160856   5.769   3.310   2.391 -1.7119 -0.5672  1.4255
13147TIP3    H260857   5.749   3.323   2.241  2.2902 -1.6289  0.7397
13148TIP3   OH260858   4.228   3.286  11.993 -0.5271 -0.4331 -0.2347
13148TIP3    H160859   4.138   3.315  11.984 -1.0738 -1.2029  2.3545
13148TIP3    H260860   4.277   3.365  12.017 -0.9474 -0.4498  0.7130
13149TIP3   OH260861   3.035   0.998  13.290  0.0413  0.5453  0.9642
13149TIP3    H160862   3.091   0.933  13.250 -0.4674 -0.5480  2.0004
13149TIP3    H260863   2.981   1.031  13.218  1.0220  0.5993  0.2408
13150TIP3   OH260864   1.058   4.370   2.473 -0.2032 -0.2087 -0.1768
13150TIP3    H160865   1.086   4.421   2.549 -0.6784  0.9579 -0.7775
13150TIP3    H260866   0.975   4.409   2.448  0.0541 -0.4615 -1.4269
13151TIP3   OH260867   5.238   0.591  11.258 -0.2996 -0.2842  0.0730
13151TIP3    H160868   5.277   0.504  11.251 -1.9730 -1.0300 -0.0797
13151TIP3    H260869   5.162   0.589  11.200 -2.1855  0.2342  2.4309
13152TIP3   OH260870   5.189   3.698   0.107  0.3005 -0.0879 -0.4491
13152TIP3    H160871   5.109   3.664   0.066 -0.3263  0.3758  0.3730
13152TIP3    H260872   5.190   3.791   0.085  0.9340 -0.2118 -0.9627
13153TIP3   OH260873   3.103   5.592   1.780 -0.1408 -0.2409  0.1095
13153TIP3    H160874   3.133   5.607   1.691 -1.4043  0.2487 -0.2396
13153TIP3    H260875   3.022   5.542   1.770 -1.1339  1.1733  0.9071
13154TIP3   OH260876   4.734   0.888  16.957 -0.2694  0.4408  0.0142
13154TIP3    H160877   4.708   0.905  17.048  0.1948  0.0050  0.2277
13154TIP3    H260878   4.652   0.865  16.913 -0.4975  0.6653  0.3172
13155TIP3   OH260879   2.009   1.324   3.030 -0.0622 -0.7947 -0.3300
13155TIP3    H160880   1.984   1.255   2.969  1.3843 -0.1696 -1.6867
13155TIP3    H260881   2.073   1.377   2.981  1.0264 -0.1902  1.6861
13156TIP3   OH260882   6.563   2.791   3.405 -0.0336  0.0293 -0.2405
13156TIP3    H160883   6.588   2.823   3.319  1.9440  0.2749  0.3877
13156TIP3    H260884   6.510   2.861   3.442  1.0194  0.9209 -0.3890
13157TIP3   OH260885   5.565   3.176  15.796  0.5224  0.3846  0.1491
13157TIP3    H160886   5.601   3.230  15.866  1.6704 -0.0642 -0.0820
13157TIP3    H260887   5.617   3.096  15.799 -1.3331 -0.8187  0.6575
13158TIP3   OH260888   6.129   3.617   5.271  0.8506  0.1898 -0.6477
13158TIP3    H160889   6.089   3.549   5.217  0.4110  0.9785 -1.3236
13158TIP3    H260890   6.075   3.694   5.255  1.4005  0.7161  0.0505
13159TIP3   OH260891   3.965   1.498   3.544 -0.0665 -0.4528 -0.0051
13159TIP3    H160892   3.869   1.489   3.548  0.1898 -3.1478  1.2976
13159TIP3    H260893   3.987   1.548   3.622 -0.5199  1.4883 -1.0952
13160TIP3   OH260894   5.688   3.298   5.143 -0.2019 -0.1048  0.3180
13160TIP3    H160895   5.655   3.368   5.086 -0.7980  0.9132  1.8809
13160TIP3    H260896   5.759   3.339   5.192 -1.8146 -0.0286  2.6292
13161TIP3   OH260897   4.681   4.554   2.163 -0.5133 -0.5394 -0.2033
13161TIP3    H160898   4.660   4.620   2.229  0.7984  0.3401 -0.6285
13161TIP3    H260899   4.596   4.519   2.135 -1.1687  0.2966  0.7142
13162TIP3   OH260900   4.340   1.941  15.395  0.1645  0.3399 -0.0018
13162TIP3    H160901   4.268   1.941  15.457  0.8999  1.4423  0.8641
13162TIP3    H260902   4.407   1.997  15.435  1.3506 -0.3653 -0.9625
13163TIP3   OH260903   5.517   2.877   1.188 -0.1642 -0.1579 -0.0716
13163TIP3    H160904   5.597   2.902   1.140 -0.1505  1.4399  0.7516
13163TIP3    H260905   5.479   2.960   1.215  0.0004 -1.0332  2.9769
13164TIP3   OH260906   0.938   5.775  14.407 -0.2615 -0.6208  0.8156
13164TIP3    H160907   0.850   5.740  14.418 -0.2394 -1.3129 -1.0846
13164TIP3    H260908   0.980   5.716  14.345  0.7392  1.0915 -0.1927
13165TIP3   OH260909   2.142   1.997  13.230 -0.0855  0.3336  0.3703
13165TIP3    H160910   2.169   2.084  13.258  0.7066  0.4296 -0.6825
13165TIP3    H260911   2.102   1.958  13.308 -1.2543  1.9552  0.5967
13166TIP3   OH260912   5.813   2.558  16.912 -0.3081 -0.8380 -0.0484
13166TIP3    H160913   5.800   2.646  16.876  0.2480 -0.3965  0.8119
13166TIP3    H260914   5.726   2.519  16.913 -0.8457  0.3702  1.2854
13167TIP3   OH260915   1.753   4.904  16.967  0.1463 -0.1862 -0.0150
13167TIP3    H160916   1.793   4.827  16.927 -0.5463  0.2241 -1.5170
13167TIP3    H260917   1.806   4.978  16.937 -1.6709  0.3511 -1.9609
13168TIP3   OH260918   3.629   4.697   3.773  1.3631  0.0206 -0.5796
13168TIP3    H160919   3.644   4.604   3.789  2.1549  0.1086 -0.7850
13168TIP3    H260920   3.582   4.700   3.690 -1.4881 -0.3616  0.9488
13169TIP3   OH260921   3.207   3.688  10.822 -0.5352  0.0486  0.3972
13169TIP3    H160922   3.225   3.602  10.783 -0.6258  0.3265 -0.2671
13169TIP3    H260923   3.277   3.744  10.789 -1.0246  0.4607  0.0487
13170TIP3   OH260924   6.774   0.059  16.596 -0.5099 -0.4664  0.0867
13170TIP3    H160925   6.824   0.138  16.618 -1.0973  0.1677 -0.8688
13170TIP3    H260926   6.798  -0.004  16.665 -0.6399  0.7878  1.3001
13171TIP3   OH260927   3.236   6.434  11.209 -0.3969 -0.2802  0.6549
13171TIP3    H160928   3.161   6.388  11.173 -0.6615 -0.6316  1.6283
13171TIP3    H260929   3.280   6.472  11.133 -0.5476 -1.5699 -0.0901
13172TIP3   OH260930   1.293   6.572  17.064 -0.0140  0.1867  0.3783
13172TIP3    H160931   1.324   6.505  17.125  1.8028  1.9486  1.4791
13172TIP3    H260932   1.368   6.588  17.006 -0.4625  1.1687  0.0618
13173TIP3   OH260933   5.383   5.202   4.708 -0.0530 -0.1167 -0.6204
13173TIP3    H160934   5.307   5.190   4.651 -0.1508  3.2159 -1.2881
13173TIP3    H260935   5.369   5.288   4.749  1.8600 -0.7945  1.5813
13174TIP3   OH260936   5.856   6.769   0.208 -0.4806  0.2422 -0.1941
13174TIP3    H160937   5.927   6.833   0.208 -0.2065 -0.0639 -0.5469
13174TIP3    H260938   5.899   6.685   0.195 -0.7183 -0.1690  1.4635
13175TIP3   OH260939   1.513   1.607  12.937  0.4070  0.3987 -0.1149
13175TIP3    H160940   1.584   1.605  13.001  0.5786  0.5617 -0.3016
13175TIP3    H260941   1.480   1.697  12.939  1.5105  0.8611 -1.4490
13176TIP3   OH260942   4.532   3.719  15.789 -0.0926  0.1709 -0.2756
13176TIP3    H160943   4.480   3.735  15.868  3.3035  1.1853  1.8473
13176TIP3    H260944   4.568   3.805  15.767 -0.2118 -0.2988 -2.3779
13177TIP3   OH260945   6.456   0.421   4.734 -0.4481 -0.0562 -0.2809
13177TIP3    H160946   6.483   0.442   4.645  2.3111 -2.3724 -0.0544
13177TIP3    H260947   6.372   0.376   4.723  0.6968 -1.8909 -1.9080
13178TIP3   OH260948   2.389   6.555   3.175 -0.2028  0.0329  0.6485
13178TIP3    H160949   2.425   6.643   3.185 -0.3575  0.2911 -1.0291
13178TIP3    H260950   2.464   6.497   3.185  0.5940  0.5396 -2.1197
13179TIP3   OH260951   2.057   0.782   2.693 -0.3195  0.2879 -0.1825
13179TIP3    H160952   1.978   0.730   2.709  1.3333 -1.8062  1.4875
13179TIP3    H260953   2.097   0.742   2.616 -0.3507  0.7154 -0.4244
13180TIP3   OH260954   1.606   5.603   0.186  0.4460 -0.1126  0.0378
13180TIP3    H160955   1.606   5.517   0.228 -0.8385 -0.7165 -1.1404
13180TIP3    H260956   1.689   5.608   0.139  1.4263  0.1374  1.7566
13181TIP3   OH260957   6.615   3.948   1.941 -0.5027  0.0004  0.2529
13181TIP3    H160958   6.628   3.932   2.035 -1.0451  0.1837  0.3619
13181TIP3    H260959   6.598   4.042   1.935  2.7618  0.6195 -0.3907
13182TIP3   OH260960   5.342   1.460   0.132  0.0271 -0.0010 -0.3851
13182TIP3    H160961   5.323   1.414   0.050 -0.6238 -1.2663  0.4584
13182TIP3    H260962   5.377   1.392   0.190 -3.5031 -0.1059  1.7956
13183TIP3   OH260963   2.663   5.470   5.763 -0.2477 -0.4114 -0.0882
13183TIP3    H160964   2.635   5.407   5.830  0.4127 -1.6991 -1.0170
13183TIP3    H260965   2.742   5.432   5.725  0.8420  1.5489  0.1306
13184TIP3   OH260966   5.633   4.602   6.311  0.7284 -0.3406  0.0282
13184TIP3    H160967   5.700   4.621   6.377 -0.4965  1.7289  0.7374
13184TIP3    H260968   5.565   4.554   6.359  0.5830 -0.2695 -0.1075
13185TIP3   OH260969   1.168   0.841  14.356 -0.7478  0.3862 -0.1789
13185TIP3    H160970   1.188   0.880  14.441 -0.9738 -1.2250  0.6199
13185TIP3    H260971   1.245   0.787  14.336 -1.2525 -0.2501 -0.3988
13186TIP3   OH260972   6.581   3.361   4.047 -0.0274  0.4667 -0.1283
13186TIP3    H160973   6.590   3.331   3.957  2.2782 -1.3447  0.6557
13186TIP3    H260974   6.503   3.316   4.079  0.8216 -1.2027 -0.3521
13187TIP3   OH260975   0.842   0.785  13.068  0.0495  0.1335  0.3428
13187TIP3    H160976   0.776   0.815  13.006  0.1842  2.6518  1.3950
13187TIP3    H260977   0.887   0.864  13.096  2.3075 -1.3479  1.0403
13188TIP3   OH260978   3.533   4.238   5.414  0.7995  0.4549 -0.0550
13188TIP3    H160979   3.456   4.260   5.467  0.9942 -0.9469  0.8470
13188TIP3    H260980   3.513   4.273   5.327 -0.1235  1.5869  0.6051
13189TIP3   OH260981   0.654   6.718   4.996 -0.2330 -0.6955 -0.1893
13189TIP3    H160982   0.735   6.691   5.040  0.0932  0.7570  0.1414
13189TIP3    H260983   0.665   6.812   4.981 -1.5820 -0.6095 -0.7349
13190TIP3   OH260984   5.806   1.039  17.144 -0.0184  0.3439  0.2876
13190TIP3    H160985   5.725   1.023  17.193 -2.1430  1.1395 -2.8014
13190TIP3    H260986   5.842   0.952  17.126 -2.0185 -0.2162 -1.1829
13191TIP3   OH260987   2.296   3.940  14.518 -0.0282  0.0161 -0.0713
13191TIP3    H160988   2.327   3.849  14.518  0.6029  0.2242  1.6009
13191TIP3    H260989   2.206   3.934  14.485 -0.3073 -1.3305  0.8735
13192TIP3   OH260990   6.493   1.146  11.839  0.0880  0.1318 -0.0895
13192TIP3    H160991   6.541   1.219  11.801  1.0077 -1.1067 -1.3867
13192TIP3    H260992   6.561   1.083  11.863 -0.6331  0.0751  1.8407
13193TIP3   OH260993   2.342   6.567  10.661  0.4639 -0.2172 -0.5013
13193TIP3    H160994   2.317   6.479  10.630  2.2802 -1.2876  1.0133
13193TIP3    H260995   2.392   6.605  10.589  0.9101 -0.9889 -0.5994
13194TIP3   OH260996   4.783   6.594   6.048 -0.3064 -0.1374 -0.3591
13194TIP3    H160997   4.797   6.600   6.143 -2.3631 -2.3688  0.1596
13194TIP3    H260998   4.688   6.603   6.038 -0.2299 -1.1694 -2.0815
13195TIP3   OH260999   0.543   0.252  14.493 -0.4436 -0.6604 -0.5097
13195TIP3    H161000   0.459   0.209  14.508 -1.1179  0.9885  0.7029
13195TIP3    H261001   0.602   0.211  14.556 -1.0707  0.1325  0.6143
13196TIP3   OH261002   6.186   2.756  13.099  0.1892  0.2196  0.0926
13196TIP3    H161003   6.186   2.699  13.176  0.2273 -0.8328 -0.6688
13196TIP3    H261004   6.216   2.840  13.131 -1.6600  0.3338  1.6323
13197TIP3   OH261005   5.404   6.538   6.309  0.5588  0.0138 -0.0599
13197TIP3    H161006   5.453   6.593   6.370  0.3421 -0.0631  0.1821
13197TIP3    H261007   5.445   6.452   6.316  0.9039  0.1474 -0.4470
13198TIP3   OH261008   0.934   3.361  13.832 -0.0322 -0.1784  0.1358
13198TIP3    H161009   0.909   3.374  13.924  2.2058  0.2561  0.7179
13198TIP3    H261010   1.027   3.342  13.835 -0.2185 -1.6163 -1.9660
13199TIP3   OH261011   3.476   0.832  13.062  0.2495  0.2451 -0.0390
13199TIP3    H161012   3.453   0.833  12.969  0.6517 -1.7187 -0.1901
13199TIP3    H261013   3.393   0.838  13.108  0.0597  1.3683 -0.5318
13200TIP3   OH261014   5.372   0.939   2.834 -0.2474  0.0948 -0.5509
13200TIP3    H161015   5.335   0.880   2.769  2.0865 -0.0993 -1.7677
13200TIP3    H261016   5.318   1.018   2.829 -1.2252 -0.6208 -1.4139
13201TIP3   OH261017   5.218   5.295  16.201 -0.4329  0.4341 -0.2487
13201TIP3    H161018   5.128   5.329  16.199 -1.0682 -1.0550  1.5255
13201TIP3    H261019   5.255   5.330  16.281  0.0124 -0.2858 -0.1316
13202TIP3   OH261020   5.370   1.246   0.550 -0.1320  0.2731 -0.7149
13202TIP3    H161021   5.400   1.298   0.476  1.5133 -0.6341 -0.7153
13202TIP3    H261022   5.314   1.178   0.511 -0.5526  0.7537 -0.9455
13203TIP3   OH261023   5.329   5.728  14.479  0.2729  0.0292 -0.3484
13203TIP3    H161024   5.244   5.760  14.509  0.8705 -0.3055  1.8211
13203TIP3    H261025   5.346   5.651  14.533  0.3148 -2.1114 -3.2722
13204TIP3   OH261026   5.197   1.881  12.016 -0.6484  0.3676 -0.3435
13204TIP3    H161027   5.123   1.871  11.957 -1.6277  1.3154  0.7078
13204TIP3    H261028   5.170   1.839  12.097 -0.1845  1.0641  0.1766
13205TIP3   OH261029   3.439   1.551  12.409 -0.3661  0.0566 -0.2246
13205TIP3    H161030   3.415   1.544  12.316 -0.1916  1.0845 -0.3558
13205TIP3    H261031   3.387   1.484  12.452 -1.8107  0.7684 -0.8141
13206TIP3   OH261032   4.164   5.042  14.517  0.1368 -0.2123  0.1866
13206TIP3    H161033   4.251   5.079  14.502  0.6174 -0.6384  1.8058
13206TIP3    H261034   4.140   5.002  14.433  1.6070 -0.3088 -0.2002
13207TIP3   OH261035   6.567   0.777  16.437 -0.0243 -0.2814  0.4043
13207TIP3    H161036   6.588   0.860  16.395  0.3776 -0.6961 -0.2247
13207TIP3    H261037   6.490   0.795  16.491  0.8018  0.7964  1.2393
13208TIP3   OH261038   4.808   5.104  17.103 -0.3281  0.1967 -0.3322
13208TIP3    H161039   4.766   5.041  17.044  0.5945  0.9796 -1.8745
13208TIP3    H261040   4.736   5.148  17.147 -1.1206  0.8313 -2.2109
13209TIP3   OH261041   4.438   4.045   2.641 -0.3742  0.6465  0.5343
13209TIP3    H161042   4.384   4.082   2.711 -0.9021  0.2787  0.3197
13209TIP3    H261043   4.389   4.061   2.561  0.3773  1.3422  0.2020
13210TIP3   OH261044   0.743   0.813   0.302 -0.5629 -0.1280  0.3311
13210TIP3    H161045   0.730   0.719   0.310 -0.2251 -0.2096 -0.0829
13210TIP3    H261046   0.812   0.823   0.237 -1.6817  0.4539 -0.7848
13211TIP3   OH261047   0.180   3.324  11.493  0.0628  0.0121  0.0323
13211TIP3    H161048   0.201   3.414  11.519  1.1349 -0.2057 -0.0686
13211TIP3    H261049   0.088   3.314  11.515 -0.2378  1.3494 -0.5312
13212TIP3   OH261050   6.756   6.245  15.370 -0.3543  0.3372 -0.4162
13212TIP3    H161051   6.806   6.197  15.305 -2.5569  0.8504 -2.5917
13212TIP3    H261052   6.815   6.315  15.400  1.1440 -0.7257 -0.8468
13213TIP3   OH261053   3.448   0.536  12.781 -0.0235 -0.6461  0.4381
13213TIP3    H161054   3.492   0.509  12.701 -1.0025 -1.5863  0.1963
13213TIP3    H261055   3.447   0.457  12.835  0.2696 -0.1268  1.2101
13214TIP3   OH261056   1.329   0.550  16.216 -0.5480  0.0354  0.1849
13214TIP3    H161057   1.301   0.468  16.175 -3.0293  1.0694 -0.3077
13214TIP3    H261058   1.379   0.596  16.148 -1.8001  0.2687 -0.5926
13215TIP3   OH261059   4.459   6.493  13.803  0.2923 -0.2006 -0.3220
13215TIP3    H161060   4.512   6.414  13.812 -0.1387 -0.6953 -1.8981
13215TIP3    H261061   4.375   6.470  13.842  0.2338 -0.4505 -0.5937
13216TIP3   OH261062   5.638   1.060   4.686  0.5946  0.5853 -0.1983
13216TIP3    H161063   5.603   1.066   4.774 -0.1201  2.1360 -0.5728
13216TIP3    H261064   5.580   0.998   4.640 -0.4766  1.6245 -0.2591
13217TIP3   OH261065   4.600   5.389   4.519 -0.1418  0.0806  0.2391
13217TIP3    H161066   4.551   5.355   4.444  0.9864  0.7453 -0.8201
13217TIP3    H261067   4.535   5.435   4.572 -1.0956 -1.0592  0.0788
13218TIP3   OH261068   4.792   1.171   0.313 -0.8443  0.5009 -0.3118
13218TIP3    H161069   4.847   1.093   0.323  0.3992  1.5092  0.9651
13218TIP3    H261070   4.813   1.204   0.226  0.8869  1.0782  0.2970
13219TIP3   OH261071   6.279   4.241  12.073 -0.7662 -0.2289  0.0289
13219TIP3    H161072   6.366   4.201  12.075 -1.4787 -1.7961  0.7591
13219TIP3    H261073   6.258   4.251  11.980 -1.4147 -3.5327 -0.2616
13220TIP3   OH261074   1.774   6.758  10.819 -0.2670  0.1913 -0.8361
13220TIP3    H161075   1.806   6.847  10.805 -0.3931 -0.1646 -3.6569
13220TIP3    H261076   1.682   6.761  10.792 -0.3950 -0.6962 -0.5133
13221TIP3   OH261077   0.706   5.756   0.473  0.2595 -0.5499 -0.6143
13221TIP3    H161078   0.694   5.764   0.379  1.6437 -2.3591 -0.9796
13221TIP3    H261079   0.784   5.701   0.483  0.0286 -0.5468  1.5831
13222TIP3   OH261080   5.728   0.729   3.380  0.3883 -0.0360  0.0552
13222TIP3    H161081   5.650   0.784   3.387  0.8995  0.5825  0.9117
13222TIP3    H261082   5.801   0.790   3.383  0.9732 -0.7753  1.2588
13223TIP3   OH261083   2.075   2.917   4.313  0.0759 -0.1294 -0.1416
13223TIP3    H161084   2.095   3.010   4.325  1.2816 -0.2251 -1.2683
13223TIP3    H261085   2.155   2.872   4.341 -0.3707 -0.8103  0.0414
13224TIP3   OH261086   2.122   5.848   5.204  0.6557 -0.2076  0.3163
13224TIP3    H161087   2.029   5.858   5.185 -0.1944 -1.7436  3.3931
13224TIP3    H261088   2.128   5.769   5.257  3.5748  0.5132  1.1821
13225TIP3   OH261089   0.609   6.468  11.915  0.0096  0.8947  0.2489
13225TIP3    H161090   0.613   6.507  12.002  2.4467  0.4195  0.3749
13225TIP3    H261091   0.679   6.404  11.913 -3.1932 -2.7951 -0.3746
13226TIP3   OH261092   2.488   4.686  16.139 -0.5397 -0.1433 -0.1763
13226TIP3    H161093   2.564   4.683  16.081 -0.6309  0.2636 -0.3171
13226TIP3    H261094   2.440   4.605  16.120 -1.2347  0.5829 -1.5852
13227TIP3   OH261095   2.839   6.306   0.622  0.4620 -0.0946 -0.3742
13227TIP3    H161096   2.766   6.340   0.570  0.5882  0.5801 -0.1178
13227TIP3    H261097   2.819   6.213   0.634 -1.5077  0.5241  1.5599
13228TIP3   OH261098   3.169   3.596  11.598 -0.9282  0.3440  0.4856
13228TIP3    H161099   3.118   3.567  11.673 -0.2798 -0.3941  0.6457
13228TIP3    H261100   3.256   3.560  11.612 -0.7542  0.3388 -0.5343
13229TIP3   OH261101   0.713   1.277  16.482  0.3911  0.0701  0.0624
13229TIP3    H161102   0.697   1.282  16.576 -1.0398 -1.4410 -0.0828
13229TIP3    H261103   0.651   1.338  16.443 -0.6457 -1.0149 -0.0396
13230TIP3   OH261104   5.459   3.106   0.181 -0.1891 -0.6950  0.2249
13230TIP3    H161105   5.396   3.118   0.252  0.8285 -1.4879  1.2599
13230TIP3    H261106   5.492   3.017   0.192 -1.7294 -1.7012 -2.6260
13231TIP3   OH261107   5.113   3.243   2.372  0.1040 -0.5233  0.8545
13231TIP3    H161108   5.091   3.335   2.384  1.5837  0.1061 -1.0924
13231TIP3    H261109   5.168   3.221   2.446  1.5639  0.7763  0.1686
13232TIP3   OH261110   4.457   4.187  12.611 -0.5891 -0.1742 -0.1373
13232TIP3    H161111   4.386   4.194  12.675 -1.6706 -1.5411 -1.1571
13232TIP3    H261112   4.479   4.094  12.610 -1.0040 -0.2713 -2.1718
13233TIP3   OH261113   4.920   1.468   5.260  0.0765  1.0073 -0.0191
13233TIP3    H161114   4.920   1.376   5.286 -2.1011  1.4282  1.5913
13233TIP3    H261115   4.986   1.509   5.317  0.3964  0.6333 -0.1157
13234TIP3   OH261116   2.807   3.471   3.442  0.2213  0.1448 -0.4426
13234TIP3    H161117   2.727   3.517   3.465  2.1072  2.9214  0.8057
13234TIP3    H261118   2.798   3.385   3.484 -1.2450  1.1414  1.3696
13235TIP3   OH261119   6.066   2.720   1.270  0.4359 -0.0222  0.1448
13235TIP3    H161120   6.072   2.658   1.197  0.0884 -0.1338  0.2093
13235TIP3    H261121   6.156   2.749   1.285  0.6815 -0.9879  0.5313
13236TIP3   OH261122   2.775   6.595   3.713 -0.0871  0.0170 -0.3577
13236TIP3    H161123   2.843   6.567   3.652 -0.1239  0.8146 -0.7670
13236TIP3    H261124   2.709   6.637   3.658 -1.7316 -2.2778 -0.1751
13237TIP3   OH261125   1.868   1.085   1.157  0.5442 -0.1516  0.6494
13237TIP3    H161126   1.828   1.032   1.226  1.7193 -0.3033  1.2220
13237TIP3    H261127   1.793   1.125   1.112 -0.2246  0.6435  2.5488
13238TIP3   OH261128   6.581   3.333  16.199  0.1967  0.0873  0.5733
13238TIP3    H161129   6.652   3.348  16.137  0.5417  2.0669  1.4136
13238TIP3    H261130   6.502   3.359  16.151  0.4749  1.7300  0.9973
13239TIP3   OH261131   3.186   0.767  13.146  0.4202 -0.4655  0.0178
13239TIP3    H161132   3.210   0.731  13.061 -2.8365  0.7509 -1.4785
13239TIP3    H261133   3.126   0.704  13.184  1.1196 -0.5412  1.0344
13240TIP3   OH261134   0.856   1.484   5.982 -0.1522 -0.2196 -0.0324
13240TIP3    H161135   0.824   1.396   5.964  0.4546 -0.6428  0.9190
13240TIP3    H261136   0.777   1.534   6.004 -0.1965 -1.2875  2.4414
13241TIP3   OH261137   0.906   5.268   3.724 -0.2304  0.4910  0.2638
13241TIP3    H161138   0.845   5.341   3.731 -1.7494 -0.6047 -1.2874
13241TIP3    H261139   0.926   5.262   3.631 -0.9173 -1.6927  0.2289
13242TIP3   OH261140   1.246   1.274   4.348  0.0596 -0.2398  0.1513
13242TIP3    H161141   1.309   1.217   4.391  0.8487  0.3897 -0.1639
13242TIP3    H261142   1.299   1.342   4.307 -0.9318  1.6357  1.8582
13243TIP3   OH261143   1.287   2.847  12.552  0.1596 -0.2968 -0.3265
13243TIP3    H161144   1.354   2.900  12.509 -0.5542  0.8474 -0.0563
13243TIP3    H261145   1.266   2.778  12.489 -0.9991  1.4500 -1.9017
13244TIP3   OH261146   1.775   4.074   1.017  0.1710 -0.4093  0.3216
13244TIP3    H161147   1.799   4.046   1.105 -1.0490  0.4521  0.9476
13244TIP3    H261148   1.768   3.993   0.967  1.1531 -0.8804  0.9322
13245TIP3   OH261149   3.370   3.929   0.851 -0.6819 -0.1295 -0.4420
13245TIP3    H161150   3.409   4.014   0.828 -1.1173  0.2429  0.1822
13245TIP3    H261151   3.404   3.869   0.785  1.7712 -0.0237  0.6853
13246TIP3   OH261152   3.926   5.692  16.071 -0.1859 -0.2103 -0.2280
13246TIP3    H161153   3.897   5.783  16.059  0.6485 -0.1240 -1.6961
13246TIP3    H261154   3.953   5.688  16.163  0.8693  1.3698 -0.4359
13247TIP3   OH261155   5.753   2.713  13.728 -0.0178  0.4048  0.4827
13247TIP3    H161156   5.757   2.620  13.705 -1.4562  0.3534  0.4341
13247TIP3    H261157   5.660   2.731  13.742  0.4363  1.3731  2.4304
13248TIP3   OH261158   5.956   4.757   3.071 -0.1813  0.8749  0.3775
13248TIP3    H161159   5.876   4.766   3.123 -0.4482 -1.1013  0.3452
13248TIP3    H261160   6.016   4.711   3.129 -0.0777 -0.2840 -0.6419
13249TIP3   OH261161   1.493   5.964  14.093  0.4654 -0.1370 -0.2131
13249TIP3    H161162   1.401   5.940  14.085  0.4487  0.1045 -0.6797
13249TIP3    H261163   1.506   5.975  14.188 -0.3866  1.4710 -0.2700
13250TIP3   OH261164   4.597   6.762   6.301  0.3902 -0.3117  0.0186
13250TIP3    H161165   4.589   6.712   6.221  1.2626 -0.6699  0.1538
13250TIP3    H261166   4.686   6.746   6.332 -0.2678 -1.0392  1.6260
13251TIP3   OH261167   3.846   5.098  13.483 -0.5479  0.0767  0.3039
13251TIP3    H161168   3.878   5.109  13.393  1.2833 -0.2873  0.8723
13251TIP3    H261169   3.836   5.004  13.494 -1.0388  0.1374  0.3982
13252TIP3   OH261170   0.780   3.991  16.617  0.1276  0.9731 -0.3612
13252TIP3    H161171   0.822   3.942  16.687 -1.2627  1.2901  0.7132
13252TIP3    H261172   0.744   3.924  16.559 -0.9064  0.7144  0.5704
13253TIP3   OH261173   5.869   3.449   4.912 -0.1773 -0.1035 -0.8324
13253TIP3    H161174   5.943   3.509   4.901  1.4730 -1.8083  0.4988
13253TIP3    H261175   5.909   3.361   4.906 -2.4651 -1.0818 -2.3730
13254TIP3   OH261176   1.446   2.895   0.882  0.2246  0.5246 -0.3390
13254TIP3    H161177   1.403   2.956   0.822  2.2876  1.8413 -0.5342
13254TIP3    H261178   1.397   2.903   0.964 -1.5883 -0.0704 -1.3355
13255TIP3   OH261179   3.800   3.985   3.700  0.8942 -0.0723  0.9657
13255TIP3    H161180   3.805   3.974   3.795  0.5905 -2.4669  0.7531
13255TIP3    H261181   3.778   3.897   3.668 -0.4136  1.0171 -1.2089
13256TIP3   OH261182   4.883   4.097   4.431  0.2768  0.5258  0.4287
13256TIP3    H161183   4.892   4.109   4.336 -2.1534  2.5523  0.4015
13256TIP3    H261184   4.830   4.018   4.440 -0.8369  1.1961  0.0002
13257TIP3   OH261185   0.208   6.168   5.591 -0.0809  0.5264 -0.0101
13257TIP3    H161186   0.151   6.093   5.580  0.0168  0.4724 -0.1574
13257TIP3    H261187   0.183   6.228   5.520  0.8423 -0.0041 -0.8065
13258TIP3   OH261188   0.687   3.270  13.714  0.2711 -0.7085 -0.1935
13258TIP3    H161189   0.631   3.342  13.742  0.8103  0.2493 -1.5071
13258TIP3    H261190   0.771   3.287  13.756  0.9908  0.5640 -2.0728
13259TIP3   OH261191   3.089   1.584   4.482  0.2786  0.1728  0.1044
13259TIP3    H161192   2.994   1.574   4.474  0.0332  2.0837  0.2419
13259TIP3    H261193   3.118   1.503   4.524 -1.5293  0.2460  1.6052
13260TIP3   OH261194   0.041   4.312  13.621 -0.6673 -0.2049 -0.1839
13260TIP3    H161195   0.096   4.237  13.597  1.7895  1.8627 -1.2494
13260TIP3    H261196   0.092   4.358  13.689 -0.4439  2.4375 -2.0677
13261TIP3   OH261197   1.397   0.889   3.116 -0.9131  0.0546  0.4810
13261TIP3    H161198   1.384   0.930   3.030 -0.6862  1.5116  1.1236
13261TIP3    H261199   1.442   0.807   3.097  0.4683  1.0497 -0.6768
13262TIP3   OH261200   4.335   0.122   0.981  0.2495 -0.1057 -0.6442
13262TIP3    H161201   4.253   0.091   0.943  0.0397  0.9894 -1.1154
13262TIP3    H261202   4.327   0.103   1.074  0.0521 -1.2730 -0.8948
13263TIP3   OH261203   6.457   4.291  14.747  0.2259  0.4104 -0.2909
13263TIP3    H161204   6.382   4.269  14.691  1.2142  0.9364 -1.8675
13263TIP3    H261205   6.471   4.385  14.732  1.1400  0.3397  0.0710
13264TIP3   OH261206   6.545   1.564  12.842 -0.5592 -0.5132  0.6605
13264TIP3    H161207   6.521   1.657  12.844  0.7935 -0.0983 -0.8770
13264TIP3    H261208   6.625   1.561  12.790 -2.4076 -2.9057 -2.2423
13265TIP3   OH261209   6.221   4.917  11.537 -0.1134 -0.4816  0.0839
13265TIP3    H161210   6.265   4.897  11.455 -0.3250 -1.3466  0.1743
13265TIP3    H261211   6.249   4.848  11.597 -2.1804 -1.4904 -0.0689
13266TIP3   OH261212   6.738   1.624  13.934 -0.1320  0.1582  0.0777
13266TIP3    H161213   6.731   1.573  14.015  0.4319 -1.7842 -1.0602
13266TIP3    H261214   6.664   1.595  13.881  0.1702  0.5426 -0.5633
13267TIP3   OH261215   5.990   1.823   1.191 -0.6157  0.0472  0.3208
13267TIP3    H161216   5.918   1.804   1.131 -1.5770  0.8424  1.2037
13267TIP3    H261217   6.032   1.900   1.154  1.4204 -1.9296 -1.6129
13268TIP3   OH261218   1.891   0.167   4.096 -0.3177  0.3743  0.5231
13268TIP3    H161219   1.912   0.196   4.185  0.6320  0.0170  0.4216
13268TIP3    H261220   1.798   0.146   4.099 -0.1435 -0.2716  1.6181
13269TIP3   OH261221   2.275   2.673   3.293  0.2688 -0.4517  0.1299
13269TIP3    H161222   2.339   2.668   3.363  0.6783  0.0545 -0.2062
13269TIP3    H261223   2.310   2.738   3.232 -0.0156 -0.9798 -0.6097
13270TIP3   OH261224   1.989   0.267   6.924  0.0028  0.1404 -0.5802
13270TIP3    H161225   1.908   0.318   6.920  0.1290  0.5867  1.6205
13270TIP3    H261226   2.057   0.327   6.891 -0.2469  0.4923 -0.4539
13271TIP3   OH261227   1.093   3.931  12.844 -0.5512 -0.1184  0.6170
13271TIP3    H161228   1.086   3.954  12.751 -0.8522 -1.9327  0.1675
13271TIP3    H261229   1.144   4.002  12.882 -0.4713  0.6855 -0.9263
13272TIP3   OH261230   4.617   2.977  11.517 -0.1166  0.8038 -0.4634
13272TIP3    H161231   4.643   2.945  11.604 -3.0250 -0.1308  0.1041
13272TIP3    H261232   4.670   2.925  11.456  1.3611  0.8982  0.6922
13273TIP3   OH261233   5.753   4.042  11.451  0.2163 -0.2467  0.0146
13273TIP3    H161234   5.749   4.060  11.544  0.7319 -0.2881  0.0495
13273TIP3    H261235   5.663   4.050  11.420  0.1751  0.6098  0.3529
13274TIP3   OH261236   4.825   6.171   6.404  0.2762  0.1552  0.4458
13274TIP3    H161237   4.858   6.231   6.470 -0.7488  0.4003  0.7359
13274TIP3    H261238   4.787   6.098   6.453 -1.1220  0.6693  0.1588
13275TIP3   OH261239   0.168   1.466  16.409 -0.0767  0.2161  0.0506
13275TIP3    H161240   0.202   1.535  16.351  0.5341  0.4957  0.7331
13275TIP3    H261241   0.208   1.385  16.375  1.3732  0.5527  0.9013
13276TIP3   OH261242   2.228   6.577   1.053 -0.0262  0.0915  0.3438
13276TIP3    H161243   2.311   6.581   1.102  0.4391 -0.9316 -0.3422
13276TIP3    H261244   2.231   6.654   0.996 -0.1060  0.7244  1.1707
13277TIP3   OH261245   1.755   3.028   1.215 -0.0334 -0.2401 -0.2088
13277TIP3    H161246   1.744   2.970   1.290  1.6468 -0.2258  0.0538
13277TIP3    H261247   1.848   3.049   1.214  0.1691 -1.1188 -2.9623
13278TIP3   OH261248   4.000   3.196  12.443  0.1565 -0.4932 -0.3088
13278TIP3    H161249   4.008   3.285  12.409  0.1635  0.2306  1.5400
13278TIP3    H261250   3.968   3.207  12.532  1.0805 -2.3153  0.2761
13279TIP3   OH261251   3.155   3.882  11.528  0.3838  0.1146  0.2356
13279TIP3    H161252   3.248   3.895  11.548  0.4060 -1.1584  1.0508
13279TIP3    H261253   3.137   3.792  11.557 -0.5960 -0.3747 -1.8218
13280TIP3   OH261254   2.211   5.390   5.458 -0.3268  0.1849 -0.2319
13280TIP3    H161255   2.267   5.359   5.529  1.4394  0.9260 -1.2918
13280TIP3    H261256   2.125   5.353   5.479  0.1973  0.2184  2.1794
13281TIP3   OH261257   2.927   0.597   4.623 -0.3214 -0.1759  0.5585
13281TIP3    H161258   2.945   0.616   4.532 -0.7866 -1.0895  0.2628
13281TIP3    H261259   2.898   0.680   4.661 -2.4108 -0.2812 -0.7134
13282TIP3   OH261260   6.178   3.751   1.613  0.0982  0.4461 -0.4946
13282TIP3    H161261   6.213   3.782   1.697 -1.2327  0.3577  0.1218
13282TIP3    H261262   6.203   3.819   1.550 -1.4519  2.0465  0.5525
13283TIP3   OH261263   2.333   3.968   2.675  0.0778  1.0251 -0.4617
13283TIP3    H161264   2.412   4.020   2.688  1.6946 -1.3265 -0.4127
13283TIP3    H261265   2.292   3.965   2.762  1.7172 -0.4051  0.3236
13284TIP3   OH261266   1.819   2.393   1.428  0.2677 -0.6241  0.7378
13284TIP3    H161267   1.811   2.483   1.398  1.8614 -0.6497  0.1667
13284TIP3    H261268   1.797   2.340   1.351  0.5417 -0.7085  0.7149
13285TIP3   OH261269   1.825   4.106  13.271  0.2432  0.5074  1.0873
13285TIP3    H161270   1.894   4.170  13.253  0.9824 -0.8304 -0.9786
13285TIP3    H261271   1.744   4.153  13.254  0.6743  1.6124  1.9831
13286TIP3   OH261272   4.792   0.256   1.071 -0.2603  0.0047  0.0801
13286TIP3    H161273   4.883   0.288   1.067  0.4020 -1.9528 -1.3066
13286TIP3    H261274   4.776   0.242   1.164  1.2968 -0.8408  0.2403
13287TIP3   OH261275   1.407   6.475  15.730  0.2886 -0.1898  0.5045
13287TIP3    H161276   1.492   6.465  15.687 -0.1734  1.9469 -1.0216
13287TIP3    H261277   1.402   6.569  15.750 -1.8063 -0.2556  0.3430
13288TIP3   OH261278   2.484   0.718   3.788 -0.3052  0.3745 -0.1012
13288TIP3    H161279   2.555   0.660   3.760  1.3145  1.0420  2.5386
13288TIP3    H261280   2.453   0.681   3.870 -0.5054  2.1895  0.6669
13289TIP3   OH261281   6.700   3.281   5.834  0.6430 -0.1241  0.9046
13289TIP3    H161282   6.685   3.283   5.739  0.8859 -0.3970  0.8611
13289TIP3    H261283   6.722   3.190   5.853 -0.0135 -0.1985  1.3186
13290TIP3   OH261284   0.391   3.916   2.980 -0.0805 -0.2427  0.0804
13290TIP3    H161285   0.391   3.851   3.050 -0.1499 -1.2962 -0.8812
13290TIP3    H261286   0.482   3.920   2.951 -0.0721  0.1052  0.1555
13291TIP3   OH261287   2.106   5.045  12.367  0.0643  0.3184  0.0991
13291TIP3    H161288   2.077   5.017  12.453  0.7948  1.0302  0.5789
13291TIP3    H261289   2.070   5.132  12.356 -2.1872 -0.7415 -1.3861
13292TIP3   OH261290   6.442   6.257   5.626 -0.1665  0.6147 -0.1973
13292TIP3    H161291   6.378   6.185   5.631 -0.6504  0.9321 -1.6577
13292TIP3    H261292   6.392   6.336   5.645  0.4173  0.5701  1.6644
13293TIP3   OH261293   3.459   5.395  14.838 -0.2065 -0.0704  0.1272
13293TIP3    H161294   3.551   5.420  14.831  0.1482 -0.7496  2.0528
13293TIP3    H261295   3.457   5.305  14.807  0.1967 -0.8149  2.1730
13294TIP3   OH261296   0.617   5.453  10.942 -0.5799  0.2650 -0.0435
13294TIP3    H161297   0.708   5.444  10.914 -0.4957 -0.2399  0.3807
13294TIP3    H261298   0.571   5.486  10.865 -0.1892 -0.2554 -0.5044
13295TIP3   OH261299   5.918   2.256   0.399 -0.5955  0.3268  0.0760
13295TIP3    H161300   5.954   2.181   0.445 -2.3190  0.4175  1.6240
13295TIP3    H261301   5.848   2.220   0.344 -0.2161  0.5624 -0.5700
13296TIP3   OH261302   5.153   5.019  12.031  0.5685  0.3001 -0.4588
13296TIP3    H161303   5.109   5.094  11.991 -0.3914 -0.0075  0.0080
13296TIP3    H261304   5.097   4.995  12.105  0.9508 -0.7893 -0.5162
13297TIP3   OH261305   2.975   1.233   4.000  0.4874  0.3287  0.4229
13297TIP3    H161306   3.022   1.233   4.083  0.7447  0.7932  0.2838
13297TIP3    H261307   3.023   1.170   3.946 -0.1435 -0.5431  0.8772
13298TIP3   OH261308   2.608   3.894   0.596 -0.0562 -0.2575 -0.2544
13298TIP3    H161309   2.688   3.942   0.618 -0.8503  0.7754  0.4605
13298TIP3    H261310   2.629   3.847   0.516  1.9602 -1.7500  1.1114
13299TIP3   OH261311   4.858   6.235  12.371 -0.4187 -0.1176  0.8526
13299TIP3    H161312   4.935   6.201  12.417  0.4908 -1.1239 -1.3098
13299TIP3    H261313   4.895   6.296  12.307 -1.2896 -1.5267 -1.0232
13300TIP3   OH261314   3.520   6.356   5.690 -0.2532 -0.2154 -0.6197
13300TIP3    H161315   3.590   6.360   5.755 -0.1803  0.9097 -0.7630
13300TIP3    H261316   3.455   6.298   5.729 -0.8538  1.5601  1.1080
13301TIP3   OH261317   6.466   5.666   0.372  0.2836 -0.0339  0.2436
13301TIP3    H161318   6.441   5.639   0.460  2.3696 -1.9230  0.3175
13301TIP3    H261319   6.532   5.601   0.345  0.8685  1.4477 -2.0609
13302TIP3   OH261320   5.731   1.383   5.073 -0.4255 -0.2674 -0.4812
13302TIP3    H161321   5.802   1.445   5.057  0.2233 -0.7380  0.5288
13302TIP3    H261322   5.662   1.409   5.012 -0.1574  1.4321 -0.0747
13303TIP3   OH261323   2.947   4.871  11.677 -0.1531 -0.2262  0.6300
13303TIP3    H161324   3.000   4.936  11.630 -0.5125 -0.2690  0.1609
13303TIP3    H261325   2.857   4.895  11.658 -0.2991 -1.9965 -1.1655
13304TIP3   OH261326   0.533   2.772   4.248 -0.4694  0.2861 -0.0089
13304TIP3    H161327   0.518   2.730   4.333 -1.5758 -0.3844 -0.5232
13304TIP3    H261328   0.538   2.866   4.268 -2.8354  0.3201  0.5453
13305TIP3   OH261329   2.882   4.125  16.611 -0.0175 -0.2174 -0.4857
13305TIP3    H161330   2.855   4.136  16.703 -1.2849  0.1345 -0.8812
13305TIP3    H261331   2.891   4.214  16.578  1.6455 -0.3315 -0.3803
13306TIP3   OH261332   1.423   2.433  11.653  0.2838 -0.0017 -0.9102
13306TIP3    H161333   1.350   2.416  11.593  1.8253 -1.9509 -2.3335
13306TIP3    H261334   1.476   2.499  11.607 -0.1787  0.8423 -0.2338
13307TIP3   OH261335   6.616   5.440   2.016 -0.5959  0.2575  0.4666
13307TIP3    H161336   6.571   5.485   1.945  1.1657  1.9373  0.3885
13307TIP3    H261337   6.593   5.347   2.003 -1.6930  0.7377 -1.2314
13308TIP3   OH261338   1.106   2.603  16.497 -0.1562 -0.2451  0.1094
13308TIP3    H161339   1.012   2.606  16.516 -0.1983 -0.2503 -0.1049
13308TIP3    H261340   1.127   2.689  16.461  0.2556  0.3637  1.7500
13309TIP3   OH261341   2.735   3.676  15.398  0.2073 -0.3480 -0.2715
13309TIP3    H161342   2.774   3.742  15.455 -0.9318  0.6959 -0.6977
13309TIP3    H261343   2.669   3.633  15.453  1.2430 -1.4521  0.1415
13310TIP3   OH261344   1.111   1.741   2.696  0.0963  0.5797 -0.2433
13310TIP3    H161345   1.187   1.709   2.745 -0.0967  2.3613  1.2904
13310TIP3    H261346   1.035   1.705   2.742 -0.0372  0.5164 -0.5114
13311TIP3   OH261347   4.765   4.793   4.601 -0.4978  0.2376 -0.5797
13311TIP3    H161348   4.853   4.786   4.636 -0.7270  3.0878  0.6773
13311TIP3    H261349   4.769   4.866   4.540 -2.0869  0.6672 -0.1883
13312TIP3   OH261350   2.076   5.237  16.588 -0.0913 -0.3067  0.7582
13312TIP3    H161351   2.076   5.311  16.528 -0.3487 -1.3056 -0.4948
13312TIP3    H261352   2.118   5.166  16.539 -0.6859 -1.2467  1.5985
13313TIP3   OH261353   1.183   1.319   6.817  0.4193  0.2164 -0.8181
13313TIP3    H161354   1.097   1.317   6.774 -1.1001  0.6128  2.1098
13313TIP3    H261355   1.201   1.413   6.829  1.0350  0.1174 -0.9517
13314TIP3   OH261356   0.910   4.355  17.066  0.3163 -0.3914 -0.0545
13314TIP3    H161357   0.862   4.275  17.044 -1.4514  0.4136  0.7591
13314TIP3    H261358   0.938   4.389  16.982 -1.2941 -0.4342 -0.6364
13315TIP3   OH261359   0.565   3.493   2.716 -0.2651 -0.4084 -0.6541
13315TIP3    H161360   0.626   3.550   2.669  0.8192  1.3569  2.7098
13315TIP3    H261361   0.615   3.413   2.733  1.0013  0.8363  1.6495
13316TIP3   OH261362   2.143   3.898  15.816  0.8743  0.5343 -0.8020
13316TIP3    H161363   2.142   3.867  15.725  1.2561 -1.2071 -0.2416
13316TIP3    H261364   2.109   3.987  15.811 -0.9168 -0.1951 -2.4229
13317TIP3   OH261365   2.671   3.008   2.689  0.7302  0.3065  0.0740
13317TIP3    H161366   2.630   2.922   2.697  3.0856 -0.8657 -0.0428
13317TIP3    H261367   2.662   3.030   2.596 -0.0623  0.2913  0.1431
13318TIP3   OH261368   4.516   6.615  12.528 -0.0611  0.1108 -0.7672
13318TIP3    H161369   4.582   6.685  12.532  0.5185 -0.5099  1.2027
13318TIP3    H261370   4.442   6.649  12.578 -0.4310 -0.0403 -1.2019
13319TIP3   OH261371   5.190   0.239   4.690  0.0186  0.3988 -0.3447
13319TIP3    H161372   5.231   0.155   4.668 -0.7935 -0.5086  1.4670
13319TIP3    H261373   5.221   0.259   4.778 -3.5077 -0.4333  1.1967
13320TIP3   OH261374   1.291   2.509  14.838 -0.0196  1.1252 -0.3051
13320TIP3    H161375   1.376   2.492  14.798 -0.0775 -0.3672  0.2108
13320TIP3    H261376   1.267   2.596  14.806  1.6618  1.5239 -0.5089
13321TIP3   OH261377   2.880   1.565   4.761  0.1834  0.6747  0.2235
13321TIP3    H161378   2.968   1.601   4.774  0.6891 -0.1874 -0.7606
13321TIP3    H261379   2.855   1.532   4.847  2.5602 -2.9390 -0.3702
13322TIP3   OH261380   0.918   2.619   4.633  0.3690  0.1814  0.1059
13322TIP3    H161381   0.851   2.665   4.684 -0.3332  0.5614 -1.1223
13322TIP3    H261382   0.965   2.566   4.697 -2.0790 -1.2519  0.7921
13323TIP3   OH261383   4.002   1.796  12.496 -0.0294  0.1802  0.1360
13323TIP3    H161384   4.076   1.849  12.526 -0.8658  0.3936  1.8922
13323TIP3    H261385   4.025   1.771  12.406  1.7232  1.0447  0.3232
13324TIP3   OH261386   0.384   1.052   1.701  0.2209  0.3235 -0.2038
13324TIP3    H161387   0.407   1.099   1.621  0.3675 -3.5230 -2.5824
13324TIP3    H261388   0.298   1.085   1.725 -0.3033  0.7744 -2.6041
13325TIP3   OH261389   5.657   3.900   0.027 -0.1694 -0.1470  0.4507
13325TIP3    H161390   5.637   3.955  -0.049  0.5006  0.5039  0.7336
13325TIP3    H261391   5.596   3.827   0.021  1.3445 -1.2725 -1.9611
13326TIP3   OH261392   4.167   6.135  13.823  0.2108  0.6709 -0.3607
13326TIP3    H161393   4.130   6.142  13.735 -0.3217 -0.6670 -0.2470
13326TIP3    H261394   4.094   6.106  13.878  0.9775 -0.2151  0.2000
13327TIP3   OH261395   3.984   4.556   1.500 -0.1334 -0.0181 -0.0350
13327TIP3    H161396   3.909   4.535   1.555  0.9299 -0.6031  1.2233
13327TIP3    H261397   4.001   4.477   1.450 -0.8871  0.4007 -0.9692
13328TIP3   OH261398   1.491   4.960   1.970  0.1837  0.1859 -0.4934
13328TIP3    H161399   1.535   4.976   1.887 -1.3250  0.9981 -1.1383
13328TIP3    H261400   1.474   4.866   1.971  0.1708  0.1851 -1.1012
13329TIP3   OH261401   5.184   4.190  11.476 -0.5446 -0.3167  0.3967
13329TIP3    H161402   5.091   4.197  11.453 -0.2902 -1.4254 -1.0439
13329TIP3    H261403   5.201   4.096  11.478  0.1849 -0.1552  2.1673
13330TIP3   OH261404   2.580   0.259   0.964 -0.3271  0.0293 -0.9961
13330TIP3    H161405   2.658   0.312   0.983 -1.8714  1.8797  0.3427
13330TIP3    H261406   2.532   0.310   0.898 -2.2246  0.7447  0.8864
13331TIP3   OH261407   2.483   1.985  16.715  0.5462  0.3145  0.6357
13331TIP3    H161408   2.500   2.068  16.671  0.8579 -1.0414 -1.9360
13331TIP3    H261409   2.538   1.922  16.669  1.1920 -1.1240  3.3017
13332TIP3   OH261410   6.746   1.772  13.700  0.3654 -0.3771 -0.2947
13332TIP3    H161411   6.704   1.831  13.763  2.3056  1.6530 -0.8558
13332TIP3    H261412   6.703   1.687  13.715  0.2066  0.2421  3.1863
13333TIP3   OH261413   6.565   0.968  17.088  0.0557 -0.0087 -0.8120
13333TIP3    H161414   6.531   0.891  17.043  0.2371 -0.7385  0.2720
13333TIP3    H261415   6.656   0.974  17.060  0.5845 -1.3186  0.5554
13334TIP3   OH261416   5.489   6.453   4.090  0.2234  0.7851  0.0850
13334TIP3    H161417   5.472   6.544   4.114  0.9550  1.2766 -1.1986
13334TIP3    H261418   5.462   6.447   3.998  0.4455 -0.2163  0.0759
13335TIP3   OH261419   4.697   4.215  16.943  0.0913 -0.3111 -0.1397
13335TIP3    H161420   4.737   4.286  16.994  0.5323  0.4993 -1.5890
13335TIP3    H261421   4.666   4.153  17.009  2.0717 -0.0554  1.0841
13336TIP3   OH261422   2.512   5.356  16.957  0.2155  0.1963 -0.0363
13336TIP3    H161423   2.466   5.439  16.949 -0.0876 -0.1024 -1.5839
13336TIP3    H261424   2.442   5.291  16.963  0.4360 -0.1022 -0.6416
13337TIP3   OH261425   0.508   3.942  15.048 -0.5200 -0.4041 -0.4816
13337TIP3    H161426   0.582   3.952  14.987 -0.4770 -0.0459 -0.3771
13337TIP3    H261427   0.524   3.858  15.091  1.2635  0.8450  1.4281
13338TIP3   OH261428   6.022   4.977  15.943  0.3312  0.3101 -0.6653
13338TIP3    H161429   6.111   5.000  15.968  0.3829 -0.1515 -0.4228
13338TIP3    H261430   5.983   5.060  15.915  1.0730  0.3867 -1.5055
13339TIP3   OH261431   0.528   2.765   6.052  0.1713 -0.2823  0.2880
13339TIP3    H161432   0.517   2.670   6.053  0.3571 -0.2982  2.3369
13339TIP3    H261433   0.573   2.786   6.134  0.7141  1.5105 -0.4353
13340TIP3   OH261434   3.534   3.282   3.433  0.1089  0.0950 -0.1972
13340TIP3    H161435   3.536   3.207   3.374 -0.4757 -2.1322  2.4899
13340TIP3    H261436   3.464   3.262   3.495 -3.3832  5.1182 -2.1636
13341TIP3   OH261437   2.852   5.508   3.440 -0.2829  0.1513  0.3476
13341TIP3    H161438   2.765   5.467   3.438  0.3296 -1.1735  0.8780
13341TIP3    H261439   2.876   5.510   3.532 -1.4347  4.1615  0.6568
13342TIP3   OH261440   5.116   1.830   5.659  0.3425  0.2891 -0.5551
13342TIP3    H161441   5.114   1.736   5.679 -0.7649  0.4398  0.0756
13342TIP3    H261442   5.117   1.873   5.745  2.4761  0.8555 -0.8117
13343TIP3   OH261443   5.323   3.987  12.343  0.2733 -0.2092 -0.0862
13343TIP3    H161444   5.266   4.064  12.346  0.5758  0.0328 -0.6133
13343TIP3    H261445   5.339   3.972  12.250  1.1422 -0.2321  0.0624
13344TIP3   OH261446   5.647   1.937   1.371 -0.2298 -0.1226  0.0825
13344TIP3    H161447   5.740   1.916   1.381 -0.0784  0.0921 -0.7530
13344TIP3    H261448   5.646   2.032   1.359 -0.5612 -0.1173  0.1538
13345TIP3   OH261449   3.354   1.872  11.435 -0.3613 -0.5313 -0.3484
13345TIP3    H161450   3.427   1.860  11.374 -2.9915  1.9368 -4.2129
13345TIP3    H261451   3.383   1.943  11.493  0.7053 -0.3083 -1.1550
13346TIP3   OH261452   4.028   3.706  16.177  0.0388  0.5618 -0.1536
13346TIP3    H161453   4.114   3.728  16.213 -0.1316 -0.5863  1.0279
13346TIP3    H261454   4.048   3.649  16.102  0.3101  0.4949 -0.0308
13347TIP3   OH261455   1.170   3.991   5.115 -0.0122  0.0209  0.1895
13347TIP3    H161456   1.149   3.959   5.202  0.8010 -0.3117  0.2607
13347TIP3    H261457   1.241   3.935   5.084  0.9073  1.2409  0.0170
13348TIP3   OH261458   4.728   0.162  17.092 -0.0728 -0.2953 -0.5788
13348TIP3    H161459   4.741   0.136  17.184  0.8841  1.5421 -0.1779
13348TIP3    H261460   4.799   0.120  17.045  0.3040 -0.0346 -0.2455
13349TIP3   OH261461   4.268   1.420   1.935 -0.5468 -0.5415 -0.7364
13349TIP3    H161462   4.254   1.368   2.015  0.1770 -1.4454 -1.1846
13349TIP3    H261463   4.204   1.491   1.941 -2.1812 -1.9974 -0.5533
13350TIP3   OH261464   5.404   1.654  15.400 -0.1854  0.5291 -0.0176
13350TIP3    H161465   5.376   1.618  15.484  2.2313 -0.2592  0.4800
13350TIP3    H261466   5.329   1.639  15.342 -2.0943  1.5913  2.1103
13351TIP3   OH261467   0.863   2.124   0.322 -0.5561  0.3715  0.6285
13351TIP3    H161468   0.890   2.075   0.400  1.3467 -0.0000 -0.2176
13351TIP3    H261469   0.791   2.073   0.285  0.5618 -1.1505  0.4608
13352TIP3   OH261470   5.696   2.083   2.002 -0.1175 -0.6482  0.6269
13352TIP3    H161471   5.671   2.082   1.909 -1.9499 -2.0850  1.1031
13352TIP3    H261472   5.789   2.060   2.002 -0.0248 -0.3308 -0.8674
13353TIP3   OH261473   0.395   3.292   1.414  0.5691 -0.1126 -0.4122
13353TIP3    H161474   0.457   3.365   1.412  0.8254 -0.3370 -0.7088
13353TIP3    H261475   0.310   3.333   1.431  0.8375  0.1691  0.2365
13354TIP3   OH261476   3.021   1.449  11.639  0.2951 -0.3756  0.5418
13354TIP3    H161477   3.094   1.386  11.635  1.8476  1.4841 -1.9916
13354TIP3    H261478   3.063   1.534  11.625 -2.1145  0.9767  1.3396
13355TIP3   OH261479   6.632   3.104  14.570  0.3928  0.8441 -0.1228
13355TIP3    H161480   6.578   3.027  14.557  1.5816 -0.2644  1.3385
13355TIP3    H261481   6.640   3.144  14.483  0.2895 -1.0223 -1.0044
13356TIP3   OH261482   3.132   0.843  11.840 -1.0544  0.6093 -0.4240
13356TIP3    H161483   3.125   0.886  11.755 -4.2665 -2.6140 -1.9748
13356TIP3    H261484   3.041   0.821  11.863  0.0285 -1.2376  2.3740
13357TIP3   OH261485   2.686   4.030   4.640 -0.3624 -0.1367 -0.9387
13357TIP3    H161486   2.615   3.970   4.664  0.9074 -1.6539 -0.8639
13357TIP3    H261487   2.724   4.056   4.724 -1.5857  1.6504 -0.9142
13358TIP3   OH261488   2.312   5.409  13.825  0.7974  0.2671 -0.1850
13358TIP3    H161489   2.337   5.495  13.791 -0.5024 -0.1295 -2.1798
13358TIP3    H261490   2.261   5.429  13.904  0.4068  1.3436 -0.6907
13359TIP3   OH261491   0.696   4.029   0.942 -0.0335 -0.1003  0.0062
13359TIP3    H161492   0.713   3.967   1.013 -0.0470  0.0282  0.1211
13359TIP3    H261493   0.667   3.975   0.869 -1.3441 -0.1055  0.5206
13360TIP3   OH261494   5.206   5.673   0.101 -0.2755  0.5565  0.0425
13360TIP3    H161495   5.189   5.718   0.184 -0.3684  1.8559 -0.6698
13360TIP3    H261496   5.246   5.739   0.045  1.3718 -0.7719 -0.4024
13361TIP3   OH261497   6.016   1.617   3.854 -0.0726  0.1158  0.3377
13361TIP3    H161498   6.021   1.711   3.837  1.8277 -0.1732 -0.8615
13361TIP3    H261499   6.068   1.603   3.932 -1.2715  0.1961  1.1623
13362TIP3   OH261500   1.634   2.303   6.195 -0.3875  0.2021 -0.1390
13362TIP3    H161501   1.671   2.391   6.202 -2.2306  1.2500 -2.5567
13362TIP3    H261502   1.707   2.244   6.211  0.7521  2.1500  2.1522
13363TIP3   OH261503   5.726   6.110   5.542  0.4686 -0.3095  0.5159
13363TIP3    H161504   5.665   6.040   5.516  0.9896 -0.5557 -0.0578
13363TIP3    H261505   5.686   6.190   5.509  1.0233 -0.5949 -0.9100
13364TIP3   OH261506   5.416   3.410   4.549  0.0285  0.3915 -0.2093
13364TIP3    H161507   5.402   3.374   4.637  0.4613 -0.4982 -0.4973
13364TIP3    H261508   5.393   3.502   4.557 -1.4844 -0.0302  0.4495
13365TIP3   OH261509   1.012   0.663   1.227  0.3156  0.3212 -0.0287
13365TIP3    H161510   1.044   0.573   1.236 -1.1833 -0.1874  0.2998
13365TIP3    H261511   1.001   0.693   1.317  0.2953  0.6404 -0.1391
13366TIP3   OH261512   6.743   4.117  12.513 -0.2980 -0.5098 -0.0038
13366TIP3    H161513   6.794   4.165  12.448 -0.7302  1.3640  0.9843
13366TIP3    H261514   6.660   4.097  12.470  0.4386 -1.6806 -0.9061
13367TIP3   OH261515   4.289   0.654   5.660 -0.8583  0.2633 -0.2226
13367TIP3    H161516   4.262   0.685   5.747 -0.2055 -0.8369  0.3888
13367TIP3    H261517   4.303   0.561   5.672  1.9195  0.5682 -0.8334
13368TIP3   OH261518   4.175   1.635  14.804  0.4759  0.0232 -0.1952
13368TIP3    H161519   4.192   1.543  14.826 -3.2158 -0.6775  0.0120
13368TIP3    H261520   4.108   1.663  14.866 -0.4197  2.0492 -1.9986
13369TIP3   OH261521   4.158   0.359  15.128 -0.8855 -0.0478 -0.5008
13369TIP3    H161522   4.071   0.366  15.089 -0.8949 -0.0905 -0.4865
13369TIP3    H261523   4.170   0.266  15.143 -0.7734 -0.0567 -0.6458
13370TIP3   OH261524   1.560   2.638  11.511  0.2727  0.3875 -0.1718
13370TIP3    H161525   1.541   2.732  11.514 -0.3534  0.2507  0.1953
13370TIP3    H261526   1.645   2.632  11.466 -0.4171  1.0223 -1.5916
13371TIP3   OH261527   6.085   2.410   0.101  0.1050  0.1920 -0.1565
13371TIP3    H161528   6.119   2.465   0.030  1.4313  1.2267  1.2514
13371TIP3    H261529   6.000   2.380   0.070  0.3192  1.2799 -1.8498
13372TIP3   OH261530   5.562   4.561   3.332  0.3308 -0.0059  0.0103
13372TIP3    H161531   5.585   4.591   3.244 -0.8022 -0.2010 -0.3640
13372TIP3    H261532   5.644   4.565   3.381  0.6236  1.7377 -0.5900
13373TIP3   OH261533   0.570   4.998  15.987  0.3638 -0.7044  0.5186
13373TIP3    H161534   0.612   4.970  16.069  1.2258 -1.5485 -0.2098
13373TIP3    H261535   0.476   4.984  16.003  0.4201  0.1882  1.7608
13374TIP3   OH261536   6.768   5.896   2.903 -0.4877 -0.9289  0.2465
13374TIP3    H161537   6.741   5.806   2.886 -0.9107 -0.3873 -2.0785
13374TIP3    H261538   6.713   5.925   2.976 -1.1843 -2.1678  0.2167
13375TIP3   OH261539   4.902   4.150  16.009 -0.3002 -0.0021 -0.8248
13375TIP3    H161540   4.988   4.156  16.051 -0.3397  0.3236 -0.7852
13375TIP3    H261541   4.843   4.125  16.080 -1.2176  5.1217  0.4659
13376TIP3   OH261542   3.974   5.219  15.270  0.2639  0.2261 -0.5833
13376TIP3    H161543   3.911   5.147  15.268  0.7094 -0.1378 -1.6764
13376TIP3    H261544   4.059   5.177  15.285  0.4238  0.5982 -0.4288
13377TIP3   OH261545   0.307   2.912  13.460  0.7093  0.1366 -0.1969
13377TIP3    H161546   0.293   2.831  13.411  0.9803  0.7407 -1.3039
13377TIP3    H261547   0.369   2.889  13.529 -1.5551 -1.3054  1.4066
13378TIP3   OH261548   4.134   6.595   1.937  0.1562  0.1505  0.2666
13378TIP3    H161549   4.050   6.587   1.892 -0.1105 -0.4426  0.8805
13378TIP3    H261550   4.195   6.546   1.881  0.3446  1.5686 -0.8071
13379TIP3   OH261551   0.496   1.843   4.171 -0.1382 -0.6417 -0.3464
13379TIP3    H161552   0.489   1.756   4.210 -0.6562 -0.2745  0.3899
13379TIP3    H261553   0.586   1.871   4.190  0.4172 -1.5288 -1.6731
13380TIP3   OH261554   4.588   0.743   1.257  0.6291  0.6120  0.3321
13380TIP3    H161555   4.614   0.737   1.165 -0.8732  0.0376 -0.0703
13380TIP3    H261556   4.505   0.791   1.255 -1.5048 -2.8265  0.9590
13381TIP3   OH261557   4.686   6.655   2.328  0.4751  0.1608 -0.1636
13381TIP3    H161558   4.704   6.570   2.369  2.4327  2.0293  2.9566
13381TIP3    H261559   4.763   6.708   2.345 -0.8748  2.7442 -1.7237
13382TIP3   OH261560   4.720   4.049  17.231  0.4163 -0.5274 -0.1497
13382TIP3    H161561   4.757   3.981  17.175  0.3523  0.1944 -1.0824
13382TIP3    H261562   4.791   4.112  17.242  0.4742 -0.7302  0.7162
13383TIP3   OH261563   3.117   4.565  12.136  0.0357 -0.4065  0.4768
13383TIP3    H161564   3.173   4.562  12.059 -2.9310 -0.4648 -1.7549
13383TIP3    H261565   3.124   4.477  12.174  0.8024 -0.6600 -0.2344
13384TIP3   OH261566   3.121   3.813   3.150  0.6574 -0.5131 -0.0482
13384TIP3    H161567   3.161   3.879   3.207 -1.0113  0.3675  0.1327
13384TIP3    H261568   3.036   3.796   3.189 -0.1519 -0.5633 -1.7724
13385TIP3   OH261569   2.812   2.519  16.647 -0.0782 -0.2459 -0.7390
13385TIP3    H161570   2.751   2.491  16.715  0.6144  2.1574  0.9536
13385TIP3    H261571   2.759   2.571  16.586 -0.3041 -0.6523 -0.8853
13386TIP3   OH261572   0.626   1.024   4.179  0.1974  0.4227  0.3893
13386TIP3    H161573   0.647   0.932   4.163  0.5270  0.8250 -1.7301
13386TIP3    H261574   0.536   1.034   4.148 -1.5126 -0.1604  4.8066
13387TIP3   OH261575   3.911   3.463  11.524  0.0245 -0.3277  0.1783
13387TIP3    H161576   3.994   3.472  11.571  0.3710 -1.0898 -0.2771
13387TIP3    H261577   3.923   3.514  11.444 -0.1774  0.0889  0.4153
13388TIP3   OH261578   0.385   0.733   5.162  0.2461  0.1504 -0.1402
13388TIP3    H161579   0.432   0.806   5.202  0.8590  1.0585 -2.4088
13388TIP3    H261580   0.452   0.669   5.142  0.0793  0.0818 -0.4908
13389TIP3   OH261581   3.163   2.978  12.753  0.6027 -0.0558  0.0128
13389TIP3    H161582   3.129   3.044  12.814 -0.3519  0.2888 -0.8769
13389TIP3    H261583   3.200   2.910  12.810 -0.4161  0.1801  0.9935
13390TIP3   OH261584   2.843   1.660   2.914 -0.3326  0.1885 -0.5226
13390TIP3    H161585   2.818   1.584   2.863  2.0696 -1.1249  0.1786
13390TIP3    H261586   2.825   1.635   3.005  0.6570  0.3682 -0.2721
13391TIP3   OH261587   3.391   6.516  12.149  0.3544 -0.0776  0.2978
13391TIP3    H161588   3.388   6.455  12.223 -0.8300  2.3569  2.3096
13391TIP3    H261589   3.470   6.568  12.164  0.0016  0.5588 -0.0248
13392TIP3   OH261590   6.465   5.136  11.369  0.2129 -0.2362 -0.3369
13392TIP3    H161591   6.454   5.161  11.460 -1.6814  1.4550 -0.9849
13392TIP3    H261592   6.418   5.053  11.361 -0.0300 -0.1431  0.1173
13393TIP3   OH261593   0.153   5.034  12.914 -0.3315 -0.2145  0.2159
13393TIP3    H161594   0.115   5.042  13.002 -0.8038 -0.4321  0.0369
13393TIP3    H261595   0.170   4.941  12.904 -4.6043 -0.9436 -1.6657
13394TIP3   OH261596   2.943   4.422  15.716 -0.5360  0.2862  0.1591
13394TIP3    H161597   2.924   4.373  15.636 -1.3706  0.8096  0.0361
13394TIP3    H261598   2.987   4.502  15.685  3.0116 -1.4134  0.4950
13395TIP3   OH261599   0.565   0.443   6.937 -0.7604  0.0109  0.0571
13395TIP3    H161600   0.596   0.474   6.852 -0.6167 -1.0226 -0.2656
13395TIP3    H261601   0.588   0.351   6.940  0.6350  0.3725  1.8639
13396TIP3   OH261602   1.053   2.911   1.287 -0.2111  0.3982 -0.5222
13396TIP3    H161603   1.119   2.842   1.296 -1.4518 -0.9974 -1.8948
13396TIP3    H261604   1.028   2.909   1.195 -2.8041  0.3053  0.1423
13397TIP3   OH261605   5.685   4.114  14.481 -0.3787 -0.2339 -0.2803
13397TIP3    H161606   5.697   4.116  14.576  0.0742 -0.2552 -0.3376
13397TIP3    H261607   5.664   4.022  14.462 -0.4582 -0.2315 -0.2041
13398TIP3   OH261608   0.104   3.038  10.816 -0.3521 -0.0718 -0.2978
13398TIP3    H161609   0.126   3.092  10.740 -0.5940  0.9808  0.3630
13398TIP3    H261610   0.126   3.093  10.891 -2.7895  0.0241  0.3939
13399TIP3   OH261611   2.862   0.088   1.107 -0.2434  0.6594  0.2690
13399TIP3    H161612   2.909   0.005   1.101 -0.8021  0.3330  0.3805
13399TIP3    H261613   2.920   0.145   1.158 -0.4506 -0.0827  1.3415
13400TIP3   OH261614   3.207   6.706   1.635  0.3231 -0.7873 -0.4596
13400TIP3    H161615   3.126   6.700   1.584  0.2700 -0.7893 -0.3751
13400TIP3    H261616   3.251   6.783   1.600 -0.6262  0.3539  0.8079
13401TIP3   OH261617   6.138   6.190  15.674  0.2742 -0.2992 -0.6068
13401TIP3    H161618   6.111   6.178  15.766  2.1428 -0.0012  0.0088
13401TIP3    H261619   6.155   6.102  15.643 -1.3732 -0.4892 -1.0000
13402TIP3   OH261620   6.612   6.276  11.237 -0.3561 -0.4565 -0.2804
13402TIP3    H161621   6.606   6.245  11.147  2.0569  0.3807 -0.7884
13402TIP3    H261622   6.594   6.198  11.291  1.7154 -1.8480 -1.5161
13403TIP3   OH261623   5.436   3.922   2.099  0.0465  0.7917  0.4215
13403TIP3    H161624   5.427   3.954   2.010  1.3443  1.1063  0.3869
13403TIP3    H261625   5.365   3.859   2.110 -1.0380  1.8577 -0.3263
13404TIP3   OH261626   5.912   3.176   2.716  0.1752 -0.0814 -0.3543
13404TIP3    H161627   5.924   3.142   2.627 -1.3995 -1.1085 -0.1883
13404TIP3    H261628   5.826   3.145   2.742  0.3617  0.7539  1.3093
13405TIP3   OH261629   2.146   1.873  14.774 -0.1558 -0.5741  0.2818
13405TIP3    H161630   2.158   1.961  14.739  0.0733 -0.5671  0.3762
13405TIP3    H261631   2.233   1.832  14.766  0.3790  0.0341  2.5321
13406TIP3   OH261632   5.165   1.918   0.252  0.3316 -0.4989 -0.7584
13406TIP3    H161633   5.082   1.960   0.231 -0.2408 -1.1482  0.1995
13406TIP3    H261634   5.178   1.855   0.181 -0.3599 -0.9187 -0.5144
13407TIP3   OH261635   1.733   4.089   5.102  0.0553 -0.1069  0.2320
13407TIP3    H161636   1.701   4.027   5.168 -1.2461 -0.6592 -0.9072
13407TIP3    H261637   1.782   4.155   5.153  0.2976 -1.3136  1.5829
13408TIP3   OH261638   0.182   6.568   4.930 -0.0975  0.2790  0.4397
13408TIP3    H161639   0.169   6.660   4.907  0.3340  0.4992  1.0811
13408TIP3    H261640   0.247   6.536   4.867  0.1217  0.5408  0.5349
13409TIP3   OH261641   6.544   0.419  11.445  0.4587  0.3684  0.0061
13409TIP3    H161642   6.496   0.416  11.527  1.0668 -1.0223  0.3300
13409TIP3    H261643   6.544   0.511  11.419 -0.5617  0.6649  1.0684
13410TIP3   OH261644   1.896   5.199   5.165 -0.0801 -0.1496  0.6097
13410TIP3    H161645   1.857   5.277   5.125 -0.9716 -0.0339  1.6780
13410TIP3    H261646   1.946   5.159   5.094 -2.9626 -0.8500 -1.1146
13411TIP3   OH261647   3.315   3.751  16.692  0.0233 -0.2185 -0.2587
13411TIP3    H161648   3.223   3.778  16.694 -0.2836 -1.3884  1.7875
13411TIP3    H261649   3.339   3.759  16.600 -2.3273 -0.5761 -0.9478
13412TIP3   OH261650   3.977   0.111   3.731 -0.1064 -0.0942 -0.3766
13412TIP3    H161651   3.932   0.031   3.758 -1.5641  0.4131 -1.2096
13412TIP3    H261652   4.029   0.136   3.807 -1.7210 -0.3965  0.8709
13413TIP3   OH261653   3.688   5.444   0.163 -0.5101  0.4300 -0.5841
13413TIP3    H161654   3.692   5.451   0.259  1.0248  0.6579 -0.6446
13413TIP3    H261655   3.765   5.492   0.133 -1.1980  0.6869 -1.9591
13414TIP3   OH261656   1.389   6.241  16.202 -0.4405 -0.0174  0.0147
13414TIP3    H161657   1.381   6.322  16.253  0.3850 -0.2429  0.5005
13414TIP3    H261658   1.387   6.270  16.111 -0.4537  0.5223  0.1829
13415TIP3   OH261659   0.233   0.966  15.865 -0.6164  0.4166  0.4068
13415TIP3    H161660   0.317   0.934  15.898 -0.5543 -0.8804 -0.9508
13415TIP3    H261661   0.252   0.999  15.777 -0.9645  2.9234  1.2283
13416TIP3   OH261662   0.793   6.076   6.139 -0.4039  0.3961  0.3972
13416TIP3    H161663   0.811   6.162   6.176 -0.7631  1.5756 -2.0302
13416TIP3    H261664   0.706   6.053   6.172 -1.1094  1.8355 -0.3907
13417TIP3   OH261665   4.196   0.477   4.712  0.4395  0.4006  0.0419
13417TIP3    H161666   4.113   0.523   4.699  0.1521 -0.6743 -2.1350
13417TIP3    H261667   4.263   0.541   4.690  0.0659  0.1492 -1.9340
13418TIP3   OH261668   2.157   1.987   5.468  0.1333  0.2715  0.3823
13418TIP3    H161669   2.177   1.894   5.456  1.6931  0.6924 -0.3993
13418TIP3    H261670   2.071   1.999   5.428  0.8079 -0.4395 -1.3495
13419TIP3   OH261671   3.655   2.060   1.991 -1.1120 -0.2339 -0.4537
13419TIP3    H161672   3.643   2.141   2.042  0.5062 -1.6172  2.2305
13419TIP3    H261673   3.670   1.993   2.057  2.4502 -1.8958 -2.8296
13420TIP3   OH261674   4.947   6.134  14.537  0.0783 -0.3603 -0.1576
13420TIP3    H161675   4.937   6.160  14.446 -2.3903 -0.0984  0.1679
13420TIP3    H261676   4.860   6.102  14.563  0.8880 -0.9436  1.9441
13421TIP3   OH261677   0.019   2.463  16.832  0.2071 -0.0441  0.0256
13421TIP3    H161678   0.062   2.450  16.747  2.1372  0.3519  0.9111
13421TIP3    H261679   0.069   2.408  16.892 -1.4507 -0.6966  0.8244
13422TIP3   OH261680   0.755   1.575   3.190 -0.4891 -0.0245 -0.5006
13422TIP3    H161681   0.822   1.523   3.234  0.4248 -0.6149 -2.5311
13422TIP3    H261682   0.673   1.531   3.210  0.0197 -0.8756 -0.2430
13423TIP3   OH261683   1.194   4.829  14.848  0.1299  0.2775  0.4641
13423TIP3    H161684   1.170   4.877  14.928 -2.3994  0.5500 -0.4031
13423TIP3    H261685   1.131   4.757  14.844 -0.7353  1.1227 -2.0525
13424TIP3   OH261686   4.386   1.939   5.131  0.2161 -0.4431 -0.2684
13424TIP3    H161687   4.400   1.957   5.039  2.1931 -1.1668 -0.1268
13424TIP3    H261688   4.460   1.981   5.176  1.2076 -3.0194  0.6499
13425TIP3   OH261689   3.914   0.788   1.839 -0.7357 -0.0162 -0.2273
13425TIP3    H161690   3.918   0.704   1.793 -1.4419 -0.5191  0.6108
13425TIP3    H261691   3.855   0.841   1.786 -1.4121 -0.5327  0.0018
13426TIP3   OH261692   5.648   3.652   2.803  0.2872  1.0680  0.0792
13426TIP3    H161693   5.742   3.663   2.787  0.1562  2.0529 -0.0436
13426TIP3    H261694   5.632   3.560   2.786  0.4800  1.6900 -3.8384
13427TIP3   OH261695   5.460   0.879  11.381  0.6886  0.1777  0.3510
13427TIP3    H161696   5.432   0.896  11.291  0.1685 -0.1079  0.4595
13427TIP3    H261697   5.547   0.840  11.371  0.1370 -0.9747 -0.0942
13428TIP3   OH261698   3.586   2.199   5.353 -0.1592 -0.3275  0.5517
13428TIP3    H161699   3.575   2.225   5.261 -0.4066 -0.4981  0.5313
13428TIP3    H261700   3.515   2.243   5.399 -1.9745 -2.7483  0.1587
13429TIP3   OH261701   1.967   3.280   1.440 -0.1800  0.1594  0.5617
13429TIP3    H161702   1.874   3.295   1.451 -0.4800 -0.7824 -0.6546
13429TIP3    H261703   1.980   3.272   1.346  1.1805  0.5866  0.6951
13430TIP3   OH261704   5.930   3.441  13.871  0.8231 -0.0634 -0.0625
13430TIP3    H161705   5.986   3.497  13.924  0.7558  0.1580 -0.2263
13430TIP3    H261706   5.890   3.380  13.934  0.4934  0.4059  0.1866
13431TIP3   OH261707   5.498   2.057   3.718 -0.0783 -0.5039 -0.5639
13431TIP3    H161708   5.549   1.987   3.677  3.0416  0.9557  0.6033
13431TIP3    H261709   5.466   2.020   3.799 -0.9152 -1.4535 -1.3172
13432TIP3   OH261710   3.076   3.039   4.805 -0.2127  0.1325  0.2365
13432TIP3    H161711   3.053   3.115   4.859 -0.5699  0.0439  0.2078
13432TIP3    H261712   3.113   3.076   4.725  0.8507  0.2564  0.7803
13433TIP3   OH261713   5.615   1.738  13.410  0.4228  0.2796 -0.3534
13433TIP3    H161714   5.540   1.694  13.370 -0.4481  1.4011  0.0160
13433TIP3    H261715   5.585   1.828  13.424  2.0331  0.8797 -0.7084
13434TIP3   OH261716   5.095   6.787  14.518 -0.8293  0.5301 -0.2255
13434TIP3    H161717   5.003   6.771  14.502 -0.9016 -0.2826  0.9222
13434TIP3    H261718   5.141   6.720  14.467 -0.8850  0.7136 -0.5171
13435TIP3   OH261719   0.030   3.276   4.151  0.0782 -0.0563  1.1321
13435TIP3    H161720   0.060   3.351   4.101 -0.2159 -0.8472 -0.2613
13435TIP3    H261721  -0.064   3.269   4.131  0.3671 -1.5658  0.1856
13436TIP3   OH261722   0.125   3.063  15.087 -0.0483  0.0884  0.5966
13436TIP3    H161723   0.030   3.061  15.075  0.1251  1.2628 -1.1690
13436TIP3    H261724   0.161   3.066  14.999  1.6359  0.0803  1.2480
13437TIP3   OH261725   3.433   1.471   4.934 -0.5170  0.8469 -0.2392
13437TIP3    H161726   3.494   1.513   4.995 -0.6712 -0.7188  1.0115
13437TIP3    H261727   3.354   1.455   4.986 -0.7492 -0.2478 -0.9189
13438TIP3   OH261728   2.702   3.425  14.745  0.4693  0.4984 -0.0370
13438TIP3    H161729   2.617   3.392  14.718  0.2307  0.7258  0.4239
13438TIP3    H261730   2.759   3.348  14.745  0.3524  0.4122 -0.6884
13439TIP3   OH261731   2.980   2.442   1.231  0.3123 -0.6422  0.2193
13439TIP3    H161732   2.944   2.439   1.142 -0.1797  0.7063  0.3619
13439TIP3    H261733   3.057   2.386   1.227  0.7676  0.0528 -1.2767
13440TIP3   OH261734   2.834   2.791  11.955  0.2821  0.3034 -0.3834
13440TIP3    H161735   2.889   2.868  11.969  0.3839  0.3832 -1.1825
13440TIP3    H261736   2.840   2.742  12.037 -1.1902  2.0309  0.7836
13441TIP3   OH261737   4.981   6.756  13.117 -0.3799 -0.2449  0.2729
13441TIP3    H161738   4.967   6.848  13.094 -0.3733 -0.3992 -0.3575
13441TIP3    H261739   4.990   6.711  13.032 -1.3023 -0.9711  0.5500
13442TIP3   OH261740   5.912   2.836   0.954 -0.2117  0.1723 -0.0479
13442TIP3    H161741   5.856   2.845   0.877  2.8820 -0.2772 -2.4414
13442TIP3    H261742   5.934   2.743   0.957  1.7014  0.6030 -0.1102
13443TIP3   OH261743   0.812   6.668   3.765  0.4301  0.1007  0.0268
13443TIP3    H161744   0.720   6.645   3.746  0.0040  1.7216  0.0765
13443TIP3    H261745   0.813   6.764   3.766  1.7856  0.0926  1.7220
13444TIP3   OH261746   3.977   6.334  14.649  0.2278 -0.5627 -0.0090
13444TIP3    H161747   3.949   6.403  14.710 -2.7716 -1.9750  0.3096
13444TIP3    H261748   3.963   6.372  14.562  2.9544  0.8584  0.1249
13445TIP3   OH261749   6.118   4.280  17.000 -0.8011 -0.4081  0.0263
13445TIP3    H161750   6.035   4.314  16.966 -1.5997 -1.0193  1.3194
13445TIP3    H261751   6.140   4.339  17.072 -1.0116 -1.2869  0.8069
13446TIP3   OH261752   3.676   5.413  15.084  0.0406 -0.6098  0.2466
13446TIP3    H161753   3.687   5.342  15.147  0.8527  0.3447  1.2218
13446TIP3    H261754   3.611   5.471  15.125 -1.0678 -1.0972 -0.8185
13447TIP3   OH261755   2.512   5.670  16.370  0.3889  0.6111 -0.2227
13447TIP3    H161756   2.574   5.704  16.305  0.6886  1.6336  0.5897
13447TIP3    H261757   2.543   5.704  16.454 -0.8069  0.4680  0.2920
13448TIP3   OH261758   5.027   5.217   5.451  0.1840  0.3172  0.1422
13448TIP3    H161759   4.983   5.165   5.384  0.6167 -1.1317  0.9575
13448TIP3    H261760   5.050   5.299   5.407 -0.3541 -0.2479 -1.2173
13449TIP3   OH261761   5.160   2.812   0.668  0.4156  0.4227 -0.3469
13449TIP3    H161762   5.159   2.723   0.703  0.1877  0.8922  0.8327
13449TIP3    H261763   5.109   2.806   0.587 -0.1102 -0.3934  0.0362
13450TIP3   OH261764   3.612   1.598  13.019 -0.0442 -0.3014 -0.4652
13450TIP3    H161765   3.651   1.668  12.967 -0.2367  1.0597  1.1788
13450TIP3    H261766   3.519   1.623  13.026  0.1170 -0.0784  1.0983
13451TIP3   OH261767   2.316   1.231   4.788 -0.1239 -0.1303 -0.1770
13451TIP3    H161768   2.243   1.185   4.747 -1.2638 -0.5767  2.2611
13451TIP3    H261769   2.387   1.167   4.790 -0.1832 -0.2362 -1.0329
13452TIP3   OH261770   1.078   4.749  10.530 -0.2219  0.1382  0.1459
13452TIP3    H161771   1.080   4.713  10.618 -0.4581  1.5937  0.7613
13452TIP3    H261772   1.168   4.745  10.499 -0.0090  0.3321  0.7446
13453TIP3   OH261773   2.038   1.768  16.624  0.2140 -0.4698  0.1186
13453TIP3    H161774   2.010   1.858  16.608  0.8224 -0.7306 -2.7057
13453TIP3    H261775   1.960   1.724  16.657 -0.1755  1.0051  1.1931
13454TIP3   OH261776   6.240   4.085   6.161  0.1035 -0.0074 -0.1462
13454TIP3    H161777   6.164   4.115   6.211 -0.1807  0.5776 -0.9294
13454TIP3    H261778   6.228   3.990   6.156 -2.4595  0.4107 -3.2770
13455TIP3   OH261779   4.432   0.889   3.487 -0.2513 -0.5618 -0.1470
13455TIP3    H161780   4.354   0.945   3.493  0.0671 -0.0767 -0.4641
13455TIP3    H261781   4.456   0.872   3.578 -1.5564 -1.8930 -0.0285
13456TIP3   OH261782   6.224   1.503   2.482 -0.4959  0.1952  0.4730
13456TIP3    H161783   6.163   1.430   2.489 -0.4220  0.2482  1.7547
13456TIP3    H261784   6.177   1.577   2.519  0.1739  0.3455  1.0196
13457TIP3   OH261785   2.197   1.131  11.130 -0.5716 -0.0954 -0.0819
13457TIP3    H161786   2.117   1.168  11.094 -0.4378 -1.2294 -1.5604
13457TIP3    H261787   2.204   1.044  11.091  0.9479 -0.3340  0.6767
13458TIP3   OH261788   4.068   4.396  16.603 -0.0140  0.0907  0.2979
13458TIP3    H161789   4.059   4.322  16.544  0.5110 -0.2645  0.6603
13458TIP3    H261790   3.983   4.440  16.600  0.3270  0.6807 -1.5198
13459TIP3   OH261791   2.128   5.136  14.269  0.3101  0.2801  0.4311
13459TIP3    H161792   2.144   5.067  14.205 -1.5630 -1.2803  1.5850
13459TIP3    H261793   2.143   5.095  14.354  0.5311  1.6803  1.0822
13460TIP3   OH261794   1.415   2.450  16.711  0.1080 -0.3514  0.4448
13460TIP3    H161795   1.498   2.414  16.679  0.5217  1.1016 -0.1641
13460TIP3    H261796   1.428   2.544  16.710 -0.9907 -0.1779  1.9405
13461TIP3   OH261797   6.064   5.431  15.748  0.2757  0.0736 -0.1504
13461TIP3    H161798   6.136   5.414  15.810 -0.8196  0.3765  1.2421
13461TIP3    H261799   6.031   5.517  15.773 -0.9347 -0.3114 -0.4056
13462TIP3   OH261800   5.289   6.017  16.107  0.5518  1.1692 -0.0104
13462TIP3    H161801   5.264   6.034  16.197 -1.7816 -2.0220  0.0274
13462TIP3    H261802   5.376   5.979  16.113 -0.8810 -2.1456  1.2949
13463TIP3   OH261803   4.842   2.820  12.694 -0.5615 -0.1724  0.0948
13463TIP3    H161804   4.791   2.799  12.616  0.2356 -0.3296 -0.3853
13463TIP3    H261805   4.790   2.887  12.739 -1.2831 -0.4703 -0.2867
13464TIP3   OH261806   5.729   1.850  13.120 -0.6898  0.2256  0.0776
13464TIP3    H161807   5.729   1.912  13.192 -2.0076  0.0831  0.1971
13464TIP3    H261808   5.819   1.852  13.087 -0.6314  1.8832  0.3311
13465TIP3   OH261809   5.622   0.676   1.376 -0.0473 -0.0009 -0.6836
13465TIP3    H161810   5.685   0.748   1.365 -1.6790  1.2645 -1.8448
13465TIP3    H261811   5.561   0.685   1.304 -1.8362 -0.9696  0.6635
13466TIP3   OH261812   1.949   6.352  13.819 -0.2027 -0.1076 -0.0364
13466TIP3    H161813   2.000   6.398  13.752  0.4148 -1.9133 -0.8386
13466TIP3    H261814   1.862   6.391  13.814  0.8649  2.5294  0.8627
13467TIP3   OH261815   5.014   2.197   6.694 -0.0142 -0.5034 -0.1234
13467TIP3    H161816   4.940   2.137   6.684  0.3598 -0.9416 -0.2686
13467TIP3    H261817   5.068   2.182   6.617  0.8148 -1.0131  0.5448
13468TIP3   OH261818   6.402   1.348  12.533  0.1381  0.1474 -0.1936
13468TIP3    H161819   6.368   1.405  12.602  0.8808  1.3711 -0.8225
13468TIP3    H261820   6.450   1.280  12.580 -0.9327 -0.0970  0.5701
13469TIP3   OH261821   0.572   1.011   5.736 -0.5141 -0.4536  0.2024
13469TIP3    H161822   0.558   0.952   5.662  0.8331 -1.9020  1.0776
13469TIP3    H261823   0.664   0.998   5.761 -0.6624  0.7685  1.4732
13470TIP3   OH261824   5.647   5.104   0.503 -0.2451  0.0350  0.4599
13470TIP3    H161825   5.694   5.163   0.445 -1.2909  0.6618  0.2261
13470TIP3    H261826   5.631   5.025   0.450 -2.0747  0.9903 -0.4718
13471TIP3   OH261827   3.803   5.982  14.925  0.3082  0.4096 -0.3335
13471TIP3    H161828   3.857   5.905  14.942  2.4526  1.9089 -0.1352
13471TIP3    H261829   3.730   5.974  14.986  1.2319 -0.7483  0.6459
13472TIP3   OH261830   5.618   4.162   1.922  0.4341  0.4141 -0.1285
13472TIP3    H161831   5.537   4.156   1.872 -0.0087 -2.0019  0.8450
13472TIP3    H261832   5.669   4.085   1.896  0.5670 -0.4042  2.4410
13473TIP3   OH261833   4.808   1.233   0.007  0.3286 -0.1276 -0.0888
13473TIP3    H161834   4.833   1.319   0.041 -0.9539  0.3175 -0.2783
13473TIP3    H261835   4.843   1.231  -0.082 -0.8053  0.7136 -0.5538
13474TIP3   OH261836   5.065   0.473   0.856 -0.4438  0.4228 -0.8121
13474TIP3    H161837   5.081   0.395   0.803  1.8294 -0.3177  0.8780
13474TIP3    H261838   5.055   0.440   0.945 -1.1332  1.9228 -0.3188
13475TIP3   OH261839   5.381   4.709  13.470 -0.0194 -0.2862  1.1282
13475TIP3    H161840   5.472   4.680  13.468  0.0513 -0.0921  1.4110
13475TIP3    H261841   5.360   4.729  13.379 -0.1096 -1.3445  0.9203
13476TIP3   OH261842   1.729   1.271   2.077 -0.5688 -0.2085  0.4988
13476TIP3    H161843   1.694   1.341   2.021 -0.0614  0.6644  1.2641
13476TIP3    H261844   1.704   1.190   2.032 -1.8356  0.4412  0.0085
13477TIP3   OH261845   2.349   4.539  13.680 -0.1390  0.1917 -0.2784
13477TIP3    H161846   2.387   4.544  13.768  1.6279  0.4298 -1.0135
13477TIP3    H261847   2.343   4.446  13.662 -3.6994  0.0171  1.3657
13478TIP3   OH261848   4.060   4.246  14.134 -0.1461 -0.2217  0.0429
13478TIP3    H161849   4.127   4.199  14.184 -0.2108  0.6397  0.9637
13478TIP3    H261850   3.997   4.274  14.200 -1.2267 -0.7038 -0.7778
13479TIP3   OH261851   1.790   5.353  16.204 -0.2869  0.3968  0.3439
13479TIP3    H161852   1.858   5.414  16.233 -1.1396  0.6925  1.7736
13479TIP3    H261853   1.726   5.409  16.160 -1.0853  0.5726  1.6857
13480TIP3   OH261854   2.210   0.390  10.884  0.4280  0.0927  0.3471
13480TIP3    H161855   2.225   0.485  10.879  1.3637 -0.0554  0.3358
13480TIP3    H261856   2.166   0.369  10.801  2.4750  0.1092 -0.7640
13481TIP3   OH261857   0.223   2.059  15.709 -0.0570  0.3133 -0.6552
13481TIP3    H161858   0.316   2.054  15.731  0.1131  1.3225 -1.1412
13481TIP3    H261859   0.190   1.971  15.728  1.5535 -0.8768 -3.0257
13482TIP3   OH261860   0.559   4.432   4.682  0.1043  0.1868  0.1679
13482TIP3    H161861   0.554   4.467   4.771 -2.2863  0.6310 -0.1052
13482TIP3    H261862   0.476   4.384   4.671  1.2891 -1.6160 -1.1057
13483TIP3   OH261863   4.674   5.003   1.524  0.7652  0.0172 -0.4857
13483TIP3    H161864   4.592   5.052   1.535 -0.0835 -1.2330 -1.1712
13483TIP3    H261865   4.733   5.040   1.590 -1.0519 -0.5747  1.5326
13484TIP3   OH261866   1.890   5.890  12.949 -0.2548  0.0897 -0.1650
13484TIP3    H161867   1.811   5.941  12.932  0.8043  1.2814 -1.6732
13484TIP3    H261868   1.950   5.951  12.993  0.5267 -0.2365 -0.7550
13485TIP3   OH261869   2.324   1.781   6.431 -0.1619  0.3034 -0.3909
13485TIP3    H161870   2.323   1.691   6.465 -0.0039  0.4525  0.0154
13485TIP3    H261871   2.417   1.799   6.416  0.1156  1.5048  2.5192
13486TIP3   OH261872   0.161   1.173  14.223  0.1103 -0.0530  0.2954
13486TIP3    H161873   0.243   1.174  14.272 -0.7009 -0.7145  1.6851
13486TIP3    H261874   0.175   1.235  14.152  2.2519 -1.0703 -0.2122
13487TIP3   OH261875   5.667   4.698   2.640 -0.7735 -0.5603  0.1933
13487TIP3    H161876   5.712   4.776   2.673 -3.5991  1.0965  0.2926
13487TIP3    H261877   5.707   4.626   2.688 -0.6787  1.2075  2.9268
13488TIP3   OH261878   4.420   2.766  12.291 -0.1676  0.3681 -0.1641
13488TIP3    H161879   4.437   2.785  12.383 -0.2660 -0.1537 -0.0360
13488TIP3    H261880   4.326   2.782  12.280 -0.7530 -2.3145  0.5261
13489TIP3   OH261881   0.279   2.904  10.249 -0.1816  0.2849  0.1053
13489TIP3    H161882   0.340   2.972  10.279  0.4888  0.1200 -0.8743
13489TIP3    H261883   0.334   2.828  10.231 -0.7939 -0.1656  0.0972
13490TIP3   OH261884   0.157   1.449  15.308 -0.0826  0.0856 -0.2686
13490TIP3    H161885   0.228   1.388  15.328 -1.1087 -1.4348 -1.0980
13490TIP3    H261886   0.077   1.400  15.329 -0.8822  2.1260  1.6234
13491TIP3   OH261887   4.644   1.844   0.061  0.3825 -0.0829  0.7172
13491TIP3    H161888   4.702   1.905   0.107  1.2440  1.0403 -1.7928
13491TIP3    H261889   4.682   1.835  -0.026 -3.7104  1.4455 -1.3607
13492TIP3   OH261890   2.869   3.833  16.692  0.6985  0.3969 -0.3086
13492TIP3    H161891   2.962   3.835  16.711  0.5601 -0.6870  0.5691
13492TIP3    H261892   2.859   3.883  16.611  2.1352 -0.2026 -0.8537
13493TIP3   OH261893   5.640   5.513  11.571 -0.1193  0.1867 -0.6194
13493TIP3    H161894   5.626   5.420  11.587 -0.4458  0.6232  1.8413
13493TIP3    H261895   5.557   5.545  11.537 -0.1601 -0.3180 -0.9945
13494TIP3   OH261896   6.519   4.176  14.995 -0.5640 -0.1500  0.3370
13494TIP3    H161897   6.499   4.219  14.911  0.2071 -2.3520 -1.0165
13494TIP3    H261898   6.600   4.128  14.979 -0.5922 -0.8929  2.2571
13495TIP3   OH261899   2.332   5.547  12.547  0.3765  0.2906  0.0965
13495TIP3    H161900   2.270   5.618  12.560 -1.4517 -0.6916 -2.8841
13495TIP3    H261901   2.290   5.471  12.588  0.8680  0.2069  0.4541
13496TIP3   OH261902   4.505   1.259  16.661 -0.2619  0.0854 -0.0533
13496TIP3    H161903   4.532   1.326  16.598  1.2068 -0.0410  0.4152
13496TIP3    H261904   4.504   1.304  16.745 -1.0521 -0.0431  0.0094
13497TIP3   OH261905   0.980   6.334   4.233 -0.1988 -0.2694 -0.5387
13497TIP3    H161906   1.043   6.336   4.161  1.6225  1.3907  1.0421
13497TIP3    H261907   0.930   6.414   4.224 -0.5819 -0.5016 -0.4819
13498TIP3   OH261908   1.996   5.942   5.790 -0.7441 -0.3952 -0.4550
13498TIP3    H161909   2.010   6.034   5.810 -2.5977 -0.3022  0.5299
13498TIP3    H261910   2.085   5.905   5.784 -0.0080  0.8861  1.8365
13499TIP3   OH261911   5.563   3.815   3.484  0.0362  0.3332 -0.2600
13499TIP3    H161912   5.538   3.898   3.526  0.3263 -0.4742  1.5794
13499TIP3    H261913   5.511   3.812   3.404  1.0782  2.9571 -1.0821
13500TIP3   OH261914   1.904   3.616   4.645  0.3296  0.4212 -0.8550
13500TIP3    H161915   1.827   3.615   4.589 -0.3986  0.9848  0.1346
13500TIP3    H261916   1.967   3.670   4.598 -1.1964  3.0749  0.0541
13501TIP3   OH261917   1.833   1.595   0.837  0.3421  0.2196 -0.4908
13501TIP3    H161918   1.889   1.570   0.910 -0.5382 -0.7764 -0.1486
13501TIP3    H261919   1.843   1.525   0.773  1.0356  1.0410 -1.3077
13502TIP3   OH261920   0.162   3.188   1.657  0.2138  0.1578  0.4593
13502TIP3    H161921   0.160   3.278   1.624  1.5527  0.2318  0.5457
13502TIP3    H261922   0.250   3.177   1.692  0.6587 -1.7671 -1.1471
13503TIP3   OH261923   1.310   5.762  13.131  0.2322 -0.1442 -0.4095
13503TIP3    H161924   1.294   5.693  13.067 -0.6432 -0.6417  0.3388
13503TIP3    H261925   1.346   5.717  13.207 -1.3478  0.0715  0.4825
13504TIP3   OH261926   3.342   0.315  14.663  0.2591  0.6475 -0.0979
13504TIP3    H161927   3.384   0.396  14.692  1.6490  0.4637 -1.5458
13504TIP3    H261928   3.376   0.301  14.575  0.8671 -2.1115  0.5452
13505TIP3   OH261929   0.849   6.569   6.419 -0.0530 -0.1320 -0.7872
13505TIP3    H161930   0.809   6.655   6.421  0.8327  0.2735  1.0635
13505TIP3    H261931   0.779   6.509   6.443  0.3379  0.5577  2.3179
13506TIP3   OH261932   0.302   5.712  14.419  0.2638 -0.1789 -0.0898
13506TIP3    H161933   0.334   5.698  14.509 -2.3811 -0.7272  0.8281
13506TIP3    H261934   0.231   5.775  14.429 -0.4819 -0.7409 -1.7134
13507TIP3   OH261935   2.888   6.736   6.320 -0.1049 -0.0379  0.3057
13507TIP3    H161936   2.952   6.744   6.250  0.0923 -1.0575  0.3569
13507TIP3    H261937   2.874   6.826   6.351 -0.0378  0.3935 -0.8899
13508TIP3   OH261938   6.263   4.942  12.497  0.8756  0.4965 -0.0598
13508TIP3    H161939   6.232   4.851  12.492 -0.0607  0.7201  1.4527
13508TIP3    H261940   6.354   4.938  12.469  0.7896 -0.8890 -0.1672
13509TIP3   OH261941   6.596   5.393   4.476  0.1929  0.5541  0.3744
13509TIP3    H161942   6.649   5.452   4.422  1.8665  0.2073  1.5978
13509TIP3    H261943   6.609   5.424   4.565 -0.4680 -0.4688  0.8346
13510TIP3   OH261944   1.766   1.689  15.811  0.2774  0.2468 -0.2620
13510TIP3    H161945   1.715   1.770  15.798 -0.1177 -0.0549 -0.6435
13510TIP3    H261946   1.755   1.641  15.728 -2.5543 -1.8974  1.2736
13511TIP3   OH261947   2.184   5.339  12.770  0.1024 -0.2988  0.1168
13511TIP3    H161948   2.157   5.331  12.861 -0.0779  0.7619  0.1632
13511TIP3    H261949   2.102   5.336  12.720 -0.1450  2.6087  0.2349
13512TIP3   OH261950   1.218   5.835   0.642  0.0518  0.0713  0.3383
13512TIP3    H161951   1.198   5.875   0.727  1.2576 -0.5208  0.9075
13512TIP3    H261952   1.164   5.755   0.640 -0.4127  0.3823  0.2935
13513TIP3   OH261953   4.056   4.554  16.951  0.6933  0.2235 -0.3901
13513TIP3    H161954   3.962   4.572  16.949  0.2907 -1.7874 -0.6071
13513TIP3    H261955   4.096   4.632  16.910 -0.9785  0.4156 -1.7409
13514TIP3   OH261956   6.535   5.276   0.566 -0.4506  0.1477 -0.3322
13514TIP3    H161957   6.455   5.318   0.600 -0.8809  0.5255 -1.7525
13514TIP3    H261958   6.573   5.231   0.641 -0.8812  1.7165  0.8455
13515TIP3   OH261959   0.471   1.455   3.043  0.0815  0.0417  0.6622
13515TIP3    H161960   0.397   1.434   2.986  1.3098 -1.3824 -0.4165
13515TIP3    H261961   0.472   1.384   3.108  1.0322 -0.4114  0.1559
13516TIP3   OH261962   0.546   5.076   3.693 -0.0346 -0.1474  0.6897
13516TIP3    H161963   0.453   5.084   3.669 -0.3146  0.2662  1.8833
13516TIP3    H261964   0.588   5.040   3.615 -1.1953 -0.2998  0.1290
13517TIP3   OH261965   2.963   2.308   2.328  0.1384 -0.5638  0.0148
13517TIP3    H161966   2.893   2.335   2.387  0.0892 -0.9901  0.1485
13517TIP3    H261967   3.025   2.381   2.330  0.4585 -0.8516  1.0954
13518TIP3   OH261968   2.882   5.991  16.748 -0.5392  0.1020 -0.0223
13518TIP3    H161969   2.873   5.900  16.774  0.6195 -0.8369 -2.6921
13518TIP3    H261970   2.867   5.991  16.654  2.0361  2.2243 -0.5174
13519TIP3   OH261971   5.003   4.776   3.988 -0.2757  0.0176  0.4924
13519TIP3    H161972   5.048   4.860   3.979  2.1756 -1.2786  0.1884
13519TIP3    H261973   4.937   4.791   4.056  0.0175  2.2235  0.3162
13520TIP3   OH261974   1.040   2.501  11.397  0.2771 -0.3551 -0.1796
13520TIP3    H161975   0.969   2.440  11.376  1.8563 -1.3725 -2.7543
13520TIP3    H261976   1.004   2.587  11.376 -0.3554 -0.8152 -1.0319
13521TIP3   OH261977   5.179   0.855  13.073  1.1032 -0.4283 -0.2649
13521TIP3    H161978   5.126   0.857  12.994 -0.3295 -0.2569  0.6864
13521TIP3    H261979   5.201   0.762  13.085 -0.2365 -0.7011  0.1505
13522TIP3   OH261980   5.425   3.327  15.389 -0.2318  0.4267 -0.2151
13522TIP3    H161981   5.419   3.364  15.478  0.9495  0.9780 -0.3584
13522TIP3    H261982   5.371   3.248  15.393 -0.2390  0.4728  0.9804
13523TIP3   OH261983   5.478   3.390  13.559 -0.2365  0.1931  0.6228
13523TIP3    H161984   5.470   3.424  13.648 -2.0640 -1.1061  0.9998
13523TIP3    H261985   5.444   3.301  13.565 -0.1957  0.0266 -1.3386
13524TIP3   OH261986   0.393   1.487  12.091  0.0560 -0.1467 -0.4373
13524TIP3    H161987   0.329   1.531  12.034 -0.5951 -1.8089 -1.0017
13524TIP3    H261988   0.476   1.499  12.046 -0.3840 -1.0261 -1.5196
13525TIP3   OH261989   2.292   6.031   0.815 -0.0807 -0.3592  0.1915
13525TIP3    H161990   2.373   6.024   0.867 -1.2705 -0.6158  2.0915
13525TIP3    H261991   2.230   5.974   0.861 -1.4490  0.1088 -1.0419
13526TIP3   OH261992   0.427   3.584   5.388  0.3915  0.3051 -0.0931
13526TIP3    H161993   0.382   3.669   5.390  1.9832  1.1547  0.7859
13526TIP3    H261994   0.390   3.535   5.462 -1.7711 -0.4564 -1.6238
13527TIP3   OH261995   5.032   6.168   6.250  0.5688  0.3256 -0.3422
13527TIP3    H161996   5.094   6.101   6.279 -0.8016 -0.8919 -0.1625
13527TIP3    H261997   4.993   6.202   6.331  1.3150  1.4092 -0.4289
13528TIP3   OH261998   0.079   4.662   6.315 -0.5679  0.4726  0.0560
13528TIP3    H161999   0.130   4.680   6.393 -1.4613 -1.7192  1.1817
13528TIP3    H262000   0.134   4.692   6.243  2.0791 -1.3085  1.2594
13529TIP3   OH262001   2.990   1.879   5.778  0.2635 -0.2758  0.9003
13529TIP3    H162002   3.023   1.833   5.855  0.8046 -1.0000  0.2513
13529TIP3    H262003   2.897   1.859   5.775  0.6018 -1.8908  0.2718
13530TIP3   OH262004   5.818   6.557   4.523  0.2912  0.0731 -0.9950
13530TIP3    H162005   5.904   6.528   4.493 -0.2430 -1.3595 -1.2128
13530TIP3    H262006   5.783   6.483   4.572 -1.9813 -0.5092 -3.3263
13531TIP3   OH262007   0.751   3.642   2.214  0.0505 -0.3054  0.6431
13531TIP3    H162008   0.821   3.703   2.190 -1.1885  0.3842 -1.3042
13531TIP3    H262009   0.732   3.662   2.306 -2.1933  4.1678 -0.6642
13532TIP3   OH262010   5.310   2.432  10.573  0.4411  0.8360 -0.4879
13532TIP3    H162011   5.271   2.519  10.576 -1.0615  0.2288 -1.5020
13532TIP3    H262012   5.282   2.396  10.488  0.0875 -1.0417  0.3819
13533TIP3   OH262013   2.460   2.372  11.392  0.4197 -0.2956  0.5163
13533TIP3    H162014   2.475   2.461  11.361  0.8526  0.2059  2.1457
13533TIP3    H262015   2.417   2.328  11.318 -0.4645  1.4509 -0.0337
13534TIP3   OH262016   4.077   2.386   2.446 -0.0901 -0.1901  0.0169
13534TIP3    H162017   4.141   2.331   2.401 -0.4854 -0.8980  0.3101
13534TIP3    H262018   4.027   2.325   2.500 -0.5747  0.4518  0.2979
13535TIP3   OH262019   3.351   2.468  15.531  0.3313  0.2242 -0.2834
13535TIP3    H162020   3.401   2.394  15.566  0.2405 -0.4443 -1.5563
13535TIP3    H262021   3.293   2.493  15.603  1.4465  0.0482  0.6864
13536TIP3   OH262022   3.724   3.478   1.482  0.2032  0.0657 -0.4161
13536TIP3    H162023   3.754   3.501   1.394 -2.2639 -1.1805 -1.6280
13536TIP3    H262024   3.729   3.560   1.531 -0.5174  1.3221 -2.3591
13537TIP3   OH262025   5.363   3.096   5.521  0.3927 -0.6018  0.7351
13537TIP3    H162026   5.405   3.166   5.471  0.0361 -1.9437 -1.4877
13537TIP3    H262027   5.271   3.121   5.525  0.4309 -0.4678  0.7707
13538TIP3   OH262028   3.806   4.747  16.419  0.0889  0.2941  0.1649
13538TIP3    H162029   3.776   4.837  16.403  1.2919  0.7562  0.3831
13538TIP3    H262030   3.867   4.756  16.493  2.2913 -0.2725 -1.5209
13539TIP3   OH262031   4.317   3.144  13.884  0.2672  0.0174 -0.2206
13539TIP3    H162032   4.224   3.149  13.906 -0.1130 -1.5907 -1.3614
13539TIP3    H262033   4.359   3.110  13.963 -0.4010 -1.1648 -0.3638
13540TIP3   OH262034   3.790   4.495  16.537 -0.2003  0.2393  0.2858
13540TIP3    H162035   3.731   4.439  16.588 -1.0817  0.7092 -0.2012
13540TIP3    H262036   3.737   4.572  16.516  0.4273  0.4345 -0.5917
13541TIP3   OH262037   3.148   5.476   4.931 -0.2301  0.0710 -0.3791
13541TIP3    H162038   3.148   5.458   5.025  1.4831 -3.8993 -1.0363
13541TIP3    H262039   3.055   5.476   4.906 -0.5505 -2.1573  0.7658
13542TIP3   OH262040   4.380   3.402   5.634 -0.4522  0.2485 -0.0200
13542TIP3    H162041   4.435   3.450   5.697  1.5911 -2.2269  0.1897
13542TIP3    H262042   4.350   3.325   5.683 -1.5566 -0.0147 -1.1046
13543TIP3   OH262043   5.846   5.496  13.111 -0.1982 -0.1407 -0.6179
13543TIP3    H162044   5.769   5.457  13.152  0.0615  0.2993  0.2940
13543TIP3    H262045   5.868   5.436  13.039 -0.7348 -0.8404 -0.2035
13544TIP3   OH262046   1.287   4.826   6.343  0.1985 -0.6772 -0.0908
13544TIP3    H162047   1.201   4.825   6.302  1.5301 -1.1220 -3.0221
13544TIP3    H262048   1.295   4.914   6.379 -1.6383 -0.7648  0.5816
13545TIP3   OH262049   5.303   5.492  13.351 -0.3257  0.0421  0.0873
13545TIP3    H162050   5.330   5.544  13.427 -0.1338 -1.2573  0.9113
13545TIP3    H262051   5.209   5.508  13.344 -0.6189 -0.9887  1.4994
13546TIP3   OH262052   0.123   0.988  12.968 -0.7200 -0.8259 -0.0742
13546TIP3    H162053   0.095   0.915  13.023 -0.0420 -1.3834 -0.4635
13546TIP3    H262054   0.197   0.954  12.918  0.9039  0.7132  1.1837
13547TIP3   OH262055   2.958   5.783  17.023 -0.4326  0.6250 -0.1413
13547TIP3    H162056   2.945   5.762  16.931  0.5310  0.3202 -0.2186
13547TIP3    H262057   3.053   5.793  17.032 -0.2927 -1.5201  1.2718
13548TIP3   OH262058   4.722   5.789   4.166  0.3310  0.1777 -0.2021
13548TIP3    H162059   4.704   5.810   4.074 -1.7839  0.3294  0.2380
13548TIP3    H262060   4.665   5.847   4.216 -0.8980 -2.1114  1.1322
13549TIP3   OH262061   0.119   5.568  16.636  0.2494 -0.1577 -0.1832
13549TIP3    H162062   0.054   5.577  16.566  1.6768 -2.5464 -1.9054
13549TIP3    H262063   0.199   5.608  16.599  1.1109 -1.7711 -0.1058
13550TIP3   OH262064   5.707   4.910  14.920 -0.0285  0.3367  0.7730
13550TIP3    H162065   5.612   4.914  14.908 -0.0089  0.8353  0.7734
13550TIP3    H262066   5.739   4.994  14.887  0.4151  0.1638  0.7557
13551TIP3   OH262067   0.153   5.058   6.109  0.3376  0.3127  0.0422
13551TIP3    H162068   0.115   5.063   6.022  0.5372 -1.0395 -0.1331
13551TIP3    H262069   0.085   5.093   6.167 -0.5577 -0.5650 -0.4492
13552TIP3   OH262070   3.317   3.462  13.256  0.0226  0.1072 -0.2558
13552TIP3    H162071   3.374   3.393  13.223 -0.3078 -0.5779  0.5801
13552TIP3    H262072   3.238   3.416  13.284  0.1436  0.6951  1.1152
13553TIP3   OH262073   1.516   5.580   3.358 -0.2467  0.1865  0.3493
13553TIP3    H162074   1.532   5.672   3.375 -2.6233  0.8262 -0.7104
13553TIP3    H262075   1.592   5.552   3.306  0.3523  1.6100  0.4375
13554TIP3   OH262076   3.205   5.256   3.140 -0.2783 -0.2531  0.9996
13554TIP3    H162077   3.122   5.291   3.174 -1.0601 -1.4075  0.3098
13554TIP3    H262078   3.219   5.304   3.059 -0.8975 -0.9203  0.4987
13555TIP3   OH262079   0.021   4.062   4.754  0.7646  0.2171 -0.4434
13555TIP3    H162080   0.113   4.074   4.730  1.0901 -0.3425  0.4832
13555TIP3    H262081   0.000   3.973   4.725  0.7984 -0.0040  0.1954
13556TIP3   OH262082   4.664   0.298  14.973  0.1753 -0.4040 -0.1873
13556TIP3    H162083   4.642   0.285  15.065  0.1166 -1.0571 -0.2930
13556TIP3    H262084   4.754   0.330  14.975  0.2398 -0.5985  0.0872
13557TIP3   OH262085   0.985   1.280  13.307  0.1667  0.1571 -0.8503
13557TIP3    H162086   1.042   1.355  13.288  0.3911  0.4792  0.9834
13557TIP3    H262087   0.907   1.319  13.345  0.8513 -0.5889  1.4262
13558TIP3   OH262088   1.930   5.264  10.688  0.3835  0.0312  0.4204
13558TIP3    H162089   1.855   5.318  10.715 -0.3635  0.7239 -2.8704
13558TIP3    H262090   1.895   5.175  10.683  0.4261 -0.0395  1.2714
13559TIP3   OH262091   6.582   5.790   1.083  0.3602  0.2215 -0.0307
13559TIP3    H162092   6.548   5.713   1.130 -1.3109 -0.2511 -1.9599
13559TIP3    H262093   6.664   5.760   1.044 -1.4958 -1.3634 -2.8283
13560TIP3   OH262094   3.498   4.214  14.493 -0.1355  0.1746  0.3691
13560TIP3    H162095   3.469   4.274  14.424 -0.9824 -1.4376 -0.7152
13560TIP3    H262096   3.503   4.268  14.571 -2.2586  1.3806 -0.2853
13561TIP3   OH262097   2.048   1.516   0.284 -0.8759  0.3530  0.0868
13561TIP3    H162098   2.113   1.582   0.261 -0.3687 -0.1452  0.0744
13561TIP3    H262099   2.071   1.489   0.373 -0.4150 -0.5814 -0.3065
13562TIP3   OH262100   0.171   3.808   4.120  0.2561  0.8646  0.1649
13562TIP3    H162101   0.167   3.849   4.207  0.8449 -1.7130  1.4773
13562TIP3    H262102   0.239   3.741   4.128 -0.8492 -0.5490 -1.7824
13563TIP3   OH262103   6.322   3.085   5.907 -0.4443 -0.6793  0.6852
13563TIP3    H162104   6.400   3.071   5.961  0.1838 -0.8296 -0.2445
13563TIP3    H262105   6.325   3.178   5.884 -0.1784 -0.8216  0.1188
13564TIP3   OH262106   1.349   3.351   0.854 -0.2007 -0.4897 -0.2127
13564TIP3    H162107   1.381   3.334   0.943  0.6818  0.0919 -0.4093
13564TIP3    H262108   1.377   3.440   0.835  0.0820 -0.7930 -1.2672
13565TIP3   OH262109   1.841   1.920  16.267 -0.0706  0.0052 -0.3248
13565TIP3    H162110   1.875   1.955  16.349  0.5539  0.8745 -0.9433
13565TIP3    H262111   1.764   1.973  16.249  0.0433  0.1051 -0.5200
13566TIP3   OH262112   4.988   5.362  13.528  0.3518 -0.0620  0.4199
13566TIP3    H162113   4.994   5.321  13.614  0.5888  0.1009  0.4818
13566TIP3    H262114   5.016   5.453  13.543  1.6059 -0.3689 -0.0774
13567TIP3   OH262115   1.666   4.460  13.839  0.5093 -0.4875 -0.4152
13567TIP3    H162116   1.700   4.545  13.865  1.0482 -1.2181  1.3301
13567TIP3    H262117   1.584   4.450  13.887  0.9759 -1.4000  0.1982
13568TIP3   OH262118   0.044   0.141  13.751  0.2715 -0.0760  0.1982
13568TIP3    H162119   0.064   0.214  13.809  0.7904 -2.0444  2.5663
13568TIP3    H262120  -0.041   0.109  13.782  0.5341 -1.1149 -0.1333
13569TIP3   OH262121   6.722   5.026  13.475 -0.3402  1.0346 -0.1688
13569TIP3    H162122   6.628   5.034  13.463 -0.3145  1.8095  0.0805
13569TIP3    H262123   6.732   4.974  13.555 -0.5871  2.2475  0.6805
13570TIP3   OH262124   3.256   3.546   2.304  0.7210 -0.0444 -0.0510
13570TIP3    H162125   3.233   3.459   2.337  2.2602 -0.6186 -0.4415
13570TIP3    H262126   3.325   3.577   2.363  1.0918  0.3673 -0.6964
13571TIP3   OH262127   4.130   6.589   5.047 -0.6298  0.1612 -0.5090
13571TIP3    H162128   4.057   6.536   5.016 -1.7025  0.8576  0.7490
13571TIP3    H262129   4.168   6.627   4.968 -0.3850 -1.7747 -1.3464
13572TIP3   OH262130   3.558   0.080   5.664 -0.6685 -0.1034 -0.3191
13572TIP3    H162131   3.574   0.130   5.584 -0.5513  0.8159  0.2644
13572TIP3    H262132   3.534  -0.007   5.634  0.4437 -0.0721 -1.3303
13573TIP3   OH262133   2.152   0.785  17.190 -0.3614 -0.4585  0.3156
13573TIP3    H162134   2.078   0.748  17.143 -0.2591 -0.5096  0.1938
13573TIP3    H262135   2.171   0.721  17.259  0.0371 -0.8081 -0.1115
13574TIP3   OH262136   4.616   5.272  17.179  0.1411 -0.3795  0.3256
13574TIP3    H162137   4.619   5.366  17.195 -0.1721 -0.8121  3.0720
13574TIP3    H262138   4.525   5.255  17.154  0.0810 -0.0331  0.3067
13575TIP3   OH262139   4.822   2.856   5.897 -0.0649  0.2390 -0.5866
13575TIP3    H162140   4.894   2.910   5.866 -1.0689  2.3940  0.6941
13575TIP3    H262141   4.864   2.780   5.938  1.5185  1.8326  0.8364
13576TIP3   OH262142   5.892   1.219   2.131 -0.6948 -0.1986  0.0314
13576TIP3    H162143   5.875   1.125   2.128 -0.8457 -0.1610 -0.3617
13576TIP3    H262144   5.874   1.244   2.222 -0.0272 -0.6660  0.2973
13577TIP3   OH262145   2.517   3.032  13.151  0.0921 -0.5874  0.2683
13577TIP3    H162146   2.516   2.968  13.222 -0.4723 -2.2961 -1.2294
13577TIP3    H262147   2.608   3.035  13.123  0.1179 -0.7785  0.3266
13578TIP3   OH262148   2.052   5.674   6.318 -0.4826  0.1797  0.4950
13578TIP3    H162149   2.005   5.602   6.276 -0.4001  0.5544 -0.2490
13578TIP3    H262150   2.006   5.687   6.401 -1.1676 -0.0172  0.1533
13579TIP3   OH262151   4.417   1.234  12.893 -0.4255  0.2858 -1.0022
13579TIP3    H162152   4.487   1.241  12.958 -0.9700 -0.1638 -0.3726
13579TIP3    H262153   4.435   1.306  12.831  0.7387  0.0183 -0.9873
13580TIP3   OH262154   6.098   1.436  13.245 -0.2680 -0.4578  0.0091
13580TIP3    H162155   6.081   1.405  13.156  0.6766 -0.5341 -0.1536
13580TIP3    H262156   6.072   1.363  13.301  0.9764 -1.1810 -0.3219
13581TIP3   OH262157   4.942   2.496  14.030 -0.0885 -0.0496 -0.4238
13581TIP3    H162158   5.023   2.523  13.986  0.3331  0.5433  0.6958
13581TIP3    H262159   4.961   2.506  14.123 -1.1721 -0.7230 -0.1230
13582TIP3   OH262160   1.959   0.921   1.468 -0.2101  0.2598 -0.0507
13582TIP3    H162161   1.874   0.960   1.450 -0.3817 -0.1355 -0.1049
13582TIP3    H262162   1.940   0.832   1.496  0.3171 -1.1891 -3.8680
13583TIP3   OH262163   4.909   4.692  14.396 -0.2859  0.0308 -0.2449
13583TIP3    H162164   4.928   4.612  14.347  1.1720 -0.4867  1.1730
13583TIP3    H262165   4.831   4.670  14.448  1.5589 -1.3086  2.0365
13584TIP3   OH262166   6.637   2.426   1.162  0.5793  0.0058  0.5237
13584TIP3    H162167   6.573   2.411   1.093  0.0349 -1.6054  1.3355
13584TIP3    H262168   6.721   2.400   1.124  0.3907 -0.1610  0.2201
13585TIP3   OH262169   6.264   1.624  11.014 -0.3436  0.3058 -0.2345
13585TIP3    H162170   6.205   1.551  10.995 -0.6884  1.0698 -2.1470
13585TIP3    H262171   6.213   1.683  11.070  0.0390 -1.0352  1.5809
13586TIP3   OH262172   4.485   4.116  14.841 -0.2008 -0.5358 -0.0877
13586TIP3    H162173   4.469   4.210  14.834 -2.5359 -0.9691 -0.9828
13586TIP3    H262174   4.580   4.109  14.852 -0.1097  1.9589  1.0683
13587TIP3   OH262175   4.744   2.450  16.490  0.4946 -0.8614  0.4643
13587TIP3    H162176   4.740   2.389  16.417  0.3098 -2.2926  1.6513
13587TIP3    H262177   4.801   2.521  16.459  1.0196 -1.8134 -0.7812
13588TIP3   OH262178   2.414   5.626   4.978  0.0819 -0.4941 -0.2248
13588TIP3    H162179   2.442   5.687   5.046 -2.0276  1.7866 -1.3333
13588TIP3    H262180   2.431   5.673   4.896 -0.0334 -2.0820 -1.1771
13589TIP3   OH262181   4.787   3.507   3.276 -0.3352  0.3762  0.4870
13589TIP3    H162182   4.715   3.445   3.282 -2.1818  2.3240 -0.7055
13589TIP3    H262183   4.767   3.574   3.341  0.0249  1.2825 -0.3151
13590TIP3   OH262184   5.607   0.887  16.005 -0.0690 -0.2623  0.1922
13590TIP3    H162185   5.666   0.823  16.047  2.6753  1.5467 -0.7635
13590TIP3    H262186   5.619   0.967  16.056 -0.9589  0.3972 -0.6288
13591TIP3   OH262187   4.777   0.764  15.752  0.1552 -0.4357  0.0693
13591TIP3    H162188   4.696   0.815  15.752  0.3969 -0.0491 -0.7974
13591TIP3    H262189   4.785   0.732  15.662  0.9652 -0.4765  0.1583
13592TIP3   OH262190   1.519   4.983  13.838  0.1968  0.0847 -0.4810
13592TIP3    H162191   1.487   5.056  13.890 -0.1215 -0.6215  0.3223
13592TIP3    H262192   1.528   4.911  13.900 -0.6072 -0.8888 -1.4626
13593TIP3   OH262193   3.795   4.214  11.130 -0.2125  0.3559 -0.4804
13593TIP3    H162194   3.850   4.268  11.073  0.0166 -0.3173 -0.9095
13593TIP3    H262195   3.839   4.129  11.131 -1.7431 -0.4879 -1.6062
13594TIP3   OH262196   0.989   3.411   0.073 -0.0026  0.5786  0.1609
13594TIP3    H162197   0.901   3.397   0.039  0.4406  0.9982 -1.2011
13594TIP3    H262198   1.034   3.328   0.057  0.1757  0.7395 -0.1729
13595TIP3   OH262199   1.828   5.163  14.831 -0.2813  0.3893 -0.5146
13595TIP3    H162200   1.890   5.098  14.797 -0.1738  0.5555 -0.6304
13595TIP3    H262201   1.882   5.237  14.857 -0.2388 -0.1474  1.0220
13596TIP3   OH262202   2.612   6.601  12.600 -1.1994  0.4705  0.4068
13596TIP3    H162203   2.598   6.681  12.549  0.1684 -0.4813 -1.5560
13596TIP3    H262204   2.685   6.558  12.556 -0.7808 -1.0118  2.4897
13597TIP3   OH262205   6.241   4.809   0.969  0.2821  0.6288  0.3050
13597TIP3    H162206   6.241   4.896   0.931 -1.8067  0.4586 -0.1508
13597TIP3    H262207   6.241   4.749   0.894  1.1201  0.2344  0.6090
13598TIP3   OH262208   5.233   3.664  11.132 -0.0250 -0.4987 -0.2074
13598TIP3    H162209   5.235   3.570  11.149  1.1632 -0.2966  0.8983
13598TIP3    H262210   5.285   3.675  11.053 -0.8120 -0.8499 -0.7763
13599TIP3   OH262211   6.186   3.630  13.384  0.3549  0.5810 -0.7354
13599TIP3    H162212   6.166   3.614  13.476 -1.8288  1.6653 -0.9954
13599TIP3    H262213   6.132   3.568  13.336  1.3831  0.1137 -1.3009
13600TIP3   OH262214   6.649   2.808  10.812 -0.4856  0.6211 -0.5376
13600TIP3    H162215   6.723   2.813  10.872  0.3383 -0.9249 -1.3929
13600TIP3    H262216   6.688   2.809  10.725 -1.3652 -1.1521 -0.9902
13601TIP3   OH262217   2.968   1.192  11.514  0.1422 -0.0566  0.2097
13601TIP3    H162218   2.886   1.173  11.469 -0.3053  0.0851  0.9443
13601TIP3    H262219   2.959   1.284  11.541  1.7877  0.8858 -2.2912
13602TIP3   OH262220   4.057   5.726   4.560 -0.1062  0.2417 -0.3191
13602TIP3    H162221   3.987   5.672   4.599  0.7542 -0.7062 -0.0744
13602TIP3    H262222   4.052   5.809   4.607 -0.5292 -0.1086  0.2695
13603TIP3   OH262223   0.449   3.034   1.400 -0.5443  0.1868  0.4683
13603TIP3    H162224   0.439   3.126   1.424 -0.6592 -0.0415  1.2971
13603TIP3    H262225   0.516   3.034   1.332 -1.2781  0.9944 -0.2810
13604TIP3   OH262226   1.404   0.901  12.152 -0.0459 -0.1798  0.0632
13604TIP3    H162227   1.413   0.884  12.059  0.8263 -0.0240  0.1201
13604TIP3    H262228   1.359   0.986  12.157 -0.3000 -0.2972 -0.2086
13605TIP3   OH262229   1.700   2.751   3.571  0.0594 -0.3794 -0.3747
13605TIP3    H162230   1.736   2.699   3.642 -4.5322 -0.1041  2.3802
13605TIP3    H262231   1.663   2.687   3.510  0.8238 -0.5094 -0.7085
13606TIP3   OH262232   0.682   0.895  13.771 -0.2857 -0.3215 -0.6800
13606TIP3    H162233   0.665   0.902  13.677  0.9208 -0.5676 -0.9293
13606TIP3    H262234   0.758   0.952  13.785 -0.1410 -0.6956  0.0551
13607TIP3   OH262235   0.836   0.802  11.652  0.4795 -0.3861  0.0663
13607TIP3    H162236   0.782   0.744  11.598  3.1029  0.0605 -3.2015
13607TIP3    H262237   0.815   0.890  11.618  1.4964 -0.0251  0.3802
13608TIP3   OH262238   6.745   1.377  17.073  0.0332  0.1878  0.0772
13608TIP3    H162239   6.712   1.340  17.155  3.2018  0.3999  1.5134
13608TIP3    H262240   6.778   1.302  17.024  0.5247  0.3563  0.1487
13609TIP3   OH262241   0.324   2.413   3.076 -0.3914  0.0480 -0.0882
13609TIP3    H162242   0.362   2.499   3.059  0.0907  0.2826  1.9445
13609TIP3    H262243   0.248   2.431   3.132 -1.4335 -0.7032 -1.2336
13610TIP3   OH262244   2.127   5.414  14.390  0.4325  0.5780  0.1537
13610TIP3    H162245   2.102   5.506  14.378  3.1096  1.5017  1.2791
13610TIP3    H262246   2.131   5.379  14.301 -0.7586  1.4917 -0.2772
13611TIP3   OH262247   2.503   6.722  16.880 -0.0248 -0.0612 -0.2418
13611TIP3    H162248   2.486   6.674  16.799 -1.1312 -0.0921 -0.0000
13611TIP3    H262249   2.471   6.810  16.862  1.2235  0.3840 -0.3879
13612TIP3   OH262250   5.222   0.759   4.510 -0.4419  0.8248  0.2704
13612TIP3    H162251   5.272   0.698   4.456 -0.4824  1.5450 -0.6059
13612TIP3    H262252   5.201   0.710   4.589  0.0743 -0.0806 -0.1437
13613TIP3   OH262253   5.879   6.179   3.510 -0.6316 -0.0177 -0.4079
13613TIP3    H162254   5.896   6.177   3.604 -0.3171  1.8391 -0.4110
13613TIP3    H262255   5.917   6.261   3.480 -2.7775  0.5418 -1.7400
13614TIP3   OH262256   0.541   2.266   3.529  0.1367  0.0937 -0.0047
13614TIP3    H162257   0.512   2.298   3.614 -1.2667 -0.8977 -0.0882
13614TIP3    H262258   0.481   2.195   3.508  1.6242 -0.9290 -0.9671
13615TIP3   OH262259   4.692   0.117  13.248  0.4118 -0.3384 -0.8461
13615TIP3    H162260   4.633   0.043  13.260  0.9740 -0.4240  1.4675
13615TIP3    H262261   4.633   0.194  13.249  0.3266 -0.3781  2.0082
13616TIP3   OH262262   6.727   3.496  14.410 -0.2830  0.0832  0.1247
13616TIP3    H162263   6.806   3.516  14.359 -0.1661  1.1776  0.7056
13616TIP3    H262264   6.742   3.408  14.444  1.1689  0.6570  1.0667
13617TIP3   OH262265   2.921   2.884  14.687 -0.0951  0.9206  0.3571
13617TIP3    H162266   2.947   2.976  14.692  0.1479  0.8971 -0.5199
13617TIP3    H262267   3.003   2.835  14.695 -0.3189  0.7487  1.7734
13618TIP3   OH262268   0.768   4.275  11.618  0.0320  0.3382  0.2117
13618TIP3    H162269   0.723   4.329  11.553  1.2430 -0.9038 -1.7292
13618TIP3    H262270   0.699   4.221  11.656 -0.1289 -2.1664 -3.3633
13619TIP3   OH262271   0.677   1.954   0.200  0.2748  0.0233 -0.4567
13619TIP3    H162272   0.657   1.917   0.114  0.9147  0.2030 -0.6795
13619TIP3    H262273   0.675   1.879   0.259 -0.1197 -0.1079 -0.6353
13620TIP3   OH262274   5.365   2.995   5.754  0.0031  0.2805  0.1469
13620TIP3    H162275   5.365   3.021   5.662  1.4538  2.7111  0.7875
13620TIP3    H262276   5.413   2.912   5.755  2.6067  1.6908 -0.9806
13621TIP3   OH262277   2.688   4.093   0.274  0.1725 -0.1136  0.4155
13621TIP3    H162278   2.684   4.186   0.294  0.9174  0.1291 -0.5259
13621TIP3    H262279   2.755   4.058   0.333  0.1940  0.0204  0.4692
13622TIP3   OH262280   6.641   1.443   4.622 -0.0888  0.3489 -0.4048
13622TIP3    H162281   6.655   1.354   4.590 -1.2474  0.3242 -0.8626
13622TIP3    H262282   6.671   1.500   4.551  0.4468  0.3194 -0.2002
13623TIP3   OH262283   3.403   5.856   0.063  0.1121 -0.1271  0.6048
13623TIP3    H162284   3.436   5.766   0.071  0.9203  0.1972  0.9955
13623TIP3    H262285   3.410   5.892   0.151  0.3512  0.5112  0.3293
13624TIP3   OH262286   5.691   5.485  12.397  0.4634  0.0952  0.6796
13624TIP3    H162287   5.786   5.477  12.388  0.2428 -0.5913 -1.2850
13624TIP3    H262288   5.659   5.395  12.399 -0.1833  0.3293  0.9499
13625TIP3   OH262289   2.444   1.266  11.415 -0.5389 -0.4486 -0.0967
13625TIP3    H162290   2.433   1.354  11.450 -0.0025 -0.2348 -0.4606
13625TIP3    H262291   2.452   1.278  11.320  1.2128 -0.7148 -0.0054
13626TIP3   OH262292   0.570   0.032   5.968 -0.1889  0.0107  0.7281
13626TIP3    H162293   0.551   0.116   5.927  0.3042  0.3859  1.2609
13626TIP3    H262294   0.573   0.051   6.062 -0.5401 -0.6900  0.8887
13627TIP3   OH262295   1.011   3.439   6.655  0.0994 -0.0760  0.0951
13627TIP3    H162296   1.060   3.445   6.573  0.0737 -1.6237 -0.0476
13627TIP3    H262297   0.952   3.515   6.654  1.3357  0.8976 -0.4829
13628TIP3   OH262298   0.294   6.049  13.107  0.2253  0.2502  0.0705
13628TIP3    H162299   0.315   6.023  13.196  3.1669  1.0736 -0.3088
13628TIP3    H262300   0.317   5.972  13.054 -1.7178 -0.3141  0.0218
13629TIP3   OH262301   1.042   3.467  12.169  0.6377  0.5508 -0.1085
13629TIP3    H162302   1.051   3.544  12.112  0.0046 -1.2540 -2.7395
13629TIP3    H262303   1.121   3.415  12.153  1.8353  1.3538  2.8534
13630TIP3   OH262304   3.765   3.569  12.008  0.0621 -0.4557 -0.2019
13630TIP3    H162305   3.688   3.527  11.970  0.1685 -0.1090 -0.8217
13630TIP3    H262306   3.739   3.594  12.096 -0.5814 -0.2041 -0.4644
13631TIP3   OH262307   5.142   6.633   2.293  0.4542  0.5666 -0.0089
13631TIP3    H162308   5.184   6.643   2.208  1.1223  4.1430  0.6294
13631TIP3    H262309   5.070   6.697   2.291  0.0448  0.1872  1.8433
13632TIP3   OH262310   1.282   5.191  11.881 -0.4549  0.5679  0.0727
13632TIP3    H162311   1.331   5.273  11.879  0.1856  0.2210  1.0566
13632TIP3    H262312   1.340   5.130  11.926 -0.6770 -0.6015 -1.1873
13633TIP3   OH262313   1.160   4.579   5.854 -0.3730 -0.1423 -0.5334
13633TIP3    H162314   1.177   4.672   5.866 -1.8649  0.1877 -0.9705
13633TIP3    H262315   1.081   4.562   5.905  0.8820 -1.5637  1.0150
13634TIP3   OH262316   0.417   2.603  14.109 -0.4969  0.2039  0.0584
13634TIP3    H162317   0.387   2.654  14.185  4.2224  2.5990  0.5034
13634TIP3    H262318   0.408   2.662  14.035 -0.5465 -0.4375 -0.4554
13635TIP3   OH262319   5.695   5.487   2.792  0.5661 -0.8060  0.6463
13635TIP3    H162320   5.702   5.508   2.699 -0.5776 -1.4538  0.3999
13635TIP3    H262321   5.626   5.545   2.824  0.5132 -1.0336  0.9445
13636TIP3   OH262322   1.781   3.427   2.754 -0.3304  0.4411 -0.0892
13636TIP3    H162323   1.707   3.469   2.711  0.9119  2.4695 -0.3181
13636TIP3    H262324   1.744   3.349   2.796 -2.2744  0.5699 -1.5133
13637TIP3   OH262325   5.343   0.264   5.729 -0.5078 -0.1618  0.0684
13637TIP3    H162326   5.418   0.212   5.758 -0.2872  1.3840  2.4601
13637TIP3    H262327   5.268   0.207   5.743  0.0033 -0.9149 -0.2072
13638TIP3   OH262328   6.555   5.204   0.186 -0.2832 -0.0993 -0.5479
13638TIP3    H162329   6.596   5.142   0.247 -0.6897  1.1135  0.9941
13638TIP3    H262330   6.584   5.176   0.100  2.6082 -0.1592  0.4058
13639TIP3   OH262331   1.313   2.930  14.914  0.2074  0.4816 -0.0883
13639TIP3    H162332   1.247   2.902  14.978  2.0100 -3.2453  0.2828
13639TIP3    H262333   1.285   2.890  14.832 -0.6815  3.1149 -1.1371
13640TIP3   OH262334   3.055   3.951  13.857  0.2201 -0.0656  0.0682
13640TIP3    H162335   3.069   3.997  13.940 -1.1321  3.1559 -1.3730
13640TIP3    H262336   3.115   3.993  13.796 -2.3814  1.1615 -1.7451
13641TIP3   OH262337   3.217   3.584  13.044 -0.8008 -0.2056 -0.2016
13641TIP3    H162338   3.163   3.623  13.113  1.6059  2.4260  0.2724
13641TIP3    H262339   3.273   3.521  13.089 -1.3081 -0.6867 -0.2342
13642TIP3   OH262340   3.775   4.499  16.892  0.1163  0.0092  0.5326
13642TIP3    H162341   3.798   4.407  16.904 -0.1985  0.0407  1.4525
13642TIP3    H262342   3.682   4.503  16.915  0.0800  0.5256  0.3034
13643TIP3   OH262343   4.032   1.991   5.618 -0.3096 -0.2733  0.2066
13643TIP3    H162344   3.957   2.047   5.601 -1.0171 -2.1647 -3.2628
13643TIP3    H262345   4.108   2.043   5.591 -0.6709  0.2238  0.1513
13644TIP3   OH262346   3.007   4.423   3.139 -0.6346  0.6246  0.0165
13644TIP3    H162347   2.985   4.357   3.072  0.5943 -1.2778  1.4270
13644TIP3    H262348   2.992   4.378   3.222  0.3186  2.1116  1.0096
13645TIP3   OH262349   3.996   2.582  13.336 -0.6608  0.3490 -0.0725
13645TIP3    H162350   3.966   2.522  13.268  0.8712 -0.1766 -0.2855
13645TIP3    H262351   3.969   2.541  13.418 -1.7938  0.5912 -0.3134
13646TIP3   OH262352   3.984   0.741   4.950  0.2973  0.2147 -0.4575
13646TIP3    H162353   4.041   0.724   5.025  1.9209 -0.9071 -1.8990
13646TIP3    H262354   3.997   0.833   4.930 -2.1364  1.2044  2.2127
13647TIP3   OH262355   1.662   2.368  12.819 -0.0458  0.0129  0.8085
13647TIP3    H162356   1.728   2.425  12.780 -0.6296  1.0456  1.3251
13647TIP3    H262357   1.593   2.362  12.753  0.7101 -1.3942  0.0960
13648TIP3   OH262358   5.615   6.740   3.144 -0.3239 -0.1988  0.1236
13648TIP3    H162359   5.534   6.790   3.147 -0.3215 -0.1484 -0.5596
13648TIP3    H262360   5.674   6.786   3.204 -0.8011 -0.2402  0.6197
13649TIP3   OH262361   3.763   1.517  15.941 -0.6525 -0.1005  0.6222
13649TIP3    H162362   3.775   1.457  15.867 -0.1038  0.3702  0.3238
13649TIP3    H262363   3.771   1.462  16.019  0.6715 -0.2834  0.3661
13650TIP3   OH262364   5.252   3.121  11.932  0.8434  0.4748 -0.0498
13650TIP3    H162365   5.187   3.183  11.900  0.8032  0.3667 -0.1785
13650TIP3    H262366   5.289   3.081  11.853 -1.0834 -1.6830  0.0873
13651TIP3   OH262367   3.422   2.620   5.535  0.2605  0.0636 -0.4032
13651TIP3    H162368   3.451   2.563   5.464 -0.0408  1.0924 -1.3651
13651TIP3    H262369   3.330   2.636   5.517  0.1298  0.1586  0.3389
13652TIP3   OH262370   2.124   1.740  11.628  0.1549  0.0409  0.6637
13652TIP3    H162371   2.089   1.824  11.597  0.2417  0.1825  0.9535
13652TIP3    H262372   2.059   1.709  11.691 -2.8027 -2.8188 -3.5224
13653TIP3   OH262373   1.105   4.929   0.529  0.0669  0.0245 -0.4676
13653TIP3    H162374   1.093   4.864   0.599  2.5493 -0.1066 -0.1292
13653TIP3    H262375   1.020   4.972   0.522 -1.3203 -2.5322  0.0384
13654TIP3   OH262376   4.139   0.209   4.690 -0.4550  0.6037 -0.2295
13654TIP3    H162377   4.056   0.235   4.730 -0.8073  0.5416 -0.9226
13654TIP3    H262378   4.193   0.288   4.696 -0.1099  0.2801  1.3670
13655TIP3   OH262379   5.479   6.181  13.219 -0.0052  0.0492 -1.0950
13655TIP3    H162380   5.431   6.141  13.146 -1.7821  2.3672 -1.2557
13655TIP3    H262381   5.565   6.200  13.182 -0.0127 -1.1601 -1.7956
13656TIP3   OH262382   2.606   6.686   3.345 -0.1478 -0.1845 -0.1120
13656TIP3    H162383   2.657   6.741   3.405 -0.4495 -1.1784  1.0968
13656TIP3    H262384   2.665   6.614   3.323 -0.9280 -1.2476  1.1589
13657TIP3   OH262385   0.424   6.563  15.789 -0.0043 -0.6587 -0.2217
13657TIP3    H162386   0.366   6.591  15.718  0.7538 -0.2628 -0.6878
13657TIP3    H262387   0.460   6.644  15.825  0.6126 -0.9225 -0.2368
13658TIP3   OH262388   1.817   0.929   5.869  0.2192  0.1931  0.2362
13658TIP3    H162389   1.850   0.943   5.780 -1.4632 -0.0655 -0.4416
13658TIP3    H262390   1.733   0.976   5.872  1.0881  1.7283  2.2521
13659TIP3   OH262391   5.339   0.357   4.898 -0.9723 -0.2997 -0.3661
13659TIP3    H162392   5.296   0.439   4.875 -0.0177  0.3147 -0.0008
13659TIP3    H262393   5.349   0.361   4.993 -1.2233 -0.9840 -0.3133
13660TIP3   OH262394   2.486   4.605  13.905  0.0254  0.2435 -0.0498
13660TIP3    H162395   2.506   4.577  13.994  1.1333  0.4504 -0.2360
13660TIP3    H262396   2.455   4.695  13.915 -0.7872 -0.0594  0.2262
13661TIP3   OH262397   5.484   4.050  11.446  0.4448  0.5728  0.3956
13661TIP3    H162398   5.436   3.967  11.457  2.5621 -0.4831  2.1694
13661TIP3    H262399   5.481   4.091  11.533  1.1501  1.3591  0.0567
13662TIP3   OH262400   3.061   5.839   3.426 -0.4422  0.4338 -0.0764
13662TIP3    H162401   3.024   5.923   3.399 -1.3794  0.2070  0.4900
13662TIP3    H262402   3.066   5.845   3.522 -3.1863 -1.2377  0.2166
13663TIP3   OH262403   2.460   1.983  12.892  0.1752  0.3884  0.0581
13663TIP3    H162404   2.393   1.952  12.953 -0.0243 -0.9514 -0.8168
13663TIP3    H262405   2.517   2.038  12.946 -1.1144  0.8314  1.0069
13664TIP3   OH262406   3.722   6.485   4.509 -0.7291  0.1465  0.2253
13664TIP3    H162407   3.781   6.533   4.452 -1.9687  2.2394  0.6598
13664TIP3    H262408   3.729   6.394   4.479  0.8807  0.7281 -1.2718
13665TIP3   OH262409   1.313   1.663  13.721 -0.0310  0.0057 -0.0214
13665TIP3    H162410   1.407   1.672  13.705 -0.0189 -0.5256 -0.2634
13665TIP3    H262411   1.279   1.752  13.715  0.2268  0.0153 -1.4359
13666TIP3   OH262412   4.393   5.307  12.288  0.4101  0.4462  0.3339
13666TIP3    H162413   4.488   5.295  12.281  0.5385  1.2288  0.6785
13666TIP3    H262414   4.373   5.285  12.379  0.4591  1.5536  0.6193
13667TIP3   OH262415   3.056   1.719  10.507 -0.0658  0.4856  0.5921
13667TIP3    H162416   3.118   1.743  10.576  0.6639  0.0519  0.0869
13667TIP3    H262417   3.066   1.624  10.497  0.5611  0.6874 -0.8032
13668TIP3   OH262418   3.945   2.611   3.561  0.0317  0.5173  0.5434
13668TIP3    H162419   3.906   2.688   3.603 -2.3800 -0.3002 -0.0796
13668TIP3    H262420   3.923   2.622   3.468 -1.2270 -1.4024  0.5940
13669TIP3   OH262421   5.250   5.604  16.899 -0.2401 -0.0273 -0.1252
13669TIP3    H162422   5.192   5.528  16.912 -1.4962  0.4835 -2.5010
13669TIP3    H262423   5.208   5.674  16.948 -0.6521 -0.1298 -0.3215
13670TIP3   OH262424   3.894   1.630   4.843  0.6902 -0.2812 -0.2006
13670TIP3    H162425   3.827   1.562   4.853  1.1365 -0.5408  1.0202
13670TIP3    H262426   3.962   1.589   4.789  0.5764 -0.5270 -0.1562
13671TIP3   OH262427   1.199   3.976  14.695  0.1690 -0.2899  0.1176
13671TIP3    H162428   1.249   4.053  14.669  0.2031 -0.6464 -0.8737
13671TIP3    H262429   1.140   4.008  14.764 -0.9725  0.9978 -1.4337
13672TIP3   OH262430   6.614   1.348  16.335  0.3064 -0.2078 -0.0929
13672TIP3    H162431   6.559   1.330  16.259 -0.7438 -0.4734  0.7240
13672TIP3    H262432   6.645   1.437  16.321 -0.7677  0.1434 -0.3058
13673TIP3   OH262433   6.279   0.525  15.694 -0.3751 -0.2409 -0.0180
13673TIP3    H162434   6.364   0.538  15.738  0.2474  0.2325 -1.3401
13673TIP3    H262435   6.302   0.491  15.607 -1.6211 -1.8291  0.2361
13674TIP3   OH262436   5.618   2.361  15.885 -0.4658  0.5867 -0.9574
13674TIP3    H162437   5.640   2.317  15.967 -0.2202  0.9919 -0.8014
13674TIP3    H262438   5.645   2.301  15.816  2.5679  1.7039 -0.8187
13675TIP3   OH262439   3.782   6.306  11.736 -0.0736  0.4448 -0.6638
13675TIP3    H162440   3.864   6.348  11.708  0.4763  0.1269  0.4176
13675TIP3    H262441   3.793   6.214  11.713 -0.5603  0.5791 -1.4518
13676TIP3   OH262442   0.757   5.741   5.701  0.0387 -0.1067  0.2096
13676TIP3    H162443   0.776   5.819   5.755  0.1839 -0.6908  1.0116
13676TIP3    H262444   0.805   5.755   5.620  1.6460 -0.2688  1.1154
13677TIP3   OH262445   6.421   3.629   1.996  0.0327 -0.1975  0.6601
13677TIP3    H162446   6.471   3.654   1.919 -0.4957 -0.6840  0.1565
13677TIP3    H262447   6.449   3.691   2.064 -1.3736  1.9065 -0.5941
13678TIP3   OH262448   4.459   5.468   5.528  0.2220  0.1634 -0.3074
13678TIP3    H162449   4.498   5.403   5.470  1.6734 -0.2776  1.1138
13678TIP3    H262450   4.530   5.529   5.547 -1.0305  1.9999 -1.3512
13679TIP3   OH262451   6.285   6.265  13.270  0.2414  0.3489  0.2709
13679TIP3    H162452   6.243   6.180  13.287 -1.2870  0.9957 -0.2174
13679TIP3    H262453   6.293   6.269  13.175  0.5272  0.6616  0.3075
13680TIP3   OH262454   6.363   0.292   1.494 -0.3662  0.2049  0.0555
13680TIP3    H162455   6.370   0.386   1.477 -1.5337  0.3790  0.5146
13680TIP3    H262456   6.372   0.251   1.408 -0.4587  0.7621 -0.2192
13681TIP3   OH262457   5.197   2.285  15.653  0.3395 -0.2870 -0.6322
13681TIP3    H162458   5.190   2.379  15.672  3.2018 -0.1792 -0.0115
13681TIP3    H262459   5.288   2.263  15.671 -0.0491 -2.9928 -1.7590
13682TIP3   OH262460   5.013   6.724   3.563 -0.1109  0.1680  0.8383
13682TIP3    H162461   5.000   6.667   3.639  1.0197 -0.3826  0.6289
13682TIP3    H262462   4.934   6.712   3.510  0.0104 -1.0071  0.9201
13683TIP3   OH262463   3.928   3.815   4.406 -0.1658  0.3231  0.2486
13683TIP3    H162464   3.963   3.851   4.324 -1.0138 -1.0657 -0.7426
13683TIP3    H262465   3.864   3.879   4.435  0.4037  1.0055  0.0342
13684TIP3   OH262466   3.436   0.574  14.792 -0.1688  0.3118  0.0037
13684TIP3    H162467   3.510   0.582  14.853 -0.9763  0.5451  0.9582
13684TIP3    H262468   3.365   0.538  14.845 -0.6215 -0.3446 -1.0197
13685TIP3   OH262469   2.661   1.280   5.713  0.1967 -0.1667 -0.4318
13685TIP3    H162470   2.570   1.283   5.741  0.6146 -1.7973  1.1482
13685TIP3    H262471   2.699   1.360   5.749  0.2161 -1.2011  1.9516
13686TIP3   OH262472   3.202   3.013   3.102 -0.1621 -0.2898 -1.0488
13686TIP3    H162473   3.233   3.079   3.164 -0.2072 -1.5282  0.3135
13686TIP3    H262474   3.107   3.011   3.116 -0.0997 -0.9992 -0.7345
13687TIP3   OH262475   2.856   4.972  15.980  0.6448 -0.1090 -0.6705
13687TIP3    H162476   2.916   5.033  15.938  0.1748  0.3474 -0.6746
13687TIP3    H262477   2.780   5.025  16.005  0.3109 -0.6520 -0.5161
13688TIP3   OH262478   1.848   5.304  15.849  0.1276 -0.0543 -0.0461
13688TIP3    H162479   1.884   5.354  15.776 -0.7463  0.8194  0.1185
13688TIP3    H262480   1.874   5.352  15.928 -1.5342  0.7073  0.0702
13689TIP3   OH262481   1.900   2.005  16.543 -0.4708  0.0072 -0.1969
13689TIP3    H162482   1.909   2.057  16.623 -0.4948 -0.4789  0.1253
13689TIP3    H262483   1.833   2.051  16.492 -2.1557 -0.9517  1.0967
13690TIP3   OH262484   5.414   5.095  11.503 -0.7809  0.5942  0.2741
13690TIP3    H162485   5.391   5.067  11.414  0.6653  1.4401 -0.3705
13690TIP3    H262486   5.390   5.020  11.558 -3.1996  0.6690 -0.5992
13691TIP3   OH262487   4.889   4.199   0.176  0.7630 -0.2026 -0.1704
13691TIP3    H162488   4.921   4.109   0.183 -0.3020 -0.5711 -0.0061
13691TIP3    H262489   4.817   4.205   0.239 -0.7334  0.0638 -1.8462
13692TIP3   OH262490   4.543   4.052   0.917  0.0106  0.0888 -0.1496
13692TIP3    H162491   4.466   3.995   0.910  0.3544 -0.4735  0.6261
13692TIP3    H262492   4.593   4.016   0.990 -0.2067  1.9377  0.9225
13693TIP3   OH262493   3.359   4.438  11.707  0.0432  0.2935  0.1257
13693TIP3    H162494   3.307   4.432  11.787 -0.0402 -1.5964 -0.0709
13693TIP3    H262495   3.296   4.426  11.636  0.6030 -1.1055 -0.1362
13694TIP3   OH262496   4.068   1.019   2.249 -0.0543 -0.2421 -0.0793
13694TIP3    H162497   4.020   1.022   2.331  0.8110 -1.9100  0.4960
13694TIP3    H262498   4.049   0.933   2.212  0.8073 -0.1156 -0.8505
13695TIP3   OH262499   0.859   0.052  17.238  0.2257  0.1070  0.0774
13695TIP3    H162500   0.950   0.047  17.209 -0.2512  1.7357 -1.8472
13695TIP3    H262501   0.846  -0.027  17.290  1.9932 -1.4968 -1.8047
13696TIP3   OH262502   4.257   2.243   0.808 -0.5397  0.4518 -0.2141
13696TIP3    H162503   4.290   2.153   0.797  0.3310  0.9490 -1.8503
13696TIP3    H262504   4.284   2.267   0.897 -0.7147 -0.8834  0.2106
13697TIP3   OH262505   4.855   4.585  11.952  0.2790  0.2639 -0.5902
13697TIP3    H162506   4.859   4.670  11.997 -2.4201 -0.0511  0.3248
13697TIP3    H262507   4.789   4.597  11.884  2.3164 -0.1284 -2.6931
13698TIP3   OH262508   2.808   3.040   1.940  0.1669 -0.1636 -0.2841
13698TIP3    H162509   2.834   3.028   1.849  0.6260  2.6337 -0.5461
13698TIP3    H262510   2.742   3.109   1.938 -0.3729 -0.6066  1.4195
13699TIP3   OH262511   5.100   0.515   3.233  0.1835 -0.1452  0.1799
13699TIP3    H162512   5.106   0.432   3.185  0.0689  0.4341 -0.8619
13699TIP3    H262513   5.191   0.538   3.253  0.4621  0.9317 -2.1222
13700TIP3   OH262514   1.273   0.355  10.966  0.1612 -0.3091  0.4539
13700TIP3    H162515   1.368   0.354  10.957  0.2749 -0.5104  1.6828
13700TIP3    H262516   1.256   0.423  11.031 -0.3976 -1.7711  1.8554
13701TIP3   OH262517   0.344   3.505  13.470  0.2367  0.2876  0.3053
13701TIP3    H162518   0.339   3.429  13.412 -1.4380  1.3906 -1.0143
13701TIP3    H262519   0.438   3.520  13.481  0.5733 -1.4094 -0.1444
13702TIP3   OH262520   4.963   4.919   5.410 -0.4012 -0.0462 -0.1640
13702TIP3    H162521   4.931   4.865   5.338 -2.7201 -0.1443  0.8998
13702TIP3    H262522   4.943   4.869   5.489  0.2868  0.9705  0.6800
13703TIP3   OH262523   3.904   4.061  12.684  0.0327  0.5246 -0.3566
13703TIP3    H162524   3.939   4.006  12.754  0.5706  0.1563 -0.9120
13703TIP3    H262525   3.869   4.138  12.730  1.4498  0.8419  0.2265
13704TIP3   OH262526   1.170   5.790  10.816 -0.3896 -0.0376  0.0510
13704TIP3    H162527   1.201   5.700  10.803  1.1693  0.7873 -2.4919
13704TIP3    H262528   1.144   5.819  10.728 -0.8069  2.0241  0.8240
13705TIP3   OH262529   0.422   2.457   1.323  0.4639  0.1839 -0.4268
13705TIP3    H162530   0.357   2.490   1.262  0.4226 -0.6472 -0.8496
13705TIP3    H262531   0.408   2.507   1.403 -1.4917 -0.8037 -0.1190
13706TIP3   OH262532   2.221   4.249  16.426 -0.2784  0.0504 -0.0325
13706TIP3    H162533   2.287   4.317  16.439  0.3114 -0.4294 -0.4636
13706TIP3    H262534   2.141   4.296  16.402 -0.7152  0.7853  2.6965
13707TIP3   OH262535   2.311   3.111  12.957 -0.0201 -0.1924  0.3243
13707TIP3    H162536   2.326   3.204  12.944  0.4630 -0.3127 -0.0085
13707TIP3    H262537   2.342   3.093  13.046 -1.1397  0.1776  0.7890
13708TIP3   OH262538   1.475   4.386   2.341 -0.4928  0.4569 -0.1291
13708TIP3    H162539   1.554   4.346   2.305 -0.4065 -1.2003  1.7987
13708TIP3    H262540   1.404   4.358   2.283  0.3544  2.3119 -2.1192
13709TIP3   OH262541   3.929   5.305   1.964  0.0696  0.2636  0.1560
13709TIP3    H162542   3.972   5.293   1.879 -1.1594 -1.1716 -0.2863
13709TIP3    H262543   3.940   5.398   1.983  0.5627  0.5541 -1.4687
13710TIP3   OH262544   0.765   1.349  11.585  0.1359  0.0119 -0.4038
13710TIP3    H162545   0.687   1.378  11.632  0.5281  0.1549  0.1620
13710TIP3    H262546   0.759   1.393  11.500 -1.3734 -1.4598 -1.0808
13711TIP3   OH262547   3.704   2.135   4.748  0.0219 -0.7358  0.3398
13711TIP3    H162548   3.699   2.091   4.834  1.1595  0.4624  1.0377
13711TIP3    H262549   3.663   2.220   4.763  1.9169  0.2146  0.2020
13712TIP3   OH262550   5.045   4.352  13.093  0.3542 -0.1986  0.1847
13712TIP3    H162551   4.996   4.330  13.014 -0.3075 -0.6775  0.7258
13712TIP3    H262552   5.132   4.315  13.078  0.9131  1.5996 -1.2472
13713TIP3   OH262553   6.413   1.185   2.873 -0.7571  0.0981 -0.5190
13713TIP3    H162554   6.356   1.250   2.914 -0.7968 -0.3499  0.1322
13713TIP3    H262555   6.445   1.229   2.793 -1.0700  0.7806 -0.2761
13714TIP3   OH262556   1.804   0.332   3.126 -0.0943 -0.3986  0.0449
13714TIP3    H162557   1.802   0.361   3.035 -3.0651  0.1144  0.2377
13714TIP3    H262558   1.838   0.243   3.122 -0.1014 -0.3360 -1.5455
13715TIP3   OH262559   1.547   4.152  12.205 -0.4801 -0.8456  0.3504
13715TIP3    H162560   1.629   4.104  12.215  0.8803  1.2284 -0.5318
13715TIP3    H262561   1.517   4.130  12.117 -0.9338 -1.6528  0.6951
13716TIP3   OH262562   2.520   5.831  11.006 -0.0578  0.2647  0.6655
13716TIP3    H162563   2.607   5.866  10.986  0.3437 -0.4185  1.2160
13716TIP3    H262564   2.491   5.791  10.924  1.2104 -1.7363  1.1494
13717TIP3   OH262565   0.150   1.138  16.062  0.5071  0.4060  0.0515
13717TIP3    H162566   0.147   1.116  15.969 -1.4699 -1.0752  0.4370
13717TIP3    H262567   0.199   1.067  16.102 -3.2022 -1.8132  0.8547
13718TIP3   OH262568   2.282   2.650  13.024 -0.4292  0.1181 -0.8754
13718TIP3    H162569   2.247   2.562  13.032 -1.7148  0.6251 -0.7480
13718TIP3    H262570   2.375   2.641  13.044 -0.2445 -1.4398 -2.2900
13719TIP3   OH262571   2.386   2.397  15.855 -0.1885 -0.4261 -0.4847
13719TIP3    H162572   2.433   2.480  15.851 -0.6964 -0.0725  0.7399
13719TIP3    H262573   2.431   2.341  15.792  0.9069  0.3967 -0.4480
13720TIP3   OH262574   2.776   3.145   3.984  0.2468 -0.1941 -0.3001
13720TIP3    H162575   2.772   3.051   3.998 -0.1190 -0.2932 -1.0135
13720TIP3    H262576   2.727   3.159   3.903  0.4065  0.5938 -0.2676
13721TIP3   OH262577   4.238   4.680   1.608  0.0205  0.0235  0.6974
13721TIP3    H162578   4.181   4.606   1.629 -2.6783  1.9014  0.2347
13721TIP3    H262579   4.250   4.726   1.691 -0.2332  0.3904  0.5295
13722TIP3   OH262580   2.147   4.592  10.164  0.0605  0.5692 -0.0045
13722TIP3    H162581   2.079   4.532  10.194  0.7206 -0.7743 -1.1182
13722TIP3    H262582   2.166   4.647  10.239  1.3852 -2.4280  1.9448
13723TIP3   OH262583   2.441   4.714   2.286  0.5296 -0.0113 -0.1653
13723TIP3    H162584   2.471   4.801   2.311  0.1694 -0.3744  1.5985
13723TIP3    H262585   2.512   4.655   2.314 -0.6935 -0.6119  1.7546
13724TIP3   OH262586   0.018   3.944  15.302 -0.1971  0.1761  0.4356
13724TIP3    H162587   0.003   3.851  15.283 -2.4407  0.9906 -1.9945
13724TIP3    H262588   0.114   3.952  15.304  0.0809 -1.7269 -1.9913
13725TIP3   OH262589   0.273   2.967  12.441 -0.5871 -1.2792  1.1035
13725TIP3    H162590   0.287   2.875  12.465 -1.0160 -0.9913  2.5514
13725TIP3    H262591   0.178   2.979  12.445 -0.5262 -0.7550  1.0506
13726TIP3   OH262592   4.180   5.963  11.236  0.3937 -0.3546 -0.3311
13726TIP3    H162593   4.108   6.026  11.236  0.6481 -0.0425 -2.3576
13726TIP3    H262594   4.248   6.003  11.182  1.7846 -1.0175  0.8874
13727TIP3   OH262595   2.646   4.055   3.960 -0.0511  0.3946 -0.0584
13727TIP3    H162596   2.626   3.985   3.896 -1.2474  0.4587  0.2226
13727TIP3    H262597   2.723   4.024   4.006  0.8168  0.3213 -1.5110
13728TIP3   OH262598   3.343   5.730  13.038 -0.3585  0.4862  0.1358
13728TIP3    H162599   3.381   5.724  12.950 -1.4762  0.3291 -0.3515
13728TIP3    H262600   3.416   5.755  13.094  0.9660 -1.9626 -0.4169
13729TIP3   OH262601   0.144   2.343   0.988 -0.3473 -0.0133 -0.1567
13729TIP3    H162602   0.126   2.251   1.008 -1.2185 -0.1325 -1.3945
13729TIP3    H262603   0.200   2.373   1.059  0.8897 -1.8239 -0.3383
13730TIP3   OH262604   1.273   5.089  15.754 -0.2301 -0.1842 -0.2501
13730TIP3    H162605   1.306   5.159  15.811  0.6792  0.5818 -1.6723
13730TIP3    H262606   1.273   5.011  15.809  0.9310  0.4695  0.7051
13731TIP3   OH262607   0.767   2.105   5.813 -0.6913  0.2514  0.1434
13731TIP3    H162608   0.763   2.147   5.898 -0.2920 -2.1607  1.4077
13731TIP3    H262609   0.846   2.140   5.772 -0.2358  0.5328  1.2518
13732TIP3   OH262610   6.528   5.680  12.485  0.3778  0.6368  0.7221
13732TIP3    H162611   6.555   5.596  12.523 -0.7562 -0.1388 -0.1706
13732TIP3    H262612   6.495   5.730  12.560 -0.7997 -0.4702  0.9588
13733TIP3   OH262613   2.745   5.134   1.908 -0.2724  0.8549  0.2784
13733TIP3    H162614   2.741   5.117   1.814 -1.0411  1.7947  0.1272
13733TIP3    H262615   2.705   5.058   1.949 -0.6027  0.7760 -0.1945
13734TIP3   OH262616   3.772   6.651   3.334  0.3509 -0.1828  0.0757
13734TIP3    H162617   3.764   6.613   3.421  1.0046 -0.8801 -0.1653
13734TIP3    H262618   3.863   6.635   3.308  0.0074 -0.5161 -0.9797
13735TIP3   OH262619   4.468   6.357  13.462 -0.0807  0.2200  0.0793
13735TIP3    H162620   4.413   6.305  13.404 -1.8429  1.4723  0.6048
13735TIP3    H262621   4.556   6.323  13.448 -0.8789 -1.3338 -1.2900
13736TIP3   OH262622   3.132   2.498   2.025 -0.4371  0.1074  0.2418
13736TIP3    H162623   3.095   2.477   1.939 -0.6480 -2.2614  0.8553
13736TIP3    H262624   3.060   2.482   2.086 -0.1890  1.4439  0.8811
13737TIP3   OH262625   4.016   2.035  16.723  0.4475 -0.4878 -0.3031
13737TIP3    H162626   4.025   2.104  16.789 -1.6359  0.3424 -0.8453
13737TIP3    H262627   4.106   2.009  16.703  1.2376  1.6403  0.3563
13738TIP3   OH262628   0.626   3.987  11.532  0.3218  0.3445 -0.1680
13738TIP3    H162629   0.585   3.908  11.496  2.0601  0.0661 -1.6616
13738TIP3    H262630   0.656   3.961  11.619  0.1108 -0.3794 -0.3063
13739TIP3   OH262631   4.782   4.904  12.855  0.1433 -0.2256  0.1007
13739TIP3    H162632   4.820   4.984  12.817  0.7293 -1.1771 -1.3447
13739TIP3    H262633   4.855   4.843  12.862 -0.7906 -1.5441 -1.2900
13740TIP3   OH262634   3.056   2.156  12.740  0.2087 -0.1312  0.1030
13740TIP3    H162635   3.128   2.206  12.701 -1.0444  2.0241  0.4357
13740TIP3    H262636   3.054   2.074  12.691  2.3282  0.1484 -0.4865
13741TIP3   OH262637   4.007   0.221  15.424 -0.2989 -0.5926 -0.6872
13741TIP3    H162638   4.084   0.201  15.477  1.6593  3.3407 -1.8802
13741TIP3    H262639   4.019   0.170  15.344 -1.2520 -3.4143  0.8845
13742TIP3   OH262640   3.624   3.837  12.721 -0.1333 -0.1906  0.9872
13742TIP3    H162641   3.650   3.865  12.809 -1.9258  0.0983  1.4544
13742TIP3    H262642   3.676   3.759  12.704 -0.9116 -1.1794  2.9778
13743TIP3   OH262643   3.768   2.433   5.417  0.0401 -0.0007  0.7874
13743TIP3    H162644   3.802   2.386   5.341 -1.7155 -0.8751  0.5428
13743TIP3    H262645   3.844   2.441   5.475  1.4782  0.9408 -1.1642
13744TIP3   OH262646   4.745   4.472   1.753 -0.4111  0.1598 -0.2625
13744TIP3    H162647   4.816   4.536   1.750 -0.9441  0.7580 -0.4867
13744TIP3    H262648   4.670   4.520   1.717 -0.6788 -0.7755 -0.9572
13745TIP3   OH262649   0.238   0.694  11.406 -0.0670  0.1154  0.6629
13745TIP3    H162650   0.231   0.609  11.362 -0.7207  0.4587  0.1023
13745TIP3    H262651   0.294   0.677  11.482  0.6103 -0.5960  0.0015
13746TIP3   OH262652   2.866   1.173   4.661  0.3836 -0.2595 -0.0013
13746TIP3    H162653   2.888   1.101   4.602 -0.7836 -1.5806  1.1560
13746TIP3    H262654   2.900   1.145   4.746  1.2697  1.2433  0.1515
13747TIP3   OH262655   2.397   0.787  13.415  0.2650 -0.0945 -0.0243
13747TIP3    H162656   2.460   0.717  13.396 -1.9616 -1.2745 -3.4115
13747TIP3    H262657   2.433   0.865  13.374  0.7151 -0.1959  0.1783
13748TIP3   OH262658   1.297   5.506   2.417 -0.1513 -0.2967 -0.4766
13748TIP3    H162659   1.360   5.516   2.346  1.0105  1.1252  0.7010
13748TIP3    H262660   1.330   5.565   2.485 -1.4413 -1.3641  1.0857
13749TIP3   OH262661   2.850   0.178   2.696 -0.4323  0.0029 -0.7068
13749TIP3    H162662   2.934   0.133   2.682 -1.5346 -2.0748 -0.7914
13749TIP3    H262663   2.833   0.169   2.790 -0.7885  0.0188 -0.7692
13750TIP3   OH262664   6.769   0.170  14.282  0.3309  0.9513 -0.2004
13750TIP3    H162665   6.688   0.207  14.247  0.6603 -0.1193 -2.2200
13750TIP3    H262666   6.815   0.244  14.322 -0.4408  2.1066 -1.4151
13751TIP3   OH262667   0.731   3.142  16.446  0.0072  0.3498 -0.2121
13751TIP3    H162668   0.645   3.171  16.417  0.4556  1.0146 -0.8965
13751TIP3    H262669   0.733   3.049  16.424  0.3377  0.8369 -2.3536
13752TIP3   OH262670   1.729   0.512  13.212  0.2069 -0.0429 -0.1754
13752TIP3    H162671   1.824   0.504  13.214  0.1065 -1.7106 -0.9774
13752TIP3    H262672   1.702   0.512  13.304  0.8729 -0.9579  0.0178
13753TIP3   OH262673   4.040   6.389   0.316 -0.1608  0.3244  0.2295
13753TIP3    H162674   4.018   6.341   0.396  0.4861  0.1700  0.3147
13753TIP3    H262675   3.955   6.404   0.274 -0.4389 -0.2336  0.5766
13754TIP3   OH262676   1.936   1.607  12.497  0.0479 -0.0390 -0.4755
13754TIP3    H162677   1.883   1.528  12.481 -0.5993  0.1478  0.7017
13754TIP3    H262678   1.914   1.665  12.425  0.2430 -0.7826 -1.1485
13755TIP3   OH262679   3.595   5.221  16.234 -0.1950  0.0292  0.6166
13755TIP3    H162680   3.566   5.255  16.319 -2.6998 -2.6395  0.9119
13755TIP3    H262681   3.555   5.279  16.170  1.9033  2.2059  1.2186
13756TIP3   OH262682   3.529   3.719   0.961  0.2372  0.1869  0.1881
13756TIP3    H162683   3.554   3.791   0.905  0.1825  0.9512  1.1361
13756TIP3    H262684   3.496   3.760   1.041 -0.9992 -0.8508  0.2349
13757TIP3   OH262685   2.927   3.548  11.355 -0.1642 -0.2013 -0.0644
13757TIP3    H162686   3.003   3.553  11.413  0.6711 -0.3722 -1.1248
13757TIP3    H262687   2.943   3.615  11.289 -0.6911 -0.5834 -0.5804
13758TIP3   OH262688   6.260   1.443  14.158  0.1720  0.3429 -0.4184
13758TIP3    H162689   6.227   1.507  14.221  1.7107 -0.4617  1.2557
13758TIP3    H262690   6.263   1.361  14.207  1.1032 -0.3585 -1.6341
13759TIP3   OH262691   0.311   1.193   4.979  0.4882 -0.1858 -0.2380
13759TIP3    H162692   0.291   1.259   5.045  0.7669 -0.0617 -0.2796
13759TIP3    H262693   0.229   1.144   4.969  0.4697 -0.2568  0.2575
13760TIP3   OH262694   3.632   0.224  15.084 -0.2600  0.8653 -0.0231
13760TIP3    H162695   3.627   0.302  15.029  2.4892  1.4240  0.4330
13760TIP3    H262696   3.604   0.254  15.170 -1.1017  0.8737 -0.3004
13761TIP3   OH262697   5.598   3.455   1.162  0.0275  0.2086  0.4630
13761TIP3    H162698   5.674   3.496   1.202  0.4581  0.6354 -0.7680
13761TIP3    H262699   5.527   3.519   1.174  0.7868  1.5061 -1.7843
13762TIP3   OH262700   2.648   4.307  13.745 -0.0393  0.6835 -0.3522
13762TIP3    H162701   2.701   4.326  13.668 -1.7172  1.7301 -1.2803
13762TIP3    H262702   2.560   4.293  13.711  0.0617 -3.7352  0.8460
13763TIP3   OH262703   4.781   2.174   1.222 -0.4472 -0.1996 -0.0715
13763TIP3    H162704   4.747   2.252   1.267  0.3757  0.3177 -0.3413
13763TIP3    H262705   4.820   2.122   1.292 -1.8770 -0.8603  0.2639
13764TIP3   OH262706   4.953   2.420  17.163  0.2380  0.2502  0.5762
13764TIP3    H162707   4.894   2.391  17.093 -0.0183 -0.0302  0.9011
13764TIP3    H262708   4.944   2.515  17.165 -0.9090  0.1407  1.2240
13765TIP3   OH262709   3.638   4.921  12.383  0.4055 -0.0637 -0.1933
13765TIP3    H162710   3.605   4.866  12.312  0.3917  0.4859 -0.6141
13765TIP3    H262711   3.693   4.986  12.339  1.3350 -0.4342  0.4143
13766TIP3   OH262712   3.968   0.019   0.779  0.4015  0.4099  0.7728
13766TIP3    H162713   4.025  -0.052   0.749 -1.3082  0.0559 -1.8025
13766TIP3    H262714   3.999   0.096   0.731  0.6471  0.8718  1.6652
13767TIP3   OH262715   4.423   6.040   4.764  0.1972 -0.0479  0.1904
13767TIP3    H162716   4.423   6.132   4.788 -1.8560  0.5908 -2.1624
13767TIP3    H262717   4.362   5.999   4.825 -1.8536  0.8380 -1.2529
13768TIP3   OH262718   5.390   1.153  11.032  0.3934 -0.8119 -0.2107
13768TIP3    H162719   5.319   1.170  10.971 -0.6638  0.2403  1.2875
13768TIP3    H262720   5.447   1.090  10.986  0.3374  0.9422 -2.7705
13769TIP3   OH262721   6.191   2.337  13.221  0.3755  0.5317  0.1779
13769TIP3    H162722   6.225   2.407  13.165 -0.6490  2.4067  1.8312
13769TIP3    H262723   6.266   2.309  13.273  0.8575  0.2001 -0.6988
13770TIP3   OH262724   6.468   3.198   3.780  0.6410 -0.3936  0.4655
13770TIP3    H162725   6.374   3.186   3.795  0.8070 -0.9516  1.0910
13770TIP3    H262726   6.474   3.273   3.721 -0.2619 -1.0471 -0.4875
13771TIP3   OH262727   6.612   1.073   1.328  0.4521 -0.0979 -0.2721
13771TIP3    H162728   6.649   1.149   1.284  0.2039  0.6182  0.7338
13771TIP3    H262729   6.685   1.037   1.378  0.8911 -1.2717 -1.7276
13772TIP3   OH262730   0.777   5.650   1.203  1.1176 -0.1211  0.0760
13772TIP3    H162731   0.773   5.705   1.281 -0.2284 -0.3900  0.2112
13772TIP3    H262732   0.858   5.599   1.214  1.7958  1.0217  0.4734
13773TIP3   OH262733   5.180   1.579   3.584 -0.0215 -0.2838 -0.2971
13773TIP3    H162734   5.245   1.518   3.549  0.8044  0.6336 -0.3669
13773TIP3    H262735   5.179   1.563   3.678  0.6998  0.0836 -0.2292
13774TIP3   OH262736   3.159   5.265   3.814  0.3032  0.0468 -0.5587
13774TIP3    H162737   3.143   5.302   3.901  0.8981 -1.0457  0.0278
13774TIP3    H262738   3.250   5.289   3.794  0.4314 -0.4039 -0.5226
13775TIP3   OH262739   3.786   1.298   2.546 -0.3985  0.0814 -0.1485
13775TIP3    H162740   3.705   1.333   2.509  0.4591  1.6450 -0.6505
13775TIP3    H262741   3.786   1.327   2.637  0.2776  1.4147 -0.5453
13776TIP3   OH262742   2.804   5.739   5.270  0.2701  0.2444 -0.1308
13776TIP3    H162743   2.859   5.714   5.344 -0.8492  0.1252  0.6754
13776TIP3    H262744   2.784   5.656   5.226 -0.4098  0.1172  0.4000
13777TIP3   OH262745   0.263   4.303  11.872  0.3792 -0.1380  0.6084
13777TIP3    H162746   0.241   4.258  11.790  0.3074  2.3719 -0.7699
13777TIP3    H262747   0.352   4.337  11.858 -0.2118  1.6027  0.9841
13778TIP3   OH262748   2.204   1.612   2.502  0.4408 -0.2714  0.1030
13778TIP3    H162749   2.294   1.581   2.515  0.5166 -1.4778 -2.9289
13778TIP3    H262750   2.204   1.700   2.539  2.8306 -0.3327  0.3606
13779TIP3   OH262751   1.388   2.861   5.473  0.2475 -0.1340  0.0602
13779TIP3    H162752   1.483   2.874   5.473  0.3166 -0.5002  1.6558
13779TIP3    H262753   1.359   2.894   5.388  1.6898  0.7910 -0.0901
13780TIP3   OH262754   5.605   5.945  15.341  0.0417  0.2254 -0.0592
13780TIP3    H162755   5.566   6.025  15.376  0.9861  0.4707  0.4545
13780TIP3    H262756   5.610   5.959  15.247 -1.3353  0.0867 -0.1673
13781TIP3   OH262757   4.274   6.540  13.496  0.2746 -0.1247 -0.4031
13781TIP3    H162758   4.348   6.487  13.467  0.1689 -0.4333 -0.1104
13781TIP3    H262759   4.197   6.494  13.462  0.2353  0.4017 -1.0355
13782TIP3   OH262760   1.344   3.513  14.462  0.3667  0.0090  0.2773
13782TIP3    H162761   1.273   3.556  14.510 -0.0445 -2.7179  2.2109
13782TIP3    H262762   1.326   3.533  14.370 -2.1038  0.5538  0.8370
13783TIP3   OH262763   5.753   3.179   2.045  0.3766  0.0894 -0.3759
13783TIP3    H162764   5.744   3.271   2.070 -0.1432  0.0844 -0.5316
13783TIP3    H262765   5.767   3.180   1.951  0.2283  0.0037 -0.3994
13784TIP3   OH262766   5.040   3.181  12.995  0.2160 -0.1502  0.8981
13784TIP3    H162767   5.134   3.164  12.997  0.7568  1.6999 -3.2716
13784TIP3    H262768   5.000   3.094  12.999  2.1721 -1.0897  0.4509
13785TIP3   OH262769   5.797   1.161  14.577  0.5126  0.3654 -0.2044
13785TIP3    H162770   5.783   1.235  14.519  0.7964  0.3178 -0.3347
13785TIP3    H262771   5.724   1.164  14.639 -0.7885 -0.6170 -1.6434
13786TIP3   OH262772   3.909   6.419   3.035 -0.4507 -0.4524 -0.0770
13786TIP3    H162773   3.887   6.408   2.942  2.0601 -2.7808 -0.4655
13786TIP3    H262774   3.848   6.362   3.081  0.5321 -1.9890 -0.6217
13787TIP3   OH262775   1.683   3.914  15.783  0.5034 -0.0582 -0.4563
13787TIP3    H162776   1.698   3.928  15.689  1.7171 -1.7180 -0.5341
13787TIP3    H262777   1.665   4.001  15.817 -0.3812  0.5157 -2.3041
13788TIP3   OH262778   4.402   1.087  16.480  0.5654  0.0201 -0.1574
13788TIP3    H162779   4.386   1.026  16.552  0.2325  1.6262  1.1411
13788TIP3    H262780   4.430   1.168  16.523  2.7896  0.2505 -1.9432
13789TIP3   OH262781   2.016   4.908  13.782 -0.2244 -0.4973 -0.0702
13789TIP3    H162782   2.045   4.946  13.699  0.0192  0.2954  0.3776
13789TIP3    H262783   2.036   4.814  13.773 -2.2949 -0.8282 -1.8097
13790TIP3   OH262784   4.498   1.020  14.869 -1.0475  0.2491 -0.2317
13790TIP3    H162785   4.451   1.089  14.820 -0.2403 -0.5180 -2.1484
13790TIP3    H262786   4.543   0.970  14.801 -2.2881 -2.7014  1.0502
13791TIP3   OH262787   2.737   5.272   2.456  0.6472  0.2974  0.0165
13791TIP3    H162788   2.710   5.262   2.365 -0.3562  0.5081  0.2868
13791TIP3    H262789   2.832   5.266   2.453  0.6288  0.3622 -1.0544
13792TIP3   OH262790   4.483   6.376  15.750  0.0053 -0.3866  0.0519
13792TIP3    H162791   4.461   6.421  15.832  1.1430 -0.7944  0.5919
13792TIP3    H262792   4.549   6.432  15.709 -1.0990  0.1978 -0.9624
13793TIP3   OH262793   6.565   4.477   4.965  0.0318  0.5062  0.1020
13793TIP3    H162794   6.527   4.391   4.984  0.4413  0.6423  1.6069
13793TIP3    H262795   6.608   4.466   4.880 -0.0826 -0.7216  0.1978
13794TIP3   OH262796   4.199   4.379  16.073  0.4079 -0.0968 -0.3290
13794TIP3    H162797   4.158   4.465  16.083 -0.1195 -0.2396 -1.1952
13794TIP3    H262798   4.288   4.398  16.043  0.2654  0.1564 -0.5988
13795TIP3   OH262799   4.762   6.153   0.314  0.0746 -0.1070 -0.4009
13795TIP3    H162800   4.840   6.123   0.361 -0.1314 -0.6981 -0.4434
13795TIP3    H262801   4.738   6.234   0.360  0.3988 -0.2010 -0.0517
13796TIP3   OH262802   0.931   5.674  15.362  0.0491 -1.1356  0.8560
13796TIP3    H162803   0.869   5.631  15.420  0.0603 -0.4125  1.4040
13796TIP3    H262804   0.893   5.761  15.346 -1.1173 -2.0974 -2.0254
13797TIP3   OH262805   1.922   0.699   3.598  0.0925 -0.5184 -1.0838
13797TIP3    H162806   1.852   0.755   3.564  2.5053  2.2494 -1.6720
13797TIP3    H262807   1.964   0.664   3.520  0.2147 -1.1120 -0.7528
13798TIP3   OH262808   3.186   0.562   4.173  0.1530  0.3530  0.3670
13798TIP3    H162809   3.205   0.622   4.102 -0.8331 -0.4801 -0.6271
13798TIP3    H262810   3.211   0.476   4.139  0.3323  0.0356  1.2846
13799TIP3   OH262811   0.355   3.291  15.789  0.2226 -0.4047 -0.5049
13799TIP3    H162812   0.291   3.247  15.845  0.1680  1.0201  0.5635
13799TIP3    H262813   0.388   3.221  15.732 -0.7674 -1.5782  0.3219
13800TIP3   OH262814   6.098   6.685   3.632  0.1234  0.3147 -0.2561
13800TIP3    H162815   6.052   6.699   3.549 -0.1771  0.2318 -0.1033
13800TIP3    H262816   6.047   6.618   3.677  0.9442 -0.4921 -0.5104
13801TIP3   OH262817   0.670   2.281  14.440 -0.0271 -0.7755  0.1449
13801TIP3    H162818   0.607   2.344  14.407  0.4788  1.0167  2.4800
13801TIP3    H262819   0.632   2.249  14.521  1.6035 -0.3796  1.0911
13802TIP3   OH262820   2.406   5.608   3.870  0.0162 -0.6078 -0.5899
13802TIP3    H162821   2.323   5.574   3.836  0.5553 -1.9647 -0.5756
13802TIP3    H262822   2.408   5.580   3.961  0.2187 -0.0530 -0.4197
13803TIP3   OH262823   6.330   2.066   5.144  0.2815  0.0604  0.2976
13803TIP3    H162824   6.362   2.002   5.207 -0.2565  0.0248  0.5427
13803TIP3    H262825   6.287   2.014   5.076  0.5210  0.1203  0.0998
13804TIP3   OH262826   6.566   2.006  11.050  0.3517  0.0635  0.1908
13804TIP3    H162827   6.546   2.047  10.966  2.3138  1.6462  0.4544
13804TIP3    H262828   6.594   1.917  11.026  0.1001  0.2291 -0.7529
13805TIP3   OH262829   3.778   5.779  12.595 -0.5863  0.7011  0.2441
13805TIP3    H162830   3.872   5.777  12.616  0.0444  2.0007 -2.1603
13805TIP3    H262831   3.751   5.869  12.616 -0.2719  1.5850 -2.8217
13806TIP3   OH262832   4.025   1.360  13.389  0.3183  0.8813 -0.0934
13806TIP3    H162833   4.044   1.430  13.326  0.5040 -0.5505 -1.6757
13806TIP3    H262834   3.996   1.405  13.468  0.1793  2.7291 -1.1858
13807TIP3   OH262835   3.254   3.054  12.187  0.0140 -0.2636  0.2503
13807TIP3    H162836   3.217   3.111  12.119 -3.9928 -0.6223  2.0191
13807TIP3    H262837   3.222   2.967  12.166  2.0770 -1.0774  0.3748
13808TIP3   OH262838   5.638   5.530  14.165  0.7275  0.2920  0.0525
13808TIP3    H162839   5.653   5.469  14.238  1.0775 -0.7976 -0.9247
13808TIP3    H262840   5.720   5.579  14.158  1.3044 -0.7451 -0.6613
13809TIP3   OH262841   4.664   5.272  11.651  0.0084 -0.0059 -0.0729
13809TIP3    H162842   4.659   5.277  11.555  1.3679  0.4090 -0.1303
13809TIP3    H262843   4.575   5.250  11.678 -0.4072 -0.0606 -1.4284
13810TIP3   OH262844   1.446   4.336  11.395 -0.2233 -0.4758 -0.4460
13810TIP3    H162845   1.485   4.349  11.309  0.7298 -0.8695 -0.0792
13810TIP3    H262846   1.488   4.403  11.450  0.0812 -1.0335 -0.0011
13811TIP3   OH262847   2.525   5.682  13.960  0.4972 -0.8298 -0.5158
13811TIP3    H162848   2.497   5.763  13.917 -0.2428 -0.4905  0.5783
13811TIP3    H262849   2.565   5.630  13.890 -0.6454 -0.2748 -1.5903
13812TIP3   OH262850   3.286   2.839   2.464 -0.7006 -0.2390 -0.5985
13812TIP3    H162851   3.279   2.860   2.371 -1.3509  0.2044 -0.4487
13812TIP3    H262852   3.329   2.753   2.466 -3.0896 -1.4995 -1.3986
13813TIP3   OH262853   4.316   0.736  11.053 -0.3191  0.5282  0.2447
13813TIP3    H162854   4.348   0.791  11.124 -1.4121  0.9351  0.4375
13813TIP3    H262855   4.227   0.713  11.079 -0.5700  0.3155 -0.7872
13814TIP3   OH262856   5.213   2.810  15.541 -0.1770  0.0165 -0.2166
13814TIP3    H162857   5.182   2.816  15.451  2.1987  0.4465 -1.0548
13814TIP3    H262858   5.307   2.831  15.536 -0.1639  0.8975  2.4689
13815TIP3   OH262859   2.473   4.018  15.363  0.0886 -0.1763 -0.0827
13815TIP3    H162860   2.480   3.938  15.310  0.5897 -0.5765  0.5843
13815TIP3    H262861   2.527   4.001  15.440 -1.4851 -0.0372  1.0921
13816TIP3   OH262862   0.407   1.341   3.601 -0.3094 -0.1463  0.2822
13816TIP3    H162863   0.382   1.433   3.589 -0.5817 -0.4132 -1.2626
13816TIP3    H262864   0.499   1.345   3.627 -0.5158  0.5978  0.9183
13817TIP3   OH262865   5.728   2.218  12.334 -0.8508  0.2337 -0.4201
13817TIP3    H162866   5.732   2.309  12.364 -0.1797  0.3478 -0.8423
13817TIP3    H262867   5.778   2.169  12.400 -1.0780  0.1936 -0.2772
13818TIP3   OH262868   0.230   3.989   1.727 -0.4897  0.2630  0.3176
13818TIP3    H162869   0.311   4.033   1.700 -0.0487  0.1607  1.4450
13818TIP3    H262870   0.203   4.036   1.806 -0.1926 -1.2556  1.3462
13819TIP3   OH262871   5.215   0.209  13.340 -0.0685 -0.4593 -0.5970
13819TIP3    H162872   5.201   0.120  13.310  0.0161 -0.4306 -0.7195
13819TIP3    H262873   5.304   0.230  13.313  0.3906 -0.8123  0.5905
13820TIP3   OH262874   1.848   4.326   1.427  0.3404 -0.0375  0.0449
13820TIP3    H162875   1.858   4.399   1.366  0.0446  0.6426  0.7914
13820TIP3    H262876   1.755   4.326   1.449  0.4928 -0.0868  0.7133
13821TIP3   OH262877   1.100   6.427  13.206 -0.3237  0.6195  0.6720
13821TIP3    H162878   1.088   6.333  13.190  0.5463  0.6183 -0.0136
13821TIP3    H262879   1.011   6.462  13.209 -0.6186  0.2032 -1.7180
13822TIP3   OH262880   3.860   1.810  14.818  0.1979  0.0596 -0.8488
13822TIP3    H162881   3.770   1.800  14.787 -0.5127  0.7733  0.9153
13822TIP3    H262882   3.875   1.736  14.876  0.0974  0.9541  0.3324
13823TIP3   OH262883   6.238   0.454   3.948  0.7780 -0.1925 -0.0947
13823TIP3    H162884   6.327   0.458   3.983  0.5588 -0.6269  0.5235
13823TIP3    H262885   6.227   0.363   3.921 -0.0334 -0.5283  1.3200
13824TIP3   OH262886   2.559   5.588   0.908  0.0194  0.2968  0.1158
13824TIP3    H162887   2.622   5.659   0.890 -0.4243  0.4973 -0.6871
13824TIP3    H262888   2.487   5.632   0.953 -1.0780  0.7216 -1.9762
13825TIP3   OH262889   5.291   4.048  13.114 -0.5765  0.4125  0.0440
13825TIP3    H162890   5.379   4.015  13.098 -0.7427  0.3461 -0.7430
13825TIP3    H262891   5.247   3.977  13.160 -0.3355  0.2966  0.0955
13826TIP3   OH262892   4.243   4.325  17.037 -0.1529 -0.3033 -0.5440
13826TIP3    H162893   4.251   4.345  17.130 -1.7431 -2.9408  0.2392
13826TIP3    H262894   4.182   4.391  17.003  0.0602  0.3812  0.3944
13827TIP3   OH262895   0.839   4.241  12.496 -0.2771 -0.1341 -0.3340
13827TIP3    H162896   0.899   4.214  12.427  0.6218 -0.9635  0.7678
13827TIP3    H262897   0.828   4.163  12.551  1.4759  1.3398  2.2321
13828TIP3   OH262898   3.677   5.300   5.126  0.2540 -0.2244  0.0011
13828TIP3    H162899   3.628   5.295   5.208  1.3273 -0.6647  0.6258
13828TIP3    H262900   3.655   5.218   5.081 -1.0095  0.4004 -0.5565
13829TIP3   OH262901   2.816   2.193  16.828  0.0776  0.4534 -0.4761
13829TIP3    H162902   2.740   2.247  16.811  0.4415  1.7309  1.6623
13829TIP3    H262903   2.780   2.109  16.855 -0.5662  0.8204 -0.1727
13830TIP3   OH262904   0.008   1.826  11.264 -0.3435 -0.4787  0.0596
13830TIP3    H162905  -0.015   1.839  11.356 -1.2213  0.3835 -0.2706
13830TIP3    H262906   0.077   1.892  11.248  0.8859 -1.6344  0.4840
13831TIP3   OH262907   6.095   3.702   1.982 -0.2973  0.2291  0.0040
13831TIP3    H162908   6.071   3.612   1.958 -0.4667  0.5257 -0.9429
13831TIP3    H262909   6.177   3.718   1.935 -1.0016  1.0624 -0.9760
13832TIP3   OH262910   1.491   0.587  15.640 -0.4000  0.4205 -0.0123
13832TIP3    H162911   1.515   0.668  15.686 -1.6058  0.0935  1.2344
13832TIP3    H262912   1.488   0.612  15.548  1.2331  1.2976  0.1515
13833TIP3   OH262913   2.889   2.713  17.163  0.8560  0.3112 -0.4411
13833TIP3    H162914   2.933   2.695  17.246  0.5285 -1.1293 -0.5690
13833TIP3    H262915   2.955   2.759  17.110  0.5558  2.6763  1.1684
13834TIP3   OH262916   4.018   0.106   4.977 -0.1747 -0.0952  0.1568
13834TIP3    H162917   4.078   0.081   4.906 -1.1788 -2.7838  0.1870
13834TIP3    H262918   3.986   0.192   4.952  1.5633  0.1636 -1.2777
13835TIP3   OH262919   5.629   2.789  13.159 -0.3560 -0.4352  0.0601
13835TIP3    H162920   5.556   2.836  13.118 -0.3280 -0.7864 -0.3953
13835TIP3    H262921   5.604   2.697  13.154  1.0038 -0.7190 -1.8895
13836TIP3   OH262922   0.778   5.464  11.382  0.3895 -0.3181  0.0071
13836TIP3    H162923   0.823   5.412  11.316 -1.5189 -0.8632 -0.8850
13836TIP3    H262924   0.847   5.487  11.445  2.8726  2.7169 -3.6201
13837TIP3   OH262925   5.753   3.046   3.137  0.4679  0.5750 -0.0841
13837TIP3    H162926   5.757   2.950   3.136  1.2183  0.6058 -0.3603
13837TIP3    H262927   5.665   3.066   3.104  0.8738  0.0058 -1.5981
13838TIP3   OH262928   6.119   5.554  10.688 -0.0664  0.8141  0.1499
13838TIP3    H162929   6.144   5.478  10.635  3.4665  2.3650 -0.5892
13838TIP3    H262930   6.156   5.628  10.640 -0.4964  2.6712  2.6410
13839TIP3   OH262931   3.057   5.392   0.617 -0.2794  0.0611  1.1513
13839TIP3    H162932   3.040   5.482   0.591  0.2039  0.3347  1.7525
13839TIP3    H262933   3.143   5.395   0.659 -0.1824 -0.7099  1.0188
13840TIP3   OH262934   3.472   3.513   0.458 -0.4555 -0.2616  0.3461
13840TIP3    H162935   3.567   3.515   0.472 -0.2859  1.2466 -0.8505
13840TIP3    H262936   3.435   3.519   0.546  0.5567 -0.5495  0.8072
13841TIP3   OH262937   3.148   3.158  14.169  0.6350  0.0284 -0.2696
13841TIP3    H162938   3.215   3.223  14.146  1.3183 -0.7757 -0.6060
13841TIP3    H262939   3.071   3.210  14.193  1.7085  1.0079  1.1835
13842TIP3   OH262940   3.022   2.736  14.364  0.1313 -0.3890  0.1117
13842TIP3    H162941   3.066   2.747  14.448 -0.1434  0.2180  0.1862
13842TIP3    H262942   3.033   2.644  14.342  0.7078 -0.4206  0.5328
13843TIP3   OH262943   4.666   3.492   0.432  0.0499  0.1317 -0.1510
13843TIP3    H162944   4.588   3.541   0.460  0.7172  1.2752 -0.2571
13843TIP3    H262945   4.638   3.400   0.432 -1.3552  0.5504 -0.3909
13844TIP3   OH262946   5.269   2.760  16.432 -0.4474  0.2696 -0.2134
13844TIP3    H162947   5.256   2.684  16.488  0.7697  0.7300  0.7233
13844TIP3    H262948   5.309   2.725  16.353  0.7870  0.0055  0.5072
13845TIP3   OH262949   2.038   2.506   2.811 -0.3217 -0.3303  0.3089
13845TIP3    H162950   1.957   2.457   2.820  0.0874 -1.2560 -0.9047
13845TIP3    H262951   2.087   2.459   2.744  1.8499 -0.6137  2.0481
13846TIP3   OH262952   0.970   3.209  15.919  0.0991 -0.6825 -0.6888
13846TIP3    H162953   0.887   3.244  15.887 -0.6228 -1.6944  0.0553
13846TIP3    H262954   0.978   3.242  16.008  0.9636  0.1844 -1.0745
13847TIP3   OH262955   3.576   6.475  11.770 -0.2946 -0.0907 -0.3247
13847TIP3    H162956   3.649   6.414  11.761  0.2943  0.4325  0.7813
13847TIP3    H262957   3.594   6.545  11.707 -0.5946 -0.6804 -1.0741
13848TIP3   OH262958   5.772   0.532   3.146 -0.0343  0.0063  0.0975
13848TIP3    H162959   5.740   0.548   3.235 -0.6963  0.1731 -0.1713
13848TIP3    H262960   5.787   0.619   3.109 -0.5758 -0.0433 -0.2478
13849TIP3   OH262961   2.127   4.091   1.458 -0.4494 -0.0859  0.1859
13849TIP3    H162962   2.093   4.179   1.475  0.9424  0.4732  0.0753
13849TIP3    H262963   2.204   4.105   1.404  1.0048 -1.2230  1.9163
13850TIP3   OH262964   0.187   4.773  14.579 -0.1961  0.1481  0.3308
13850TIP3    H162965   0.272   4.762  14.538 -0.1671  0.1676  0.3859
13850TIP3    H262966   0.178   4.699  14.639 -0.1948  0.1756  0.3658
13851TIP3   OH262967   0.461   1.673   2.291 -0.0964  0.1633  0.8669
13851TIP3    H162968   0.448   1.739   2.223  0.7539 -0.4837  0.0617
13851TIP3    H262969   0.372   1.643   2.312 -0.4789  1.5159  1.2019
13852TIP3   OH262970   2.015   1.341   5.527  1.1432  0.0377  1.0007
13852TIP3    H162971   2.076   1.346   5.601  0.2572  1.6039  1.6377
13852TIP3    H262972   2.031   1.421   5.477 -1.2499  1.0829  1.8563
13853TIP3   OH262973   2.169   1.418  15.328  0.4335  0.5631  0.1018
13853TIP3    H162974   2.242   1.427  15.389  0.5118  2.3708 -0.2290
13853TIP3    H262975   2.190   1.341  15.276  1.9394  0.8573  0.2548
13854TIP3   OH262976   5.554   4.077  17.027 -0.6273 -0.2740  1.2107
13854TIP3    H162977   5.487   4.139  17.056 -0.2020  2.2493 -2.9037
13854TIP3    H262978   5.506   3.996  17.012 -2.7863  1.4213 -1.4070
13855TIP3   OH262979   6.190   0.646   3.763 -0.0763  0.0760 -0.0558
13855TIP3    H162980   6.101   0.653   3.729  0.2329 -0.0123 -0.9007
13855TIP3    H262981   6.182   0.590   3.840 -0.8262  0.4748  0.1667
13856TIP3   OH262982   5.763   6.499  12.231  0.1136  0.0242  0.0512
13856TIP3    H162983   5.813   6.562  12.283 -1.1944  0.4264  0.8470
13856TIP3    H262984   5.797   6.414  12.256 -0.5490  0.2121  1.6161
13857TIP3   OH262985   0.743   1.925   5.601 -0.3778 -0.4575  0.0775
13857TIP3    H162986   0.673   1.860   5.610 -1.4039  0.7820  1.2699
13857TIP3    H262987   0.756   1.959   5.689  1.9553 -0.8668 -0.0844
13858TIP3   OH262988   1.661   0.650   4.630 -0.3987 -0.5509  0.2190
13858TIP3    H162989   1.634   0.639   4.721  0.0006 -1.5388  0.2340
13858TIP3    H262990   1.620   0.576   4.584 -2.5814  1.3003 -0.8591
13859TIP3   OH262991   1.444   6.011   0.526  0.0073  0.7645 -0.2656
13859TIP3    H162992   1.418   5.959   0.450 -0.1071  0.9095 -0.3275
13859TIP3    H262993   1.379   5.990   0.593  0.4831  0.1566 -0.0026
13860TIP3   OH262994   3.874   2.818   4.470 -0.1496  0.4496 -0.2624
13860TIP3    H162995   3.846   2.873   4.543 -0.9612 -0.4133  0.0890
13860TIP3    H262996   3.910   2.740   4.512 -0.6536 -0.0641 -0.7757
13861TIP3   OH262997   5.504   3.916   3.110  0.3374 -0.1537 -0.2311
13861TIP3    H162998   5.559   3.972   3.165 -1.0982  1.0988 -0.0351
13861TIP3    H262999   5.420   3.912   3.156 -0.4760 -0.1588 -1.6720
13862TIP3   OH263000   4.989   0.020  15.246 -0.0934  0.2307  0.5401
13862TIP3    H163001   4.983   0.109  15.281 -2.1037  0.7980 -1.1815
13862TIP3    H263002   5.074   0.017  15.202  0.2509  1.0810  1.1270
13863TIP3   OH263003   4.111   6.637   0.401 -0.6933  0.2559  0.3074
13863TIP3    H163004   4.205   6.619   0.396 -0.5806  1.1554 -1.4693
13863TIP3    H263005   4.069   6.555   0.376 -0.3691 -0.0434  0.7510
13864TIP3   OH263006   5.158   5.932   4.893  0.1240  0.2064 -0.2243
13864TIP3    H163007   5.068   5.966   4.889  0.1109  0.3154  1.0750
13864TIP3    H263008   5.148   5.841   4.919  0.5515  1.0200  2.9236
13865TIP3   OH263009   3.769   6.464  12.479  0.1628  0.5633 -0.1323
13865TIP3    H163010   3.819   6.420  12.547  0.2358  0.2791 -0.3710
13865TIP3    H263011   3.681   6.474  12.516  0.2063  0.4203  0.0097
13866TIP3   OH263012   1.263   4.933  11.605  0.6632 -0.4341 -1.3384
13866TIP3    H163013   1.204   4.913  11.677 -0.1101  0.0463 -1.8202
13866TIP3    H263014   1.296   5.021  11.625  2.8890 -1.5535  0.0144
13867TIP3   OH263015   4.797   3.048   1.222 -0.1393  0.2727  0.3989
13867TIP3    H163016   4.748   3.091   1.292 -0.4853 -0.2837  0.5004
13867TIP3    H263017   4.774   2.955   1.230 -1.2288  0.3776 -1.2657
13868TIP3   OH263018   2.061   4.536  10.614  0.0689  0.3086  0.3777
13868TIP3    H163019   1.993   4.488  10.567  1.0123  0.0390 -0.7339
13868TIP3    H263020   2.143   4.493  10.588  0.9366  2.5347 -0.6656
13869TIP3   OH263021   5.089   3.463  16.250  0.3807 -0.2041 -0.0029
13869TIP3    H163022   5.079   3.556  16.230 -0.6321 -0.3121 -0.0358
13869TIP3    H263023   5.005   3.437  16.287  0.8186 -1.0020  0.4570
13870TIP3   OH263024   2.189   4.607   2.269 -0.0777 -0.4708 -0.1403
13870TIP3    H163025   2.137   4.680   2.303 -0.8342 -0.6608 -0.8861
13870TIP3    H263026   2.277   4.644   2.259 -0.6733  0.6366 -1.4545
13871TIP3   OH263027   1.553   6.458   5.375 -0.2744  0.0118 -0.2107
13871TIP3    H163028   1.522   6.545   5.399  0.8904  0.2128  0.5969
13871TIP3    H263029   1.629   6.443   5.431 -0.9862 -1.8828  0.3273
13872TIP3   OH263030   0.063   6.121   0.848  0.2244  0.0081  0.5955
13872TIP3    H163031   0.022   6.089   0.928  0.6586  0.8111  1.1427
13872TIP3    H263032   0.026   6.066   0.779  1.5445 -2.2458  1.6023
13873TIP3   OH263033   3.021   6.485  13.246 -0.9037 -0.0166 -0.4189
13873TIP3    H163034   2.999   6.573  13.274 -1.3033 -0.4078  0.5230
13873TIP3    H263035   2.936   6.445  13.224 -0.6723  0.0200 -1.4123
13874TIP3   OH263036   0.960   1.970  15.094 -0.3873  0.0649  0.0066
13874TIP3    H163037   0.924   2.059  15.096 -1.0815 -0.1885 -0.9783
13874TIP3    H263038   0.981   1.951  15.185 -0.5262  1.1233  0.2688
13875TIP3   OH263039   6.708   5.012   0.325 -0.3874  0.1000  0.1982
13875TIP3    H163040   6.683   4.920   0.313 -1.0127  0.2284  0.5106
13875TIP3    H263041   6.724   5.021   0.419  2.3610 -0.3581 -0.1909
13876TIP3   OH263042   6.339   3.246  15.824  0.4530  0.0529 -0.5459
13876TIP3    H163043   6.313   3.264  15.915 -0.7903 -0.4868 -0.7801
13876TIP3    H263044   6.272   3.289  15.771  0.0816 -1.2830 -1.1699
13877TIP3   OH263045   2.230   3.530  13.797 -0.1555  0.5133 -0.0772
13877TIP3    H163046   2.268   3.537  13.885 -0.4230  0.3965  0.0505
13877TIP3    H263047   2.304   3.510  13.740 -0.4923 -3.3178  0.6791
13878TIP3   OH263048   3.940   3.932   2.118 -0.0273 -0.5481  0.2463
13878TIP3    H163049   3.895   3.887   2.046 -0.2600 -1.4745  0.9563
13878TIP3    H263050   3.926   3.876   2.194  1.8941 -0.5917  0.6039
13879TIP3   OH263051   0.970   5.620   1.651 -0.2689 -0.9545  0.0445
13879TIP3    H163052   1.038   5.561   1.619  1.8885  0.1860  2.3205
13879TIP3    H263053   0.932   5.575   1.726  0.9374  0.1873  1.3811
13880TIP3   OH263054   0.154   0.342   2.250  0.2888 -0.3225  0.0589
13880TIP3    H163055   0.225   0.361   2.310  0.5753  0.4161 -0.5047
13880TIP3    H263056   0.187   0.368   2.164 -1.1367  1.3177 -0.0319
13881TIP3   OH263057   4.088   4.480  13.994  0.3792 -0.1955 -0.7184
13881TIP3    H163058   4.101   4.400  14.045 -0.8191 -0.7531 -1.2542
13881TIP3    H263059   4.027   4.454  13.925  0.8857  0.8995 -1.5895
13882TIP3   OH263060   0.358   6.351  11.146 -0.5523 -0.4376 -0.0505
13882TIP3    H163061   0.323   6.274  11.191  0.3897 -2.2338 -2.2775
13882TIP3    H263062   0.284   6.386  11.096 -0.0820 -2.2833 -2.1442
13883TIP3   OH263063   3.297   1.638   2.337  0.5869  0.8162 -0.3283
13883TIP3    H163064   3.365   1.679   2.283  0.7256 -0.2545 -0.9685
13883TIP3    H263065   3.279   1.703   2.406 -0.2371  2.6077 -2.1661
13884TIP3   OH263066   1.526   5.205   2.660  0.2090  0.5136 -0.1019
13884TIP3    H163067   1.441   5.248   2.667 -0.1683  0.0579 -1.8269
13884TIP3    H263068   1.530   5.147   2.736 -1.2193  0.1763 -0.2817
13885TIP3   OH263069   1.804   0.220  13.542 -0.8055 -0.3027 -0.5119
13885TIP3    H163070   1.725   0.247  13.495 -0.1655 -0.3170 -1.6284
13885TIP3    H263071   1.875   0.234  13.479  0.0164 -0.7807  0.2961
13886TIP3   OH263072   3.173   1.930   1.300 -0.2107  0.1403 -0.2837
13886TIP3    H163073   3.152   2.008   1.352  1.7324  1.0917 -0.8553
13886TIP3    H263074   3.156   1.957   1.209 -1.1119 -0.6539 -0.3540
13887TIP3   OH263075   4.975   2.346   0.954  0.1670  0.4538 -0.5530
13887TIP3    H163076   4.973   2.369   1.047 -1.1060 -0.5600 -0.3115
13887TIP3    H263077   5.060   2.378   0.923 -0.1122  2.3533  0.5459
13888TIP3   OH263078   2.340   1.517   5.202  0.4173  0.0066 -0.4665
13888TIP3    H163079   2.346   1.610   5.177  1.0742 -0.1830 -1.0148
13888TIP3    H263080   2.361   1.517   5.295  0.8780  0.3560 -0.5653
13889TIP3   OH263081   0.635   2.680   3.840  0.4207 -0.0006 -0.5795
13889TIP3    H163082   0.568   2.741   3.808  0.8889  0.8921  0.1351
13889TIP3    H263083   0.715   2.707   3.795  0.6683  0.0278 -0.1236
13890TIP3   OH263084   2.874   0.481   3.197 -0.2733  0.6548 -0.2065
13890TIP3    H163085   2.880   0.477   3.101  0.2513  0.3350 -0.1610
13890TIP3    H263086   2.783   0.505   3.214 -0.1320  1.6644 -0.8070
13891TIP3   OH263087   2.523   4.369   0.035 -0.3347 -0.1844  0.3415
13891TIP3    H163088   2.470   4.398   0.109 -1.4164  0.0567 -0.5154
13891TIP3    H263089   2.459   4.351  -0.034  0.6449 -0.6482 -0.4520
13892TIP3   OH263090   0.884   1.458   5.513 -0.0191  0.7359  0.6013
13892TIP3    H163091   0.861   1.437   5.422 -0.2743  0.7486  0.6610
13892TIP3    H263092   0.974   1.489   5.508 -0.0745  0.8595  0.3340
13893TIP3   OH263093   6.730   6.687  14.929  0.1109 -0.6373 -0.8120
13893TIP3    H163094   6.691   6.612  14.975 -0.0789  0.7557  1.3668
13893TIP3    H263095   6.784   6.647  14.861  0.0867 -2.7689  0.3645
13894TIP3   OH263096   6.374   4.549  17.007 -0.7136  0.0394 -0.1368
13894TIP3    H163097   6.302   4.522  17.063 -0.8101 -0.4271 -0.4842
13894TIP3    H263098   6.389   4.475  16.949  0.7513 -0.2819  0.6313
13895TIP3   OH263099   3.021   2.778   3.289  0.1473 -0.0182 -0.3018
13895TIP3    H163100   2.976   2.782   3.373 -1.7501  0.3580 -1.2990
13895TIP3    H263101   3.014   2.867   3.254  0.9252 -0.1710 -0.8598
13896TIP3   OH263102   6.107   4.598   1.367  0.1814  0.0536  0.5436
13896TIP3    H163103   6.188   4.648   1.361  0.5524 -0.7814 -2.1582
13896TIP3    H263104   6.132   4.517   1.412  1.3373 -1.0284 -1.9086
13897TIP3   OH263105   0.011   6.716  15.503 -0.0241  0.2291  0.0848
13897TIP3    H163106   0.011   6.809  15.483 -0.8374  0.2937  0.3714
13897TIP3    H263107   0.077   6.679  15.445 -0.0679  0.9053 -0.4019
13898TIP3   OH263108   3.352   0.000  10.959  0.2209 -0.0880  0.4395
13898TIP3    H163109   3.378   0.085  10.995 -0.6812  0.2509  0.3293
13898TIP3    H263110   3.384  -0.064  11.022  2.3767  0.2097 -0.2989
13899TIP3   OH263111   1.460   2.225  15.863  0.5025  0.0505 -0.0958
13899TIP3    H163112   1.428   2.145  15.905 -1.4307 -0.2738 -2.0562
13899TIP3    H263113   1.406   2.295  15.901  1.8251  0.3880  1.2186
13900TIP3   OH263114   5.620   3.133  11.105 -0.0354  0.0200 -0.2334
13900TIP3    H163115   5.641   3.049  11.063 -4.4908 -0.9337 -0.8126
13900TIP3    H263116   5.592   3.189  11.033  0.5733  1.1977  0.4423
13901TIP3   OH263117   1.854   0.806  15.976 -0.4864  0.1097  0.2466
13901TIP3    H163118   1.775   0.791  15.924 -0.1567  2.4498 -0.9986
13901TIP3    H263119   1.833   0.881  16.031  0.5350  0.1313  0.6168
13902TIP3   OH263120   4.175   2.525  11.681  0.1085 -0.0721 -0.0345
13902TIP3    H163121   4.156   2.493  11.593 -1.6209  1.1613 -0.1306
13902TIP3    H263122   4.149   2.617  11.679  2.4557  0.6620  1.0353
13903TIP3   OH263123   1.214   4.985  13.091 -0.3909 -0.2801 -0.1581
13903TIP3    H163124   1.158   4.918  13.052 -1.2830  0.7532 -0.6804
13903TIP3    H263125   1.174   5.003  13.176 -0.8942  0.4824 -0.5449
13904TIP3   OH263126   3.933   1.037   0.352  0.4196  0.1404 -0.2208
13904TIP3    H163127   3.891   0.966   0.400 -0.6945  0.2362 -1.0201
13904TIP3    H263128   3.917   1.016   0.259  1.4692  0.5893 -0.5060
13905TIP3   OH263129   0.601   3.414   1.793 -0.2469 -0.3998 -0.3769
13905TIP3    H163130   0.644   3.498   1.808 -1.0358  0.1943 -1.3621
13905TIP3    H263131   0.649   3.375   1.720 -1.0247  0.0084 -1.1061
13906TIP3   OH263132   4.137   4.195   0.875 -0.0921 -0.1896 -0.0138
13906TIP3    H163133   4.087   4.257   0.929 -0.5976  0.1130 -0.8126
13906TIP3    H263134   4.208   4.247   0.838  0.6607 -0.5531  0.8807
13907TIP3   OH263135   1.945   1.123  13.369 -0.1766 -0.0071 -0.8565
13907TIP3    H163136   1.866   1.097  13.417  2.1098  0.9591  3.6998
13907TIP3    H263137   1.941   1.219  13.367  1.0456  0.0668 -0.2238
13908TIP3   OH263138   2.909   2.559   3.914  0.5690  0.0794  0.5060
13908TIP3    H163139   2.949   2.642   3.940  2.0957 -0.3018 -0.5868
13908TIP3    H263140   2.983   2.504   3.887 -0.5037 -1.3529  0.4351
13909TIP3   OH263141   1.482   5.830   1.299  0.0185 -0.3384 -0.2584
13909TIP3    H163142   1.548   5.781   1.348  1.3760  1.7537  0.0858
13909TIP3    H263143   1.519   5.841   1.212  0.2590  1.0179 -0.0071
13910TIP3   OH263144   3.064   1.989   2.754  0.4304  0.0151  0.4475
13910TIP3    H163145   3.048   2.016   2.844  1.6312  0.1753  0.6186
13910TIP3    H263146   3.083   1.896   2.759 -0.7532 -0.2471  0.2049
13911TIP3   OH263147   3.565   6.508  14.133  0.0902 -0.7783  0.1212
13911TIP3    H163148   3.572   6.523  14.039 -0.2156 -1.0284  0.0589
13911TIP3    H263149   3.637   6.447  14.153  0.2335 -0.6252  0.0726
13912TIP3   OH263150   0.269   6.022   4.827 -0.0038 -0.4594 -0.1730
13912TIP3    H163151   0.337   5.957   4.814  0.5026 -0.1369  0.7977
13912TIP3    H263152   0.282   6.085   4.757  2.5927  1.1940  1.7110
13913TIP3   OH263153   0.376   2.594  13.706  0.3141  0.5390  0.3136
13913TIP3    H163154   0.408   2.674  13.748  0.8708  0.8504 -0.6855
13913TIP3    H263155   0.412   2.598  13.617 -1.0706  0.0256 -0.2790
13914TIP3   OH263156   4.299   4.001  16.008 -0.7251  0.4436  0.2889
13914TIP3    H163157   4.250   3.997  15.926 -1.0720  1.4435  0.4375
13914TIP3    H263158   4.277   3.919  16.053  0.7054 -0.8277 -1.2833
13915TIP3   OH263159   4.340   1.687  11.539  0.3934 -0.1279 -0.3174
13915TIP3    H163160   4.381   1.645  11.615 -0.5114  0.1978  0.3598
13915TIP3    H263161   4.304   1.614  11.488  0.5417 -0.3091 -0.1663
13916TIP3   OH263162   5.645   2.097   2.259 -0.4072  0.4826  0.4133
13916TIP3    H163163   5.653   2.083   2.164 -0.1262  1.6089  0.2567
13916TIP3    H263164   5.734   2.122   2.286 -0.2313 -0.9530  1.1710
13917TIP3   OH263165   6.708   1.797   1.046  0.2666 -0.5705  0.0304
13917TIP3    H163166   6.642   1.859   1.014  0.2278 -0.5883  0.0746
13917TIP3    H263167   6.711   1.812   1.140 -0.3670 -1.2333  0.1612
13918TIP3   OH263168   2.461   3.995  13.338 -0.1344  0.6638  0.1325
13918TIP3    H163169   2.482   4.088  13.343  0.4828  0.4816  1.3315
13918TIP3    H263170   2.543   3.951  13.363 -1.1597 -0.1325  2.2817
13919TIP3   OH263171   0.014   3.506   5.160  0.1014  0.4773 -0.7868
13919TIP3    H163172   0.072   3.431   5.172  1.9359  1.9949  0.0979
13919TIP3    H263173   0.007   3.546   5.247 -3.1440 -0.2498 -0.6461
13920TIP3   OH263174   6.210   0.968  11.574  0.5479  0.4469 -0.4879
13920TIP3    H163175   6.134   0.934  11.528  0.7307 -0.3678 -0.2023
13920TIP3    H263176   6.267   1.002  11.506  0.4949 -0.0997 -0.8090
13921TIP3   OH263177   6.388   2.177  14.415 -0.0495  0.0205 -0.2430
13921TIP3    H163178   6.293   2.167  14.405 -0.2991  2.5132 -0.6231
13921TIP3    H263179   6.404   2.271  14.406  2.2615 -0.1398  1.6150
13922TIP3   OH263180   6.165   4.170   5.210  0.3920 -0.3890  0.0437
13922TIP3    H163181   6.253   4.136   5.225  0.7775  0.2976 -0.6084
13922TIP3    H263182   6.178   4.242   5.148 -0.6707 -0.5191 -0.3341
13923TIP3   OH263183   3.894   4.195   2.062  0.1895 -0.1939 -0.0164
13923TIP3    H163184   3.880   4.211   1.968  0.0128  0.7979  0.1760
13923TIP3    H263185   3.892   4.100   2.070 -1.1951 -0.2555 -0.8201
13924TIP3   OH263186   6.668   1.286   1.118  0.3872 -0.1488  0.6198
13924TIP3    H163187   6.667   1.377   1.090  1.0736  0.7440  3.4154
13924TIP3    H263188   6.596   1.245   1.069  0.3288  1.7769 -0.9385
13925TIP3   OH263189   1.482   0.756  16.122 -0.6237 -0.1861  0.5762
13925TIP3    H163190   1.434   0.838  16.135  0.3204  0.3133  0.9733
13925TIP3    H263191   1.509   0.758  16.030  1.4341  1.0912  1.1581
13926TIP3   OH263192   1.738   0.148  11.776  0.3907  0.2485  0.0247
13926TIP3    H163193   1.741   0.244  11.776  2.1582  0.2008  0.0872
13926TIP3    H263194   1.738   0.125  11.683  0.3633  0.2906  0.0138
13927TIP3   OH263195   2.596   5.027  11.833  0.0291 -0.6837  0.3023
13927TIP3    H163196   2.580   4.942  11.873  1.3398 -0.9424  0.2905
13927TIP3    H263197   2.639   5.008  11.750 -0.4858 -0.0430 -0.1199
13928TIP3   OH263198   0.415   5.698   2.627 -0.3413  0.0576  0.2457
13928TIP3    H163199   0.416   5.754   2.550 -1.2749  0.4476  0.5145
13928TIP3    H263200   0.325   5.665   2.633 -0.6761  1.2185  2.0035
13929TIP3   OH263201   2.129   3.752  10.223  0.0559  0.2169  0.4524
13929TIP3    H163202   2.151   3.660  10.211 -0.1836  0.0709  1.1031
13929TIP3    H263203   2.042   3.762  10.186  0.9085  0.6420 -1.4974
13930TIP3   OH263204   6.050   0.110   2.792  0.0719  0.2784  0.4197
13930TIP3    H163205   6.005   0.037   2.835  0.7783 -0.5920 -0.2786
13930TIP3    H263206   6.143   0.091   2.805  0.2561  1.7542  1.3607
13931TIP3   OH263207   5.787   5.692  13.866 -0.5602  0.1181  0.0611
13931TIP3    H163208   5.773   5.784  13.846 -0.5885 -0.3235 -2.0934
13931TIP3    H263209   5.772   5.685  13.960  1.1666  2.6207  0.5758
13932TIP3   OH263210   2.978   4.541   5.384  0.0464 -0.3838  0.1882
13932TIP3    H163211   2.972   4.633   5.359 -1.4062 -0.9710 -1.7402
13932TIP3    H263212   2.925   4.534   5.464 -0.2383  0.3453  0.0669
13933TIP3   OH263213   4.361   6.453  12.033 -0.1499  1.0684 -0.4411
13933TIP3    H163214   4.275   6.411  12.037 -0.0624  0.7706 -1.6082
13933TIP3    H263215   4.368   6.502  12.115  0.3022 -2.2605  1.6111
13934TIP3   OH263216   4.873   2.396   3.936 -0.8351  0.3966 -0.1293
13934TIP3    H163217   4.852   2.368   3.847  0.9182 -0.0177 -0.4471
13934TIP3    H263218   4.969   2.387   3.941 -0.6936  2.3889  1.1212
13935TIP3   OH263219   4.709   0.345   3.663  0.2502 -0.4113  0.1073
13935TIP3    H163220   4.634   0.350   3.722 -0.8016 -0.8131 -1.1713
13935TIP3    H263221   4.674   0.306   3.583  2.0365 -1.4561 -0.1797
13936TIP3   OH263222   1.549   1.030  16.412  0.3320  0.0347 -0.4927
13936TIP3    H163223   1.496   0.995  16.484  0.0843  1.6522  0.1281
13936TIP3    H263224   1.638   1.033  16.447  0.7278 -2.0149 -1.2912
13937TIP3   OH263225   4.433   0.648  11.822  0.1000  0.2085 -0.0775
13937TIP3    H163226   4.524   0.678  11.826 -0.0561  0.5564  1.1408
13937TIP3    H263227   4.428   0.598  11.741  1.0388  1.3101 -0.8320
13938TIP3   OH263228   4.938   4.693  15.850 -0.3687  0.1158  0.3034
13938TIP3    H163229   4.985   4.646  15.919 -0.4247 -0.2896  0.0668
13938TIP3    H263230   4.889   4.625  15.804 -1.0030  0.4955  0.3957
13939TIP3   OH263231   0.158   1.928   1.268 -0.2873  0.4635  0.3021
13939TIP3    H163232   0.155   1.859   1.334  0.1332  0.5669  0.4320
13939TIP3    H263233   0.091   1.991   1.295  1.4839  1.6992  1.9590
13940TIP3   OH263234   1.660   5.285   1.156  0.1782  0.0965  0.3261
13940TIP3    H163235   1.689   5.195   1.168  0.6937  0.0948 -0.8885
13940TIP3    H263236   1.571   5.287   1.193 -1.2578 -1.8095 -2.7944
13941TIP3   OH263237   6.437   1.905  15.742  0.5559 -0.1175 -0.4561
13941TIP3    H163238   6.392   1.989  15.751 -0.9823 -0.9896  0.2324
13941TIP3    H263239   6.530   1.926  15.753  0.3244  1.7116 -1.8746
13942TIP3   OH263240   4.064   3.510  14.812  0.1159 -0.8112 -0.4412
13942TIP3    H163241   4.149   3.510  14.855 -0.2097 -0.4009  0.2161
13942TIP3    H263242   4.021   3.589  14.845 -0.2154 -0.5947 -1.3738
13943TIP3   OH263243   1.159   0.079   2.093  0.2480 -0.4575 -0.7747
13943TIP3    H163244   1.224   0.039   2.150  0.7402 -1.4518 -2.0141
13943TIP3    H263245   1.193   0.166   2.075  0.8211 -0.6676 -0.7273
13944TIP3   OH263246   0.228   5.424   0.083  0.1698  0.2574  0.5527
13944TIP3    H163247   0.220   5.511   0.123 -1.1310  0.0538  0.7714
13944TIP3    H263248   0.186   5.434  -0.003  0.0205 -0.1489  0.5755
13945TIP3   OH263249   3.502   5.881  13.590 -0.3159 -0.0596  0.5815
13945TIP3    H163250   3.560   5.884  13.514  0.2813  1.5016  1.0748
13945TIP3    H263251   3.434   5.946  13.571  0.1368  0.7192  1.6074
13946TIP3   OH263252   5.834   0.079  13.902  0.0622 -0.0443  0.5355
13946TIP3    H163253   5.900   0.017  13.930  0.1035  0.6004  1.9013
13946TIP3    H263254   5.839   0.078  13.806  1.1039 -0.9943  0.5920
13947TIP3   OH263255   2.591   4.557   3.633  0.5670 -0.3312 -0.3590
13947TIP3    H163256   2.505   4.517   3.614  1.4306 -2.4638  0.0552
13947TIP3    H263257   2.641   4.545   3.553  0.8043  0.0398 -0.2675
13948TIP3   OH263258   5.756   0.945   3.578 -0.3025  0.8736 -0.6900
13948TIP3    H163259   5.814   0.955   3.502 -0.7106  2.3205 -0.8189
13948TIP3    H263260   5.668   0.962   3.543 -0.4689  1.7218  0.1576
13949TIP3   OH263261   2.760   1.665  15.782 -0.0699 -0.4971 -0.1438
13949TIP3    H163262   2.824   1.652  15.851  0.2739 -0.2421 -0.4120
13949TIP3    H263263   2.809   1.708  15.711 -0.9527  1.4574  0.3829
13950TIP3   OH263264   2.714   2.262  11.381  0.3726 -0.6401  0.9935
13950TIP3    H163265   2.631   2.304  11.400 -0.0428 -1.1689  0.3411
13950TIP3    H263266   2.697   2.169  11.392  1.2787 -0.6577  2.3891
13951TIP3   OH263267   3.665   3.015  10.236  0.5010 -0.0534  0.1135
13951TIP3    H163268   3.725   3.089  10.245  1.7564 -1.2168  1.5027
13951TIP3    H263269   3.702   2.947  10.292  0.4547 -2.4405 -2.6642
13952TIP3   OH263270   1.286   3.386  11.434 -0.5525  0.0707 -0.0648
13952TIP3    H163271   1.344   3.438  11.378  0.1310 -0.6422 -0.0267
13952TIP3    H263272   1.251   3.449  11.497 -2.0261  1.0624 -1.8294
13953TIP3   OH263273   4.884   5.105   5.199 -0.2858  0.0335 -0.3518
13953TIP3    H163274   4.894   5.065   5.113  0.4035 -0.4547 -0.0432
13953TIP3    H263275   4.846   5.036   5.253  1.6579 -0.4723  0.3861
13954TIP3   OH263276   0.632   0.934  16.958 -0.0098  0.2038  0.4621
13954TIP3    H163277   0.570   0.976  17.018  1.2488 -0.6842  2.4386
13954TIP3    H263278   0.691   0.885  17.015  0.5484 -1.5925 -1.5927
13955TIP3   OH263279   4.068   2.205  12.403 -0.2337  0.6600  0.5903
13955TIP3    H163280   4.039   2.296  12.404  1.5268  1.2608 -0.4208
13955TIP3    H263281   4.152   2.207  12.357  0.3314 -1.3210  1.4656
13956TIP3   OH263282   4.632   5.838  11.758  0.0860  0.3014  0.4840
13956TIP3    H163283   4.695   5.849  11.830  0.6579 -0.7566  0.1633
13956TIP3    H263284   4.645   5.747  11.729 -0.9183  0.3764 -0.2225
13957TIP3   OH263285   6.480   6.203   5.165 -0.7125  0.2530 -0.3816
13957TIP3    H163286   6.467   6.294   5.192  1.7327  0.9997 -1.5057
13957TIP3    H263287   6.462   6.203   5.071 -1.7323 -0.6681 -0.1963
13958TIP3   OH263288   4.194   6.499   5.806 -0.0750 -0.2259 -0.7084
13958TIP3    H163289   4.177   6.413   5.768  0.8160 -0.5389 -0.4257
13958TIP3    H263290   4.178   6.487   5.900  0.8584 -0.3097 -0.5549
13959TIP3   OH263291   2.823   1.897   2.248 -0.1602  0.0307  0.2373
13959TIP3    H163292   2.878   1.954   2.195  0.7341  1.2746  2.4553
13959TIP3    H263293   2.854   1.908   2.338 -2.5546 -0.9512  1.2612
13960TIP3   OH263294   5.662   6.172   0.358  0.3413 -0.6222 -0.1174
13960TIP3    H163295   5.593   6.130   0.306 -1.1848 -0.6524  1.8870
13960TIP3    H263296   5.738   6.115   0.347 -0.6259 -1.8791 -0.4434
13961TIP3   OH263297   0.736   4.647   5.106 -0.3522  0.2763 -0.8769
13961TIP3    H163298   0.696   4.708   5.044  2.0569  2.1728 -0.6269
13961TIP3    H263299   0.812   4.611   5.060  0.3927  0.2957  0.3075
13962TIP3   OH263300   5.216   3.739   6.192  0.2129  0.5454  0.4966
13962TIP3    H163301   5.259   3.663   6.232  0.3471  0.3803  0.0448
13962TIP3    H263302   5.261   3.814   6.229 -1.3856  0.4870  2.6567
13963TIP3   OH263303   1.140   0.312   6.019 -0.6980  0.2896  0.3422
13963TIP3    H163304   1.185   0.243   5.970  1.5735 -0.2207  3.0185
13963TIP3    H263305   1.066   0.268   6.060 -1.1453  0.1711 -0.5811
13964TIP3   OH263306   4.368   6.552   0.434 -0.0988  0.0418  0.7436
13964TIP3    H163307   4.373   6.494   0.510 -0.4782  0.2673  0.9428
13964TIP3    H263308   4.395   6.497   0.361 -1.3023 -0.6553  0.7976
13965TIP3   OH263309   0.088   3.539  15.755 -0.2116  0.0495  0.0581
13965TIP3    H163310   0.048   3.482  15.690 -0.1995  1.2690 -1.0543
13965TIP3    H263311   0.027   3.612  15.763  0.2892  0.4061  0.6499
13966TIP3   OH263312   2.259   4.256  11.824 -0.2064  0.0368  0.6540
13966TIP3    H163313   2.216   4.298  11.898  1.8320 -0.7636  2.3312
13966TIP3    H263314   2.348   4.237  11.854  0.7781 -0.0513 -2.0816
13967TIP3   OH263315   1.649   4.352  16.191  0.0988  0.1967  0.2237
13967TIP3    H163316   1.612   4.370  16.277 -0.9109  1.3599 -0.4382
13967TIP3    H263317   1.665   4.439  16.154 -1.3769 -0.2819 -1.5746
13968TIP3   OH263318   1.257   2.260  15.647 -0.2784 -0.0755 -0.0207
13968TIP3    H163319   1.261   2.170  15.615  0.3343  0.4343 -1.4387
13968TIP3    H263320   1.319   2.263  15.720  1.7434 -0.1813 -1.6508
13969TIP3   OH263321   6.412   4.125  11.740  0.0370 -0.1026 -0.6593
13969TIP3    H163322   6.437   4.210  11.778 -0.5156 -0.7517  1.2410
13969TIP3    H263323   6.318   4.132  11.724 -0.2484 -0.7725  0.6709
13970TIP3   OH263324   0.204   0.022   0.810 -0.5673  0.1717  0.1494
13970TIP3    H163325   0.129   0.064   0.770 -0.7913  1.6988  2.0732
13970TIP3    H263326   0.265   0.094   0.829 -0.3435 -0.5187  2.1946
13971TIP3   OH263327   4.239   1.139  13.086 -0.1533 -0.1748 -0.0283
13971TIP3    H163328   4.322   1.152  13.040 -0.0699  0.1137  0.2080
13971TIP3    H263329   4.243   1.198  13.161 -0.0027 -1.1458  0.7372
13972TIP3   OH263330   4.832   6.325  14.920 -0.3952 -0.0352 -1.1720
13972TIP3    H163331   4.847   6.417  14.937 -0.8266  0.0436 -1.2121
13972TIP3    H263332   4.918   6.284  14.931 -0.7006 -0.0377  1.4583
13973TIP3   OH263333   5.851   4.697   6.696  0.2628 -0.4305  0.2652
13973TIP3    H163334   5.757   4.688   6.680  0.3209 -0.0924 -0.3071
13973TIP3    H263335   5.857   4.746   6.778 -0.0661 -0.2294  0.1715
13974TIP3   OH263336   5.263   6.033  15.792  0.7913 -0.1396 -0.2966
13974TIP3    H163337   5.242   6.001  15.880 -2.1026 -0.7848 -1.1544
13974TIP3    H263338   5.275   5.954  15.740 -0.2569  0.2044 -1.0768
13975TIP3   OH263339   6.598   4.177  11.072  0.9205 -0.2471  0.0187
13975TIP3    H163340   6.590   4.265  11.110 -0.6185 -0.6046  0.5562
13975TIP3    H263341   6.624   4.193  10.981 -2.3773  0.9300 -0.7895
13976TIP3   OH263342   4.748   6.446  11.782  0.0238 -0.1306  0.5367
13976TIP3    H163343   4.711   6.533  11.767  0.0088 -0.3360 -0.6481
13976TIP3    H263344   4.675   6.395  11.817 -0.4174 -0.1075 -0.3261
13977TIP3   OH263345   4.669   4.541   0.853  0.0344 -0.0713  0.5923
13977TIP3    H163346   4.744   4.575   0.901  0.5486  0.1101 -0.3215
13977TIP3    H263347   4.594   4.590   0.887  0.6187  1.2319  0.0318
13978TIP3   OH263348   2.041   0.113   6.704  0.3723 -0.4640 -0.4611
13978TIP3    H163349   2.030   0.149   6.792  2.1084 -0.4494 -0.2460
13978TIP3    H263350   1.961   0.139   6.658 -0.1199  0.3501  0.8301
13979TIP3   OH263351   6.030   2.106   3.806 -0.0357 -0.6437  0.3529
13979TIP3    H163352   5.959   2.062   3.853 -0.3468 -0.0951  0.4005
13979TIP3    H263353   6.053   2.181   3.861 -1.5736  1.0104 -1.1630
13980TIP3   OH263354   4.705   3.432   2.413  0.5419  0.0393  0.4020
13980TIP3    H163355   4.775   3.493   2.440  1.2979 -0.4949 -0.3178
13980TIP3    H263356   4.669   3.400   2.495 -0.4182  2.0799  0.8042
13981TIP3   OH263357   3.414   4.109  14.988 -0.5163 -0.2447  0.0547
13981TIP3    H163358   3.411   4.068  14.902 -1.2818 -0.0669 -0.0082
13981TIP3    H263359   3.328   4.090  15.027 -0.5872  0.6047  0.3357
13982TIP3   OH263360   0.491   2.528  14.443 -0.2156 -0.2569 -0.3625
13982TIP3    H163361   0.425   2.576  14.392 -0.6966 -0.3234  0.1978
13982TIP3    H263362   0.522   2.591  14.507  0.7938 -0.0041 -1.0964
13983TIP3   OH263363   3.653   5.253  15.515  0.0132  0.1333  0.2726
13983TIP3    H163364   3.684   5.300  15.437 -2.1549 -0.2901 -0.8954
13983TIP3    H263365   3.623   5.322  15.574  1.4134  0.4464  0.6213
13984TIP3   OH263366   1.543   4.391   4.271  0.6111 -0.2956 -0.0358
13984TIP3    H163367   1.449   4.373   4.264  0.6783 -1.1352  1.0460
13984TIP3    H263368   1.573   4.401   4.181 -0.4650 -0.2900 -0.4003
13985TIP3   OH263369   1.930   0.956   3.870 -0.3831  0.1692  0.1337
13985TIP3    H163370   1.881   0.880   3.902  0.5504 -0.2998  0.4691
13985TIP3    H263371   2.017   0.922   3.851 -0.2056  0.9843 -0.5302
13986TIP3   OH263372   1.471   5.863  11.600 -0.7114  1.1388  0.3104
13986TIP3    H163373   1.442   5.774  11.582  0.5454  0.8966 -0.5836
13986TIP3    H263374   1.483   5.867  11.695 -2.2777  0.8365  0.5378
13987TIP3   OH263375   3.060   3.174   1.215 -0.2851  0.6150  0.8411
13987TIP3    H163376   3.084   3.219   1.296  0.6496  1.8927 -0.1237
13987TIP3    H263377   3.046   3.244   1.152 -0.5801 -0.3848 -0.2245
13988TIP3   OH263378   6.682   0.892  12.468  0.1088  0.6921 -0.0045
13988TIP3    H163379   6.649   0.805  12.445  0.0501  0.7671 -0.2059
13988TIP3    H263380   6.747   0.911  12.401  0.6934  0.4697  0.4891
13989TIP3   OH263381   3.851   0.743  12.973 -0.3144  0.4770 -0.2270
13989TIP3    H163382   3.943   0.767  12.978  0.3728 -1.7956 -1.5595
13989TIP3    H263383   3.836   0.724  12.881 -1.9135  0.0090  0.1159
13990TIP3   OH263384   3.604   3.654   4.640 -0.0907  0.4087  0.2858
13990TIP3    H163385   3.611   3.654   4.544 -1.7178  0.9944  0.1519
13990TIP3    H263386   3.574   3.566   4.661  0.1914  0.3034  0.2478
13991TIP3   OH263387   3.437   3.184   4.901  0.4103 -0.0970 -0.0507
13991TIP3    H163388   3.518   3.164   4.948  1.9194  1.8641 -1.7459
13991TIP3    H263389   3.416   3.103   4.855  0.3698 -1.1958  1.8253
13992TIP3   OH263390   4.864   6.624  16.768 -0.8173 -0.2349 -0.3485
13992TIP3    H163391   4.891   6.549  16.822 -0.7031  1.0573  1.4330
13992TIP3    H263392   4.935   6.687  16.778 -1.1239  0.2967 -1.4877
13993TIP3   OH263393   6.572   6.126  12.466 -0.2208  0.4168 -0.1538
13993TIP3    H163394   6.559   6.064  12.395  0.8593 -2.3807  1.9958
13993TIP3    H263395   6.642   6.184  12.434 -0.0089 -0.5621 -1.5256
13994TIP3   OH263396   3.777   3.273   2.152  0.5229  0.0732 -0.1716
13994TIP3    H163397   3.852   3.311   2.198 -0.0763  0.2409  0.6869
13994TIP3    H263398   3.738   3.346   2.105  0.2797  0.2025  0.2310
13995TIP3   OH263399   3.591   2.606  13.288 -0.4033 -0.1311 -0.3594
13995TIP3    H163400   3.668   2.575  13.335 -1.4952 -1.4647  0.6100
13995TIP3    H263401   3.561   2.530  13.238 -1.6817  0.0498  0.0981
13996TIP3   OH263402   3.972   0.463  10.985  0.2301  0.4561  0.2893
13996TIP3    H163403   3.970   0.452  10.890  0.0331 -1.0911  0.4633
13996TIP3    H263404   4.003   0.552  10.998  0.4367  0.6143 -1.2299
13997TIP3   OH263405   1.094   4.871  11.784  0.6054 -0.3827  0.2682
13997TIP3    H163406   1.015   4.823  11.759 -0.3964  0.7192  1.2390
13997TIP3    H263407   1.062   4.954  11.817  2.3136  0.8826 -1.1714
13998TIP3   OH263408   5.700   0.406   4.517  0.1154  0.6930 -0.4528
13998TIP3    H163409   5.652   0.358   4.585  0.6400  0.9378  0.0923
13998TIP3    H263410   5.789   0.373   4.523  0.3513  1.3168 -0.4553
13999TIP3   OH263411   4.728   2.452  12.845  0.4244  0.6210  0.0340
13999TIP3    H163412   4.681   2.460  12.762  1.4489  0.3527 -0.5806
13999TIP3    H263413   4.808   2.504  12.833  0.1239  1.3728  1.1949
14000TIP3   OH263414   4.016   3.041  16.569  0.0115 -0.0628 -0.1594
14000TIP3    H163415   4.096   3.035  16.621 -0.4758 -0.4179  0.5628
14000TIP3    H263416   3.952   2.988  16.617 -1.0977  1.4857  0.0864
14001TIP3   OH263417   1.484   4.256  11.096  0.6209  0.5794  0.2988
14001TIP3    H163418   1.479   4.319  11.025 -0.3689  0.7869  0.5449
14001TIP3    H263419   1.407   4.200  11.085  0.2126  0.8998  1.4736
14002TIP3   OH263420   5.112   1.575   1.688  0.5480  0.5006 -0.1608
14002TIP3    H163421   5.152   1.574   1.775 -0.2221 -1.4612  0.1905
14002TIP3    H263422   5.161   1.511   1.638  0.1858  0.7262 -0.8143
14003TIP3   OH263423   5.421   2.363  10.809 -0.5866 -0.1692  0.1542
14003TIP3    H163424   5.379   2.387  10.727  0.2169 -0.3710 -0.3183
14003TIP3    H263425   5.505   2.323  10.783 -0.5060 -0.5961  1.0485
14004TIP3   OH263426   4.020   4.180  10.781 -0.1631 -0.2569 -0.2283
14004TIP3    H163427   3.941   4.225  10.809  0.2094  0.0180  0.3945
14004TIP3    H263428   4.092   4.234  10.816  0.3105  0.0472 -1.6299
14005TIP3   OH263429   2.996   5.809  13.403 -0.5526  0.0923  0.9297
14005TIP3    H163430   2.918   5.811  13.347 -0.0123  0.4933  0.1786
14005TIP3    H263431   3.018   5.716  13.410  2.2587  0.2504 -3.6337
14006TIP3   OH263432   2.939   3.983  13.379  0.2512  0.2496 -0.2410
14006TIP3    H163433   3.023   3.968  13.423  0.6041  1.3557 -0.5199
14006TIP3    H263434   2.958   4.051  13.315 -0.9607  0.7741 -0.0436
14007TIP3   OH263435   5.655   4.650  11.876  0.0310 -0.0504  0.4285
14007TIP3    H163436   5.620   4.575  11.827 -0.9345  0.5861  0.1274
14007TIP3    H263437   5.597   4.659  11.951 -0.6791  1.2313 -0.2561
14008TIP3   OH263438   2.131   0.171   5.093 -0.3368  0.0378 -0.0665
14008TIP3    H163439   2.203   0.190   5.153  1.0380  1.9906 -2.2544
14008TIP3    H263440   2.064   0.235   5.115  0.5987  1.4727 -1.2652
14009TIP3   OH263441   3.212   6.560  14.912  0.1630  0.3151 -0.2391
14009TIP3    H163442   3.218   6.465  14.904  1.3699  0.5381 -2.5577
14009TIP3    H263443   3.139   6.575  14.972  0.7249 -2.0802  1.0926
14010TIP3   OH263444   0.242   5.653  13.225 -0.0238 -0.0093  0.7115
14010TIP3    H163445   0.257   5.713  13.298 -0.7855  1.1602 -0.0644
14010TIP3    H263446   0.300   5.685  13.156 -0.2752 -0.2866  0.3695
14011TIP3   OH263447   0.391   1.616   1.058 -0.0693 -0.4595  0.8923
14011TIP3    H163448   0.470   1.658   1.090 -0.3375  0.4943  0.3121
14011TIP3    H263449   0.330   1.688   1.040 -0.3636 -1.0474 -0.5488
14012TIP3   OH263450   1.214   5.297  16.683  0.1142  0.3099  0.4560
14012TIP3    H163451   1.181   5.378  16.720  2.1864  1.2967  0.2194
14012TIP3    H263452   1.239   5.319  16.594 -0.3354 -0.8660  0.0252
14013TIP3   OH263453   1.530   2.540   2.857 -0.7298 -0.1849 -0.0173
14013TIP3    H163454   1.553   2.623   2.815 -0.2415 -1.3492 -2.1314
14013TIP3    H263455   1.437   2.529   2.838 -0.4404 -0.8550 -1.0400
14014TIP3   OH263456   6.533   3.146   5.103  0.0504 -0.9415 -0.5549
14014TIP3    H163457   6.455   3.163   5.050 -0.3629 -1.1695 -0.0230
14014TIP3    H263458   6.510   3.070   5.157  1.1254 -1.8493 -1.3609
14015TIP3   OH263459   1.328   3.424   4.448  0.0922 -0.5864  0.2398
14015TIP3    H163460   1.397   3.372   4.407  0.8223 -0.0318  0.7523
14015TIP3    H263461   1.337   3.407   4.542  2.5143  3.0264  0.7319
14016TIP3   OH263462   5.683   1.705  12.370 -0.0950 -0.0636 -0.2734
14016TIP3    H163463   5.601   1.754  12.370 -0.0351  0.0339 -0.4124
14016TIP3    H263464   5.657   1.616  12.395 -0.0497  0.3113  1.1997
14017TIP3   OH263465   2.921   6.386   2.249  0.2931  0.2215 -0.4834
14017TIP3    H163466   3.002   6.387   2.197  1.8040  0.8862  1.8247
14017TIP3    H263467   2.923   6.301   2.293 -0.0266  0.4536 -0.0341
14018TIP3   OH263468   1.146   5.410   1.520  1.0025 -0.1769  0.5284
14018TIP3    H163469   1.240   5.407   1.534  1.1578  0.0151 -0.4798
14018TIP3    H263470   1.120   5.318   1.516  1.0606 -0.2340  1.3384
14019TIP3   OH263471   0.307   3.401  16.718  0.3369 -0.4375  0.3626
14019TIP3    H163472   0.391   3.381  16.759  1.3790  0.7847 -1.1308
14019TIP3    H263473   0.298   3.496  16.727 -1.0693 -0.6051  0.8404
14020TIP3   OH263474   0.572   5.498   0.081  0.6272 -0.4609  0.1894
14020TIP3    H163475   0.644   5.449   0.123  0.0643 -2.0589 -0.6721
14020TIP3    H263476   0.508   5.431   0.059 -0.6415  0.8250 -0.0800
14021TIP3   OH263477   0.548   5.330  14.622 -0.3258 -0.1948 -0.2051
14021TIP3    H163478   0.528   5.388  14.696  0.5375  0.6428 -0.6121
14021TIP3    H263479   0.577   5.390  14.552 -3.5718 -0.7460 -2.0891
14022TIP3   OH263480   5.101   3.103   1.322 -0.3323  0.0175  0.8050
14022TIP3    H163481   5.191   3.073   1.323  0.2626  1.6352 -0.4663
14022TIP3    H263482   5.053   3.035   1.275  0.3565 -0.5174  0.8768
14023TIP3   OH263483   2.246   2.497  13.326  0.0396  0.0886  0.2669
14023TIP3    H163484   2.187   2.471  13.255  1.6542 -0.3231 -0.9634
14023TIP3    H263485   2.238   2.427  13.391  1.3746 -1.4817 -1.2266
14024TIP3   OH263486   0.125   6.300   0.277 -0.3459 -0.2204  0.4841
14024TIP3    H163487   0.039   6.297   0.235 -0.8813  1.8265  1.3711
14024TIP3    H263488   0.168   6.377   0.239  0.0920  0.2431  1.8740
14025TIP3   OH263489   6.442   2.286  16.626 -0.0765 -0.1695 -0.3099
14025TIP3    H163490   6.360   2.251  16.590 -0.4750 -0.6319  1.0129
14025TIP3    H263491   6.487   2.209  16.661  0.3713  0.2570  0.0486
14026TIP3   OH263492   4.062   4.276   4.957 -0.3165  0.8678 -1.0546
14026TIP3    H163493   3.991   4.264   4.893 -0.5182 -1.7605 -0.4171
14026TIP3    H263494   4.019   4.264   5.042  0.2139  2.9463 -0.4853
14027TIP3   OH263495   0.861   5.721   4.377 -0.2568  0.5231 -0.0348
14027TIP3    H163496   0.867   5.796   4.437 -1.1068  1.0322 -0.5755
14027TIP3    H263497   0.910   5.748   4.300  0.4398  0.0531  0.2432
14028TIP3   OH263498   0.304   6.706   6.198  0.2573  0.1690 -0.4728
14028TIP3    H163499   0.221   6.674   6.234  2.3546 -1.7965  2.8698
14028TIP3    H263500   0.305   6.799   6.221  0.5203 -0.5596  2.6334
14029TIP3   OH263501   3.226   3.107  10.032  0.5063 -0.1628 -0.7707
14029TIP3    H163502   3.269   3.055  10.100  0.7526 -0.7525 -1.3681
14029TIP3    H263503   3.294   3.121   9.967  0.6800  1.6495 -0.2153
14030TIP3   OH263504   4.827   5.233   4.566 -0.0084  0.3640  0.2801
14030TIP3    H163505   4.836   5.159   4.507  0.3044  2.6027 -2.6229
14030TIP3    H263506   4.738   5.265   4.551  0.2482  1.2684  0.6006
14031TIP3   OH263507   5.386   3.080  17.153  0.1975 -0.3094 -0.4990
14031TIP3    H163508   5.414   3.099  17.243 -0.7471  0.0233 -0.2712
14031TIP3    H263509   5.441   3.006  17.126 -0.0707 -0.9482  0.6536
14032TIP3   OH263510   0.307   2.408   5.163 -0.0496  0.0420  0.1780
14032TIP3    H163511   0.289   2.331   5.109  0.3765 -0.6093  0.9621
14032TIP3    H263512   0.349   2.470   5.103 -1.5483  0.1591 -0.7669
14033TIP3   OH263513   5.821   3.595  11.387  0.1130 -0.1730  0.2380
14033TIP3    H163514   5.788   3.507  11.406 -1.4751  0.1108 -1.0998
14033TIP3    H263515   5.905   3.581  11.345 -1.8527 -1.2430 -3.5203
14034TIP3   OH263516   2.136   3.601  14.243  0.3265  0.1008  0.5310
14034TIP3    H163517   2.080   3.566  14.311 -1.3776 -0.8312 -1.2998
14034TIP3    H263518   2.208   3.538  14.236 -0.6693 -0.9876 -0.0515
14035TIP3   OH263519   4.364   2.472   3.128 -0.0642  0.2507  0.0166
14035TIP3    H163520   4.421   2.537   3.086  1.3156  0.1704  1.7300
14035TIP3    H263521   4.314   2.434   3.055  2.5950 -0.2074 -1.6271
14036TIP3   OH263522   3.447   3.901  16.857 -0.6096 -0.4594 -0.4466
14036TIP3    H163523   3.413   3.830  16.803 -2.2359 -0.5180  0.5859
14036TIP3    H263524   3.502   3.857  16.922  0.6933 -0.4664 -1.5326
14037TIP3   OH263525   6.545   1.267  14.200  0.3827  0.0664  0.2532
14037TIP3    H163526   6.548   1.272  14.105  0.9731  1.6195  0.3362
14037TIP3    H263527   6.452   1.260  14.221  0.1267  1.4047 -0.3804
14038TIP3   OH263528   2.551   2.616   2.554  0.0371 -0.2617  0.3851
14038TIP3    H163529   2.531   2.685   2.618 -0.1353 -0.1703  0.2351
14038TIP3    H263530   2.629   2.573   2.588  1.5210  1.5082 -0.7122
14039TIP3   OH263531   5.578   2.474  12.391  0.6312 -0.3815  0.3233
14039TIP3    H163532   5.576   2.568  12.372  0.0742 -0.4903 -0.1713
14039TIP3    H263533   5.590   2.432  12.306 -1.2880 -0.8430  0.2394
14040TIP3   OH263534   0.637   4.281   2.477 -0.7752  0.0677  0.2165
14040TIP3    H163535   0.635   4.312   2.567 -0.7981 -0.4289  0.3880
14040TIP3    H263536   0.548   4.296   2.444 -0.7590  0.2731  0.2663
14041TIP3   OH263537   0.641   0.298   2.351 -0.5272  0.2297 -0.8356
14041TIP3    H163538   0.701   0.231   2.384  1.6180  1.8458 -1.3378
14041TIP3    H263539   0.596   0.256   2.278 -0.4802 -1.2005 -0.0735
14042TIP3   OH263540   0.176   2.517   6.030  0.2111 -0.7245  0.1264
14042TIP3    H163541   0.151   2.567   6.107  1.1331  0.4695 -0.3395
14042TIP3    H263542   0.209   2.434   6.065 -0.1615 -0.5206  0.9692
14043TIP3   OH263543   1.422   0.465  17.230  0.0027 -0.6606 -0.2416
14043TIP3    H163544   1.424   0.388  17.286  1.1144 -0.9744 -0.7173
14043TIP3    H263545   1.332   0.497  17.237  0.0329 -0.8994  1.4456
14044TIP3   OH263546   6.207   6.204  10.598  0.3530 -0.6556  0.2252
14044TIP3    H163547   6.256   6.123  10.583 -1.8190 -1.7129 -1.3968
14044TIP3    H263548   6.253   6.269  10.546  0.2261 -1.5739 -1.0711
14045TIP3   OH263549   1.410   0.671  16.841  0.0102  0.0837  0.0004
14045TIP3    H163550   1.506   0.673  16.841  0.0034  0.7551  0.2239
14045TIP3    H263551   1.385   0.761  16.864 -0.7058  0.6782 -2.9575
14046TIP3   OH263552   5.910   0.918  10.715  0.0516 -0.1530  0.4210
14046TIP3    H163553   5.910   0.957  10.802  0.3258  0.0713  0.3203
14046TIP3    H263554   5.925   0.992  10.655  0.3729 -0.3846  0.2170
14047TIP3   OH263555   2.580   2.677   4.511 -0.3370  0.5677  0.0516
14047TIP3    H163556   2.590   2.699   4.603 -0.7771  2.3393 -0.2965
14047TIP3    H263557   2.586   2.582   4.508  0.5647  0.5540  1.7887
14048TIP3   OH263558   0.881   4.496  11.318 -0.0935  0.3163 -0.0497
14048TIP3    H163559   0.803   4.491  11.373 -0.6146  1.0081 -0.7198
14048TIP3    H263560   0.849   4.480  11.229  0.8225 -1.3261 -0.1011
14049TIP3   OH263561   4.331   1.049   0.842  1.0246 -0.0964 -0.2216
14049TIP3    H163562   4.267   1.068   0.773  1.1844 -1.7076 -0.8285
14049TIP3    H263563   4.410   1.095   0.814  0.9556 -0.3813 -0.8905
14050TIP3   OH263564   0.724   2.977   2.640  0.5537 -0.2514 -0.4046
14050TIP3    H163565   0.645   2.924   2.630  0.0739  0.6034 -1.1551
14050TIP3    H263566   0.789   2.916   2.675 -0.3915 -0.9977  0.0793
14051TIP3   OH263567   4.269   6.524   2.213 -0.0482  0.2402 -0.3886
14051TIP3    H163568   4.245   6.578   2.137  0.4153  0.3585 -0.4564
14051TIP3    H263569   4.191   6.523   2.268  0.9338  3.5943  1.1463
14052TIP3   OH263570   3.819   1.115  16.201 -0.5669  0.4727  0.5399
14052TIP3    H163571   3.774   1.193  16.168  0.8791 -0.0184 -2.8637
14052TIP3    H263572   3.909   1.126  16.171 -0.0344 -1.8414  1.2114
14053TIP3   OH263573   0.954   0.924  16.514  0.3139 -0.0807 -0.1571
14053TIP3    H163574   1.014   0.980  16.564  0.8600  0.6761 -1.6270
14053TIP3    H263575   0.994   0.918  16.427 -0.9103 -0.9166 -0.6693
14054TIP3   OH263576   5.089   1.656  14.573 -0.0300  0.6510 -0.6030
14054TIP3    H163577   5.015   1.613  14.530  0.5343  0.0361 -0.9667
14054TIP3    H263578   5.164   1.639  14.515  1.1219 -1.7396  1.4949
14055TIP3   OH263579   1.319   4.602  11.381  0.2565 -0.4426 -0.0694
14055TIP3    H163580   1.303   4.510  11.401 -0.8723  0.0191  1.1778
14055TIP3    H263581   1.367   4.635  11.457  1.0929 -0.1146 -0.7283
14056TIP3   OH263582   4.909   4.957   1.995  0.0857  0.1677 -0.5105
14056TIP3    H163583   4.898   4.973   1.901 -0.4988 -0.1692 -0.5060
14056TIP3    H263584   4.919   4.862   2.002 -0.2167  0.1551 -0.2032
14057TIP3   OH263585   1.305   6.412  14.413  0.0108  0.7712  0.1087
14057TIP3    H163586   1.328   6.350  14.483 -0.8667  0.0809 -0.2041
14057TIP3    H263587   1.387   6.458  14.394  0.3703  0.6217  1.2490
14058TIP3   OH263588   5.341   1.690  14.486  0.8213  0.5397  0.6978
14058TIP3    H163589   5.356   1.757  14.419 -0.1142  0.9210  0.8613
14058TIP3    H263590   5.327   1.740  14.567 -1.0333  0.1995  0.5997
14059TIP3   OH263591   2.878   0.362   2.078  0.0191  0.0318  0.1361
14059TIP3    H163592   2.936   0.429   2.115 -0.8377  0.5174  0.6206
14059TIP3    H263593   2.806   0.412   2.039 -1.2761 -0.6216  1.6173
14060TIP3   OH263594   5.653   2.645  13.976 -0.9389 -0.3952  0.3793
14060TIP3    H163595   5.699   2.562  13.983  0.8999  0.6634  1.2401
14060TIP3    H263596   5.722   2.711  13.976 -2.3034  1.0732 -1.7295
14061TIP3   OH263597   5.760   2.723  11.674 -0.3318 -0.3286 -0.5543
14061TIP3    H163598   5.695   2.748  11.608  0.4118  0.2830 -1.0591
14061TIP3    H263599   5.755   2.793  11.740  0.5306  0.2488 -1.1009
14062TIP3   OH263600   4.546   3.573   0.882  0.4708  0.8074  0.4783
14062TIP3    H163601   4.536   3.592   0.975  0.1733  0.7017  0.4675
14062TIP3    H263602   4.457   3.556   0.851  0.5205  1.2476  0.0902
14063TIP3   OH263603   5.180   4.769  14.488  0.5950  0.0708 -0.7211
14063TIP3    H163604   5.094   4.728  14.484  1.0550 -1.0428  0.5483
14063TIP3    H263605   5.161   4.863  14.495 -0.4744 -0.0330 -2.0389
14064TIP3   OH263606   3.773   5.280   2.215 -0.3945  0.6391  0.1927
14064TIP3    H163607   3.830   5.243   2.148  2.0059  1.3713  1.7523
14064TIP3    H263608   3.783   5.375   2.206 -1.5837  0.7878  0.3167
14065TIP3   OH263609   4.351   1.054   0.187 -0.1022 -0.0873  0.5687
14065TIP3    H163610   4.426   1.060   0.128 -0.0974  0.7614  0.6522
14065TIP3    H263611   4.283   1.107   0.146  0.2610  1.4189  1.8532
14066TIP3   OH263612   4.876   2.610   5.044  0.5192 -0.6640  0.2046
14066TIP3    H163613   4.859   2.642   5.132  0.3118 -2.1707  0.7271
14066TIP3    H263614   4.841   2.521   5.043  2.2158 -1.3610 -0.7951
14067TIP3   OH263615   1.515   3.248   4.335 -0.1461  0.5475  0.0766
14067TIP3    H163616   1.561   3.228   4.416 -0.2028  1.8024  0.4286
14067TIP3    H263617   1.584   3.262   4.270 -0.0638  1.4337  0.3612
14068TIP3   OH263618   5.351   3.726   5.929  0.3089  0.1881 -0.4515
14068TIP3    H163619   5.337   3.762   6.017  1.3910 -0.1382 -0.1260
14068TIP3    H263620   5.444   3.742   5.912  0.2273 -0.2464 -1.3115
14069TIP3   OH263621   5.795   5.819  13.320  0.4278 -0.3024  0.0733
14069TIP3    H163622   5.875   5.857  13.284  0.6011 -0.6748  0.0631
14069TIP3    H263623   5.795   5.729  13.288 -0.0966 -0.2436 -0.0854
14070TIP3   OH263624   0.956   6.032   2.725  0.4436  0.3826  0.0779
14070TIP3    H163625   0.920   5.965   2.666  2.5961 -0.2024 -0.6220
14070TIP3    H263626   1.014   6.084   2.669  0.0388  1.8247  0.9908
14071TIP3   OH263627   1.107   0.805  12.920 -0.4019  1.0473 -0.1013
14071TIP3    H163628   1.115   0.860  12.843 -1.0964  2.0232  0.5034
14071TIP3    H263629   1.014   0.809  12.943 -0.6294 -1.0485 -0.5254
14072TIP3   OH263630   6.292   2.936  11.254  0.2278  0.7405  0.3125
14072TIP3    H163631   6.386   2.941  11.238 -0.0280  2.1104 -0.8998
14072TIP3    H263632   6.278   2.989  11.333  0.5545 -0.0122  0.8777
14073TIP3   OH263633   4.765   3.566   2.879  0.2048  0.5293  0.3044
14073TIP3    H163634   4.778   3.551   2.785  0.8814  1.0663  0.3042
14073TIP3    H263635   4.746   3.480   2.915  1.1379  0.1277 -0.1422
14074TIP3   OH263636   2.681   4.995  14.883  0.2686  0.0192 -0.3893
14074TIP3    H163637   2.734   4.961  14.955 -0.1108  0.3497  0.0495
14074TIP3    H263638   2.592   4.963  14.901 -0.3670  2.2753  0.7496
14075TIP3   OH263639   3.543   4.100   0.182  0.1469  0.2464 -0.2635
14075TIP3    H163640   3.546   4.195   0.196  1.7411  0.0909  0.5427
14075TIP3    H263641   3.629   4.069   0.211  0.6150 -1.1100 -2.9327
14076TIP3   OH263642   0.394   5.619  12.506  0.1074  0.3488 -0.2541
14076TIP3    H163643   0.420   5.527  12.513 -0.2924  0.0956 -1.8503
14076TIP3    H263644   0.348   5.637  12.588  1.8842 -0.3025  0.9160
14077TIP3   OH263645   6.461   4.351   5.240 -0.6919 -0.2253  0.2284
14077TIP3    H163646   6.435   4.373   5.329  3.2421 -0.8577  1.6393
14077TIP3    H263647   6.508   4.428   5.208  0.7959 -1.1991 -0.0296
14078TIP3   OH263648   6.743   2.692  13.560  0.6837  0.1015 -0.0859
14078TIP3    H163649   6.794   2.619  13.596 -1.3782 -2.1805 -1.6765
14078TIP3    H263650   6.702   2.732  13.636  1.0038 -1.0599  0.7200
14079TIP3   OH263651   5.516   4.277  13.879 -0.1593  0.3313  0.3209
14079TIP3    H163652   5.481   4.208  13.822 -0.9057  0.4069  0.6761
14079TIP3    H263653   5.491   4.358  13.835  0.5948  0.3807 -0.0233
14080TIP3   OH263654   1.744   2.695   4.470  0.4687 -0.4290  0.2483
14080TIP3    H163655   1.662   2.742   4.457  1.5232  0.7971 -2.4210
14080TIP3    H263656   1.797   2.755   4.523  0.9145  0.4014 -1.0892
14081TIP3   OH263657   5.403   1.727   4.739 -0.5581 -0.0292  0.7772
14081TIP3    H163658   5.421   1.675   4.661 -1.9627  0.3226  0.2027
14081TIP3    H263659   5.311   1.753   4.730 -0.0039  2.1787  1.2589
14082TIP3   OH263660   2.240   4.980   2.468 -0.0566 -0.1005 -0.4645
14082TIP3    H163661   2.186   4.907   2.498  0.4448 -0.3529 -0.1709
14082TIP3    H263662   2.327   4.964   2.506  0.0656  0.6315 -0.4165
14083TIP3   OH263663   0.423   2.459   5.712 -0.0453 -0.1528  0.1974
14083TIP3    H163664   0.423   2.364   5.726 -1.3726  0.0437  1.6685
14083TIP3    H263665   0.514   2.480   5.689  0.6206 -1.5304  1.5097
14084TIP3   OH263666   3.802   5.548   2.194  0.0102 -0.0047  0.1997
14084TIP3    H163667   3.880   5.594   2.225 -0.1402  0.5958 -0.3040
14084TIP3    H263668   3.772   5.600   2.120 -0.5927 -0.5060  0.0938
14085TIP3   OH263669   2.233   3.292   0.470  0.4230 -0.0197 -0.3077
14085TIP3    H163670   2.308   3.298   0.530  0.1547  1.1421 -0.0691
14085TIP3    H263671   2.163   3.256   0.524  0.5736 -0.3087 -0.3032
14086TIP3   OH263672   3.657   6.008  14.398  0.1021  0.0801  0.3005
14086TIP3    H163673   3.724   5.986  14.462  0.4449 -0.3696 -0.2042
14086TIP3    H263674   3.581   5.955  14.423  0.3236 -0.2985  0.1838
14087TIP3   OH263675   2.464   4.629   1.537  0.3595 -0.1476  0.1306
14087TIP3    H163676   2.423   4.545   1.516  0.5623 -0.2328  0.0793
14087TIP3    H263677   2.436   4.687   1.467  2.1999 -0.7897 -1.1793
14088TIP3   OH263678   2.429   3.410   1.258  0.0214  0.1591  0.3422
14088TIP3    H163679   2.372   3.335   1.244  2.1686 -1.5611  0.4337
14088TIP3    H263680   2.482   3.387   1.335  0.9815  1.5724  0.1331
14089TIP3   OH263681   3.699   2.973   4.604 -0.2451  0.2584  0.4034
14089TIP3    H163682   3.620   2.921   4.589 -1.1363  1.6332  0.1989
14089TIP3    H263683   3.667   3.055   4.641  0.9273  1.4234 -1.0664
14090TIP3   OH263684   2.592   3.639   3.531 -0.6082 -0.0052  0.0577
14090TIP3    H163685   2.641   3.711   3.570  0.3555  0.5515 -2.0661
14090TIP3    H263686   2.501   3.659   3.549 -0.2455  0.7529  1.0990
14091TIP3   OH263687   1.570   4.241  10.251 -0.1217  0.1251  0.6119
14091TIP3    H163688   1.480   4.220  10.279 -0.3666  1.6416  0.9817
14091TIP3    H263689   1.625   4.191  10.311 -0.7175 -0.5251  0.6294
14092TIP3   OH263690   1.473   2.400  14.382  0.0622 -0.5936  0.7241
14092TIP3    H163691   1.480   2.493  14.363 -0.0109 -0.9560 -1.1862
14092TIP3    H263692   1.395   2.371  14.334  0.5593 -1.7984  0.6210
14093TIP3   OH263693   4.004   3.643  12.615  0.0418  0.0082  0.0719
14093TIP3    H163694   3.915   3.629  12.648  0.1751 -1.2547 -0.0626
14093TIP3    H263695   3.995   3.640  12.520  0.1154  0.6136  0.0460
14094TIP3   OH263696   3.168   3.202  15.539 -0.0463  0.6041  0.4730
14094TIP3    H163697   3.221   3.132  15.501 -0.5798  0.7318 -0.5046
14094TIP3    H263698   3.232   3.270  15.562  0.2987  0.4267  0.0392
14095TIP3   OH263699   2.686   2.802  10.817  0.4577  0.3618  0.6722
14095TIP3    H163700   2.693   2.717  10.775 -0.2654  1.6060 -2.0419
14095TIP3    H263701   2.594   2.809  10.842  0.2840  0.7620 -0.0577
14096TIP3   OH263702   3.552   0.897  14.796  0.2404  0.0280 -0.2718
14096TIP3    H163703   3.624   0.848  14.835 -0.7777  0.2577  1.9423
14096TIP3    H263704   3.483   0.832  14.782 -0.6963  0.5641  1.6348
14097TIP3   OH263705   6.335   4.787   1.228  0.4050 -0.2609  0.2600
14097TIP3    H163706   6.271   4.795   1.157 -0.4181  0.5593  1.0776
14097TIP3    H263707   6.374   4.700   1.215  0.9699  0.2541 -1.7589
14098TIP3   OH263708   0.608   3.497  13.535 -0.3518 -0.0221  0.6452
14098TIP3    H163709   0.635   3.411  13.502 -0.3921 -0.3877  1.5597
14098TIP3    H263710   0.677   3.557  13.504 -0.4156 -0.3531 -0.1348
14099TIP3   OH263711   6.526   1.797   3.411  0.5219  0.3018  0.4121
14099TIP3    H163712   6.445   1.828   3.369  1.3683  0.0295 -1.4888
14099TIP3    H263713   6.504   1.710   3.444  0.9455 -1.2236 -3.1068
14100TIP3   OH263714   2.404   1.256   2.781 -0.3588 -0.0060  0.1750
14100TIP3    H163715   2.404   1.180   2.722  0.7684  0.9875 -1.1400
14100TIP3    H263716   2.473   1.236   2.845  2.3524  1.3747 -2.1913
14101TIP3   OH263717   1.405   6.044  10.609 -0.8455 -0.4548  0.3988
14101TIP3    H163718   1.435   6.047  10.518  2.6596  0.3381  1.4858
14101TIP3    H263719   1.397   6.136  10.634 -1.6900 -0.6749  0.9376
14102TIP3   OH263720   2.762   5.240   3.712  0.1002  0.2767  0.2838
14102TIP3    H163721   2.679   5.234   3.759 -0.2826 -1.3259 -0.5630
14102TIP3    H263722   2.738   5.225   3.621  1.4233 -1.0829  0.1438
14103TIP3   OH263723   4.220   1.332  14.627 -0.1897  0.7970  0.2926
14103TIP3    H163724   4.218   1.249  14.580  1.7327  1.0767 -0.3656
14103TIP3    H263725   4.139   1.376  14.603 -0.0565  0.1654 -1.3733
14104TIP3   OH263726   4.144   0.649  13.862 -0.2350  0.3671 -0.1331
14104TIP3    H163727   4.221   0.680  13.910 -0.5629 -0.5458  1.0016
14104TIP3    H263728   4.169   0.655  13.770  1.4485 -0.5942  0.2536
14105TIP3   OH263729   1.231   6.725   3.680 -0.4332 -0.2734 -0.0091
14105TIP3    H163730   1.261   6.802   3.632 -0.4469 -0.9370 -1.0936
14105TIP3    H263731   1.309   6.692   3.725 -0.3148  0.0629  0.0317
14106TIP3   OH263732   3.559   1.906  14.401  0.2088 -0.0786 -0.3755
14106TIP3    H163733   3.563   2.002  14.400  0.0577 -0.0683  0.0021
14106TIP3    H263734   3.645   1.879  14.368  0.1678  0.1853 -0.7066
14107TIP3   OH263735   5.375   0.486  14.425  0.5389 -0.3898  0.1678
14107TIP3    H163736   5.451   0.440  14.390 -0.1512  0.1996 -2.1942
14107TIP3    H263737   5.391   0.578  14.403 -0.5442 -0.1752  0.2540
14108TIP3   OH263738   3.861   2.636  13.989 -0.3121  0.4175  0.0833
14108TIP3    H163739   3.883   2.554  13.946  1.2095  0.2999  1.0707
14108TIP3    H263740   3.793   2.675  13.933 -0.3930 -1.0640 -0.8704
14109TIP3   OH263741   0.043   3.570   5.679 -0.4735 -0.5184  0.2312
14109TIP3    H163742   0.057   3.652   5.726 -1.3839  1.3837 -2.6611
14109TIP3    H263743  -0.043   3.540   5.710 -1.3962  1.0840 -0.7124
14110TIP3   OH263744   1.613   0.429   3.483 -0.1278  0.0807  0.1797
14110TIP3    H163745   1.546   0.380   3.435 -2.4526  0.9431  2.4088
14110TIP3    H263746   1.620   0.383   3.567 -0.0780  1.7208  1.0873
14111TIP3   OH263747   4.570   0.293   5.086 -0.7301  0.1374  0.0429
14111TIP3    H163748   4.547   0.325   5.173  2.2143 -2.7906  2.0345
14111TIP3    H263749   4.665   0.283   5.088 -0.4413  1.0619 -3.9402
14112TIP3   OH263750   2.756   3.226   1.299 -0.1742 -0.0142 -0.1436
14112TIP3    H163751   2.674   3.224   1.349  0.3933  1.0541  0.8448
14112TIP3    H263752   2.729   3.213   1.208 -1.1296 -3.1182  0.5058
14113TIP3   OH263753   2.196   0.927  11.975 -0.0330 -0.2239 -0.5062
14113TIP3    H163754   2.231   0.921  11.886  0.0282  1.3590 -0.6070
14113TIP3    H263755   2.202   0.838  12.010  2.9003 -0.2663 -0.9874
14114TIP3   OH263756   5.301   3.234  13.749 -0.0412  0.4228 -0.0766
14114TIP3    H163757   5.298   3.288  13.828  0.1549 -1.1826  1.0772
14114TIP3    H263758   5.215   3.244  13.710  1.0581  4.2008 -1.7638
14115TIP3   OH263759   1.674   1.645   3.309 -0.2470 -0.4083 -0.1386
14115TIP3    H163760   1.634   1.713   3.255  0.4413  0.2816  0.2170
14115TIP3    H263761   1.755   1.624   3.265  0.8491  0.9287  1.1771
14116TIP3   OH263762   3.152   1.068  10.605 -0.2870  0.4565 -0.1556
14116TIP3    H163763   3.163   1.039  10.696  1.2474  0.8760 -0.1930
14116TIP3    H263764   3.176   0.992  10.552  1.2338  0.9715 -0.2261
14117TIP3   OH263765   2.734   2.125   5.869  0.6547 -0.2276 -0.2353
14117TIP3    H163766   2.709   2.034   5.856  3.5691 -0.9853 -0.7626
14117TIP3    H263767   2.694   2.149   5.952  0.5857 -2.2649  0.3423
14118TIP3   OH263768   2.314   4.013  13.094 -0.5441 -0.2605  0.1105
14118TIP3    H163769   2.251   3.941  13.087 -0.4702 -0.2763 -0.4258
14118TIP3    H263770   2.370   3.988  13.168 -0.6517 -0.6518  0.0641
14119TIP3   OH263771   6.769   1.229  15.388 -0.2155  0.4352  0.4974
14119TIP3    H163772   6.676   1.247  15.381 -0.5642 -1.5957 -0.4399
14119TIP3    H263773   6.790   1.242  15.481 -2.0069 -1.7291  1.2311
14120TIP3   OH263774   6.782   1.887   5.865  0.5779 -0.1143  0.0980
14120TIP3    H163775   6.720   1.904   5.794 -0.6913 -0.3151  1.1186
14120TIP3    H263776   6.825   1.971   5.880  2.3499 -0.5690 -2.2608
14121TIP3   OH263777   0.682   4.996  12.201  0.4619 -0.4253  0.0443
14121TIP3    H163778   0.591   5.005  12.228  0.7602  1.9980  0.3702
14121TIP3    H263779   0.732   5.023  12.278  1.4050  0.4061 -0.8452
14122TIP3   OH263780   0.687   2.799   1.164  0.3973  0.0911 -0.2021
14122TIP3    H163781   0.734   2.721   1.194 -0.2001 -0.2838 -0.2301
14122TIP3    H263782   0.623   2.766   1.100 -0.0901  0.5518  0.0372
14123TIP3   OH263783   2.390   0.103  16.195 -0.2723 -1.0708  0.0314
14123TIP3    H163784   2.373   0.097  16.101 -0.7438  0.5377  0.0024
14123TIP3    H263785   2.425   0.017  16.219  1.1831 -1.0464 -1.8774
14124TIP3   OH263786   6.091   4.676   6.065 -0.4350 -1.1067  0.4758
14124TIP3    H163787   6.058   4.587   6.049  0.6670 -1.8587  2.1928
14124TIP3    H263788   6.178   4.662   6.103  0.8196  0.7803 -1.5956
14125TIP3   OH263789   4.760   0.609   0.421 -0.0164 -0.0012 -0.6321
14125TIP3    H163790   4.817   0.661   0.477  0.1372 -0.2487 -0.5585
14125TIP3    H263791   4.683   0.590   0.476 -0.8491  1.6051 -1.2241
14126TIP3   OH263792   4.233   1.444  13.576  0.3059 -0.5529  0.2595
14126TIP3    H163793   4.229   1.349  13.589  0.0357 -0.4491  1.0044
14126TIP3    H263794   4.182   1.480  13.649 -2.6138  0.0481 -1.9934
14127TIP3   OH263795   0.994   5.103  17.229 -0.1027  0.6089  0.6951
14127TIP3    H163796   0.993   5.024  17.284 -2.9466 -0.2555 -0.4847
14127TIP3    H263797   1.025   5.172  17.287  3.4036 -1.4889  1.5240
14128TIP3   OH263798   4.425   5.136   4.722  0.5077 -0.0962 -0.6949
14128TIP3    H163799   4.484   5.099   4.656  1.1141 -1.3877  0.5501
14128TIP3    H263800   4.349   5.078   4.722  0.3838  0.0659 -0.4575
14129TIP3   OH263801   3.001   3.670   2.779 -0.1639  1.0015  0.3281
14129TIP3    H163802   2.991   3.753   2.827 -0.9505  0.5918  0.9006
14129TIP3    H263803   2.935   3.612   2.818 -0.2298  0.3830 -0.6735
14130TIP3   OH263804   0.561   2.978  13.081  0.0252 -0.1660  0.5067
14130TIP3    H163805   0.571   2.908  13.017  0.8144  1.9704 -1.8014
14130TIP3    H263806   0.473   3.013  13.065  1.2923  2.2869 -1.5138
14131TIP3   OH263807   2.807   0.598   2.510  0.0818  0.3833 -0.0809
14131TIP3    H163808   2.838   0.508   2.516 -1.4481 -0.2298 -0.9573
14131TIP3    H263809   2.784   0.609   2.417  1.0675  1.9645 -0.1627
14132TIP3   OH263810   6.204   5.175  12.849 -0.0844  0.2922 -0.1824
14132TIP3    H163811   6.250   5.258  12.848 -1.3519  1.0306 -2.3957
14132TIP3    H263812   6.121   5.194  12.892  0.3445 -0.2739  0.9181
14133TIP3   OH263813   1.780   4.089   1.523 -0.1511  0.8584 -0.4280
14133TIP3    H163814   1.835   4.013   1.545 -1.4309 -1.3950 -4.5857
14133TIP3    H263815   1.840   4.151   1.481  0.8953  2.2659  2.9661
14134TIP3   OH263816   3.314   6.319  15.941  0.3548 -0.0671  0.0688
14134TIP3    H163817   3.366   6.284  16.013  1.0803  0.0248 -0.4070
14134TIP3    H263818   3.238   6.261  15.936 -0.2313  0.5484  1.5912
14135TIP3   OH263819   0.329   1.355  12.327 -0.4948  0.4411 -0.2707
14135TIP3    H163820   0.352   1.401  12.246  0.2379 -1.2682 -1.0577
14135TIP3    H263821   0.337   1.262  12.305 -0.8812 -0.0548  1.5967
14136TIP3   OH263822   0.051   5.861   0.403  0.4380  0.4413 -0.0637
14136TIP3    H163823  -0.034   5.888   0.370  0.7973 -0.6835 -1.9970
14136TIP3    H263824   0.110   5.931   0.377  0.2405  0.8280  0.5401
14137TIP3   OH263825   6.104   4.161  12.314 -0.6527  0.3304  0.1730
14137TIP3    H163826   6.080   4.248  12.347 -0.6235 -0.1117  1.3771
14137TIP3    H263827   6.186   4.176  12.268 -0.6145  0.9386  0.4194
14138TIP3   OH263828   6.134   4.776  16.244  0.2074 -0.1228 -0.2807
14138TIP3    H163829   6.176   4.861  16.233 -1.2113  0.8180  1.5095
14138TIP3    H263830   6.175   4.739  16.322 -1.4263  0.2941  0.7898
14139TIP3   OH263831   5.717   3.802  10.814  0.4043  0.0155  0.3373
14139TIP3    H163832   5.811   3.784  10.803  0.3096 -0.1694 -0.1956
14139TIP3    H263833   5.689   3.740  10.882  0.3235 -1.0854 -0.6848
14140TIP3   OH263834   3.706   1.595   3.605 -0.2018  0.0540 -0.2878
14140TIP3    H163835   3.651   1.666   3.571 -0.2806  1.2287  2.2337
14140TIP3    H263836   3.770   1.638   3.661  0.9997 -1.6769 -0.2833
14141TIP3   OH263837   2.398   4.144  15.916  0.2086  0.3627 -0.0407
14141TIP3    H163838   2.322   4.146  15.974 -0.7793  0.1743 -1.2989
14141TIP3    H263839   2.464   4.093  15.963 -1.2136 -1.3564  0.1514
14142TIP3   OH263840   1.744   3.892   4.602 -0.2293 -0.0155 -0.1179
14142TIP3    H163841   1.797   3.819   4.633 -0.4645 -0.6910 -1.2589
14142TIP3    H263842   1.770   3.966   4.656  3.6253  0.2628 -2.1992
14143TIP3   OH263843   1.742   3.700   3.976 -0.4753  0.6371  0.3779
14143TIP3    H163844   1.670   3.638   3.964 -0.0735  0.3106 -0.4551
14143TIP3    H263845   1.819   3.652   3.946 -0.1099  1.4364  0.0152
14144TIP3   OH263846   4.844   4.306   2.223 -0.5268  0.0419 -0.3534
14144TIP3    H163847   4.774   4.371   2.217 -0.6237  0.0122  0.4652
14144TIP3    H263848   4.826   4.258   2.304  0.4199  0.0007 -0.1631
14145TIP3   OH263849   4.261   3.834  13.899  0.5189  0.9101 -0.3000
14145TIP3    H163850   4.176   3.865  13.867  0.2490 -0.0197 -0.5122
14145TIP3    H263851   4.307   3.806  13.820 -0.2010 -1.5093  0.0843
14146TIP3   OH263852   0.396   5.893   4.259 -0.2112  0.5020 -0.0958
14146TIP3    H163853   0.413   5.972   4.309 -1.4792  0.4989  0.3579
14146TIP3    H263854   0.315   5.911   4.212  0.4214  0.1176 -1.3638
14147TIP3   OH263855   0.736   6.163  17.217 -0.7305  0.4119  0.0933
14147TIP3    H163856   0.791   6.110  17.159 -1.5719 -0.7966  0.3792
14147TIP3    H263857   0.784   6.167  17.300  0.2981  1.8296 -0.5401
14148TIP3   OH263858   3.048   3.662  12.558  0.5925  0.0977 -0.2424
14148TIP3    H163859   3.128   3.691  12.513  0.2301  2.4656  0.5532
14148TIP3    H263860   3.008   3.743  12.590 -3.1831 -0.8158 -2.3355
14149TIP3   OH263861   4.372   5.886  13.880 -0.1825  0.2834 -0.3889
14149TIP3    H163862   4.278   5.887  13.901 -0.0775  1.2450  0.0616
14149TIP3    H263863   4.377   5.934  13.797 -0.0216  0.7530 -0.1091
14150TIP3   OH263864   2.006   2.163  14.501  0.4170 -0.1351 -0.2472
14150TIP3    H163865   1.982   2.193  14.414 -0.7628  0.8699  0.4138
14150TIP3    H263866   2.101   2.172  14.504  0.3280  1.0884 -0.9486
14151TIP3   OH263867   3.004   2.375   4.112 -0.3233  0.4126  0.9124
14151TIP3    H163868   2.968   2.461   4.133 -1.6157  0.4549 -1.2999
14151TIP3    H263869   2.934   2.313   4.131  0.2665 -0.0631  1.5743
14152TIP3   OH263870   5.356   5.687   5.734  0.1557  0.3460  0.4354
14152TIP3    H163871   5.311   5.667   5.652  1.4933  0.6854 -0.3930
14152TIP3    H263872   5.325   5.621   5.795 -1.0306  0.2277 -0.2689
14153TIP3   OH263873   4.069   1.215   0.984 -0.6371 -0.1121  0.1092
14153TIP3    H163874   4.105   1.223   0.896  0.4179 -2.3704  0.3108
14153TIP3    H263875   4.119   1.145   1.025 -1.6867  0.3186  2.2384
14154TIP3   OH263876   0.285   3.636   0.721 -0.1172 -0.3659 -0.2402
14154TIP3    H163877   0.327   3.654   0.637  1.5965  1.0476  0.8910
14154TIP3    H263878   0.216   3.702   0.728 -0.0697 -0.2999 -0.4013
14155TIP3   OH263879   3.187   1.420   2.834 -0.1195  0.6824  0.0746
14155TIP3    H163880   3.100   1.398   2.800 -0.2711 -0.2355  1.0264
14155TIP3    H263881   3.245   1.357   2.792  0.1452  1.4945 -0.8002
14156TIP3   OH263882   6.085   0.202   2.316  0.4585 -0.1829 -0.0070
14156TIP3    H163883   6.171   0.183   2.354  0.3138 -0.9928 -0.0792
14156TIP3    H263884   6.103   0.263   2.245  0.8936  0.2312  0.4566
14157TIP3   OH263885   1.122   4.653   1.788 -0.0598  0.0197  0.4005
14157TIP3    H163886   1.182   4.665   1.714 -0.8058 -0.2270 -0.2495
14157TIP3    H263887   1.079   4.738   1.797  0.3700  0.1920  0.8589
14158TIP3   OH263888   2.172   5.621  10.656 -0.7056 -0.3816  0.7073
14158TIP3    H163889   2.090   5.655  10.620  1.0346  2.6874 -0.5382
14158TIP3    H263890   2.227   5.606  10.580  0.9187  0.3879  1.7046
14159TIP3   OH263891   5.023   6.667   2.002 -0.0138 -0.4670  0.5656
14159TIP3    H163892   5.110   6.629   1.991  0.2481  0.2889 -0.0620
14159TIP3    H263893   5.031   6.756   1.967 -1.0183 -0.3664  0.5668
14160TIP3   OH263894   2.420   0.091  14.969  0.1878  0.1117  0.2820
14160TIP3    H163895   2.369   0.140  15.034  1.1947  1.5343  0.0300
14160TIP3    H263896   2.437   0.154  14.899  0.9594 -0.7853 -0.3568
14161TIP3   OH263897   2.119   6.293   1.546  0.1827  0.0844  0.4047
14161TIP3    H163898   2.201   6.339   1.563 -0.6373  0.9317  2.1032
14161TIP3    H263899   2.051   6.351   1.579 -0.9505 -1.7944  1.4427
14162TIP3   OH263900   1.825   2.937  15.367 -0.0312 -0.5305  0.2444
14162TIP3    H163901   1.878   2.976  15.436 -0.8447 -0.1312  0.6533
14162TIP3    H263902   1.751   2.899  15.412 -1.3501  1.0367 -0.5220
14163TIP3   OH263903   5.083   3.742   0.511 -0.0980 -0.1959 -0.5583
14163TIP3    H163904   5.107   3.655   0.478 -0.8161 -1.1813  1.4335
14163TIP3    H263905   4.990   3.734   0.534  0.0617  0.8171  0.4989
14164TIP3   OH263906   0.885   2.515   0.821  0.0628  0.2088  0.0747
14164TIP3    H163907   0.910   2.436   0.773 -1.1724 -1.0371  1.4141
14164TIP3    H263908   0.872   2.485   0.911 -0.6999  1.8812  0.5371
14165TIP3   OH263909   1.748   1.083   4.437  0.1216 -0.1366 -0.0349
14165TIP3    H163910   1.791   1.008   4.478  0.2812 -0.0017  0.0452
14165TIP3    H263911   1.765   1.072   4.343 -0.1140 -0.3630 -0.0498
14166TIP3   OH263912   4.443   5.919   4.251 -0.2959 -0.2670 -0.1472
14166TIP3    H163913   4.404   5.897   4.166 -0.7175 -1.5444  0.3731
14166TIP3    H263914   4.411   5.852   4.311 -2.1496  2.1250  1.6308
14167TIP3   OH263915   5.241   5.909  17.183 -0.2241 -0.3706 -0.3159
14167TIP3    H163916   5.320   5.876  17.141  0.3393 -1.1473  1.3069
14167TIP3    H263917   5.169   5.876  17.129  0.5044 -0.9580 -0.9335
14168TIP3   OH263918   5.391   6.469  13.527  0.2247  0.1042  0.3159
14168TIP3    H163919   5.428   6.543  13.479 -1.8735 -0.1815 -1.8532
14168TIP3    H263920   5.299   6.491  13.539 -0.1799 -1.6398  0.6327
14169TIP3   OH263921   1.768   2.333  13.630  0.5401 -0.5020  0.0822
14169TIP3    H163922   1.791   2.273  13.701  1.5967  0.4035  0.5138
14169TIP3    H263923   1.715   2.400  13.671  1.1804  0.0411  0.0296
14170TIP3   OH263924   5.062   5.519  13.854  0.0009 -0.2385  0.3952
14170TIP3    H163925   4.974   5.532  13.889  0.0701 -1.8485  1.1899
14170TIP3    H263926   5.057   5.555  13.765 -0.5927  2.4393  1.4883
14171TIP3   OH263927   4.561   4.329  15.250 -0.4758  0.3946 -0.4746
14171TIP3    H163928   4.598   4.388  15.185  2.5746 -1.0204 -0.0793
14171TIP3    H263929   4.518   4.260  15.199  0.0481  0.4310 -0.9618
14172TIP3   OH263930   5.584   5.684  16.262 -0.3305  0.1484 -0.6944
14172TIP3    H163931   5.586   5.707  16.169  1.4607 -0.9622 -0.9518
14172TIP3    H263932   5.604   5.590  16.264  0.8310  0.4156  0.8760
14173TIP3   OH263933   4.044   2.916  16.851  0.3128 -0.8073 -0.4458
14173TIP3    H163934   4.129   2.876  16.834  0.0373 -2.7694  2.4821
14173TIP3    H263935   3.987   2.883  16.781  1.7102 -0.1586 -1.9231
14174TIP3   OH263936   1.455   2.175   6.604 -0.2178  0.5527 -0.0729
14174TIP3    H163937   1.383   2.206   6.660 -0.5870 -0.0973 -0.1922
14174TIP3    H263938   1.414   2.154   6.521  0.0710 -0.0991 -0.0506
14175TIP3   OH263939   0.781   3.456  14.557  0.4230  0.3769  0.1656
14175TIP3    H163940   0.697   3.479  14.517  0.1521  0.8460  0.9836
14175TIP3    H263941   0.757   3.396  14.628  0.6304  1.7196  1.3875
14176TIP3   OH263942   5.250   1.728  13.918  0.1020  0.7082  0.0721
14176TIP3    H163943   5.291   1.748  14.003  0.9701  0.7377 -0.3481
14176TIP3    H263944   5.280   1.640  13.897 -1.7994 -0.1208  0.7817
14177TIP3   OH263945   0.153   4.622  12.601 -0.3412 -0.0349 -0.2051
14177TIP3    H163946   0.130   4.544  12.652 -0.4935 -0.1617 -0.4652
14177TIP3    H263947   0.182   4.587  12.517 -1.8303  0.2544 -0.8539
14178TIP3   OH263948   5.926   0.487  11.775 -0.5384 -0.1162  0.5105
14178TIP3    H163949   5.976   0.538  11.839 -1.9490  1.2745  0.5392
14178TIP3    H263950   5.905   0.405  11.821  0.9187 -0.3457  0.7970
14179TIP3   OH263951   2.918   0.363   2.495 -0.1930  0.3499 -0.2488
14179TIP3    H163952   2.888   0.298   2.558  0.4686 -0.6422 -0.9250
14179TIP3    H263953   3.014   0.353   2.495 -0.1527  0.7127 -0.9981
14180TIP3   OH263954   1.493   4.734   6.176 -0.3630  0.0939  0.1579
14180TIP3    H163955   1.435   4.747   6.251  0.1995  1.0613  0.4411
14180TIP3    H263956   1.515   4.823   6.147  2.4867 -0.2062  1.2425
14181TIP3   OH263957   1.529   5.812   0.784  0.1443  0.0286  0.3010
14181TIP3    H163958   1.483   5.733   0.756 -0.7812  1.0515 -1.1936
14181TIP3    H263959   1.458   5.874   0.803  0.8719  0.8828  0.2367
14182TIP3   OH263960   1.931   5.928  11.360  0.0084 -0.5115 -0.1518
14182TIP3    H163961   1.842   5.908  11.330 -0.7161  0.5475  1.2651
14182TIP3    H263962   1.938   6.023  11.353  0.9776 -0.5714 -0.0674
14183TIP3   OH263963   4.845   3.146   2.012 -0.0532 -0.4683 -0.0720
14183TIP3    H163964   4.796   3.201   2.074 -1.3585 -0.3452 -1.2010
14183TIP3    H263965   4.780   3.085   1.978 -0.0042  1.1665 -3.3242
14184TIP3   OH263966   5.570   5.305  12.768 -0.2026 -0.5268  0.3831
14184TIP3    H163967   5.649   5.254  12.751  0.2485  0.1082  0.6053
14184TIP3    H263968   5.583   5.387  12.721 -0.7070 -0.3940  0.4655
14185TIP3   OH263969   1.821   4.880  14.319 -0.2433  0.3484  0.4634
14185TIP3    H163970   1.839   4.907  14.229 -0.1032 -0.6013  0.1953
14185TIP3    H263971   1.822   4.961  14.370 -0.4879  0.9101 -0.4166
14186TIP3   OH263972   4.484   4.694  15.282 -0.2830 -0.0935 -0.5082
14186TIP3    H163973   4.560   4.752  15.284 -1.3934  1.3843 -0.4012
14186TIP3    H263974   4.473   4.667  15.373  0.1609 -0.3830 -0.5375
14187TIP3   OH263975   3.803   2.816  10.396  0.2243 -0.0438 -0.2293
14187TIP3    H163976   3.880   2.848  10.350 -0.4828  1.1656 -0.6107
14187TIP3    H263977   3.794   2.725  10.368  0.7520  0.1975 -1.1981
14188TIP3   OH263978   4.250   4.287  12.803  0.1623  0.0330 -0.6717
14188TIP3    H163979   4.294   4.366  12.836 -1.1910 -0.0455  1.4041
14188TIP3    H263980   4.157   4.310  12.804 -0.2107 -1.4612 -0.4561
14189TIP3   OH263981   6.361   4.476   4.679  0.2912 -0.2516  0.4398
14189TIP3    H163982   6.266   4.469   4.693  0.2622 -2.2722 -0.4940
14189TIP3    H263983   6.397   4.399   4.722  1.5073  0.4609  0.6997
14190TIP3   OH263984   0.397   2.928   6.587 -0.2021  0.2080 -0.5717
14190TIP3    H163985   0.454   2.973   6.650  1.2486 -0.2500 -1.5439
14190TIP3    H263986   0.330   2.887   6.642 -0.2741  1.7224  0.4928
14191TIP3   OH263987   6.556   3.676  13.526  0.1489 -0.6485 -0.6830
14191TIP3    H163988   6.651   3.674  13.540  0.1296  0.4192 -0.3749
14191TIP3    H263989   6.543   3.740  13.457 -0.4395  0.0074  0.0356
14192TIP3   OH263990   2.151   1.165  11.845 -0.0724 -0.0200  0.4051
14192TIP3    H163991   2.164   1.087  11.898  0.3271 -0.5280 -0.4194
14192TIP3    H263992   2.086   1.139  11.779 -0.7383  0.6700  0.7854
14193TIP3   OH263993   4.528   2.270  15.252 -0.5823 -0.1618 -0.2074
14193TIP3    H163994   4.550   2.233  15.338 -1.6830 -0.0287  0.1287
14193TIP3    H263995   4.452   2.220  15.223 -1.0796  0.7435 -0.4791
14194TIP3   OH263996   0.707   5.078   0.079 -0.0570 -0.0129 -0.3977
14194TIP3    H163997   0.760   4.998   0.077 -0.5614 -0.3647  0.4748
14194TIP3    H263998   0.732   5.121   0.161  0.6952  1.0622 -1.1635
14195TIP3   OH263999   4.321   0.721   4.902  0.3100  0.3818  0.2937
14195TIP3    H164000   4.250   0.664   4.932  0.2210  1.1863  1.6264
14195TIP3    H264001   4.279   0.805   4.885  1.0589  1.0922  1.8396
14196TIP3   OH264002   5.484   5.834  13.235  0.2653 -0.2899 -0.4003
14196TIP3    H164003   5.390   5.842  13.254  0.2993  2.2825 -1.1228
14196TIP3    H264004   5.527   5.846  13.320 -0.0284 -0.4902 -0.2223
14197TIP3   OH264005   1.552   0.806   1.689 -0.0695 -0.1831  0.1379
14197TIP3    H164006   1.511   0.843   1.611  0.5386 -1.4077 -0.7904
14197TIP3    H264007   1.643   0.834   1.684  0.3129 -1.4709 -0.3880
14198TIP3   OH264008   3.026   0.114  13.617 -0.2280 -0.3704 -0.3273
14198TIP3    H164009   2.959   0.169  13.657  1.0918  1.3066 -0.3269
14198TIP3    H264010   3.107   0.164  13.628  1.1470 -2.6767  0.3423
14199TIP3   OH264011   3.427   6.775   1.191 -0.1883  0.3315  0.3441
14199TIP3    H164012   3.506   6.805   1.236  0.8697 -0.9771 -0.5965
14199TIP3    H264013   3.355   6.822   1.234  0.9732  0.5228  2.1144
14200TIP3   OH264014   3.680   6.229  13.943 -0.0578 -0.3357  0.3645
14200TIP3    H164015   3.743   6.174  13.898  0.9975 -0.4396  1.9069
14200TIP3    H264016   3.602   6.228  13.887  0.3305 -2.4761 -0.1861
14201TIP3   OH264017   6.614   4.000  13.042  0.3489  0.2190  0.1257
14201TIP3    H164018   6.603   4.021  12.950 -0.7546 -0.4996  0.0847
14201TIP3    H264019   6.531   4.025  13.083  0.2454 -0.9531  0.6431
14202TIP3   OH264020   4.170   3.462   2.649  0.6217 -0.1357  0.3764
14202TIP3    H164021   4.243   3.416   2.607  1.9749  1.3902  1.0513
14202TIP3    H264022   4.141   3.402   2.718 -0.3052 -1.7635 -1.3532
14203TIP3   OH264023   5.677   3.461  11.059  0.8812 -0.3235  0.3485
14203TIP3    H164024   5.768   3.431  11.062  0.4644 -1.4660  2.1675
14203TIP3    H264025   5.630   3.391  11.013  0.7327 -0.2379  0.3694
14204TIP3   OH264026   5.350   6.425   0.830 -0.3382 -0.3362 -0.3046
14204TIP3    H164027   5.385   6.513   0.818 -1.2316 -0.0095 -0.5430
14204TIP3    H264028   5.372   6.379   0.749  0.7636 -0.5511  0.1131
14205TIP3   OH264029   3.897   1.053  16.509  0.3432  0.2521  0.4495
14205TIP3    H164030   3.809   1.067  16.473 -0.6420 -1.7358  1.9991
14205TIP3    H264031   3.946   1.131  16.481 -2.3831  2.2849  1.0454
14206TIP3   OH264032   0.543   1.724  16.073  0.2209  0.2848 -0.0222
14206TIP3    H164033   0.620   1.672  16.094 -0.6293 -0.5598  0.9999
14206TIP3    H264034   0.518   1.695  15.985  0.2578 -0.4102  0.1978
14207TIP3   OH264035   0.997   1.563  12.369 -0.3312 -0.1408 -0.0736
14207TIP3    H164036   1.088   1.569  12.399  0.5607 -1.1712 -2.4962
14207TIP3    H264037   0.957   1.497  12.426  0.8995 -0.9156 -0.0972
14208TIP3   OH264038   5.455   6.489   4.446 -0.4514 -0.6402 -0.0608
14208TIP3    H164039   5.367   6.526   4.451 -0.3853 -0.5016  0.0828
14208TIP3    H264040   5.513   6.560   4.477 -0.2622 -0.6224 -0.4488
14209TIP3   OH264041   3.785   4.715  14.229 -0.3387  0.1369  0.4123
14209TIP3    H164042   3.795   4.623  14.253  1.1443  0.1239 -0.2267
14209TIP3    H264043   3.788   4.715  14.133 -2.4592  0.6184  0.3175
14210TIP3   OH264044   0.094   5.881  14.357  0.0406  0.3759  0.3133
14210TIP3    H164045   0.109   5.949  14.292 -0.2531  0.8331  0.7218
14210TIP3    H264046   0.034   5.820  14.314 -0.3241  0.7903  0.2322
14211TIP3   OH264047   1.280   4.640   4.905 -0.2442  0.3096  0.2254
14211TIP3    H164048   1.293   4.601   4.819 -1.2318  1.6613 -0.5490
14211TIP3    H264049   1.361   4.619   4.953 -0.1517 -1.3891 -0.6469
14212TIP3   OH264050   6.043   5.260  13.101 -0.3656 -0.0242 -0.5420
14212TIP3    H164051   6.013   5.261  13.192 -1.5771  1.3152 -0.9335
14212TIP3    H264052   5.963   5.277  13.049  0.2639 -1.0096 -1.8590
14213TIP3   OH264053   5.508   4.224  15.280 -0.4762  0.3656  0.0727
14213TIP3    H164054   5.550   4.161  15.221  0.3410  0.1400  0.8695
14213TIP3    H264055   5.448   4.273  15.225 -0.5374 -0.5884 -0.7243
14214TIP3   OH264056   3.897   6.512  15.798 -0.0412 -0.1860  0.7694
14214TIP3    H164057   3.982   6.538  15.763 -0.1976  1.0285  1.2629
14214TIP3    H264058   3.842   6.498  15.721  0.0795  0.8592  0.4957
14215TIP3   OH264059   0.693   1.094   3.556 -0.2296 -0.0544 -0.4514
14215TIP3    H164060   0.697   1.188   3.540 -2.9193 -0.2788 -2.6553
14215TIP3    H264061   0.696   1.054   3.469 -1.5202 -1.9034  0.3107
14216TIP3   OH264062   6.523   3.493  13.977 -0.2666 -0.2376 -0.2350
14216TIP3    H164063   6.492   3.433  14.045 -0.4197  2.1315  1.8683
14216TIP3    H264064   6.560   3.567  14.026 -0.8153  1.7572 -2.7358
14217TIP3   OH264065   3.896   0.294   4.109  0.2854 -0.1389  0.5192
14217TIP3    H164066   3.914   0.367   4.050  0.1579 -0.3423  0.2252
14217TIP3    H264067   3.954   0.308   4.183  1.0252 -0.3075 -0.0177
14218TIP3   OH264068   2.080   5.713  14.298  0.0763 -0.3226  0.6857
14218TIP3    H164069   1.991   5.677  14.304 -0.7250  1.1569 -1.4415
14218TIP3    H264070   2.067   5.808  14.296  1.7054 -0.0971  0.3812
14219TIP3   OH264071   1.515   5.089  13.288 -0.4730 -0.1348  0.1166
14219TIP3    H164072   1.483   5.109  13.199 -0.0376  0.3771  0.0750
14219TIP3    H264073   1.440   5.047  13.331 -0.8158 -0.0298 -0.3680
14220TIP3   OH264074   6.713   6.573  11.798  0.0859 -0.4054  0.3871
14220TIP3    H164075   6.698   6.644  11.735 -1.8268 -1.1133  0.0190
14220TIP3    H264076   6.666   6.600  11.877  0.3736 -0.6893  0.6579
14221TIP3   OH264077   0.681   6.535   0.473  0.5936  1.0689 -0.6134
14221TIP3    H164078   0.712   6.603   0.414 -0.7020  1.7123 -0.5810
14221TIP3    H264079   0.588   6.526   0.452  0.1197  1.2848  1.2826
14222TIP3   OH264080   3.379   1.455  11.438 -0.2281  0.0477 -0.7328
14222TIP3    H164081   3.462   1.499  11.456 -0.1775 -0.0967 -0.6158
14222TIP3    H264082   3.312   1.521  11.457 -0.2717 -0.6846  1.8280
14223TIP3   OH264083   4.262   5.870  12.974 -0.3851  0.2421 -0.3088
14223TIP3    H164084   4.309   5.954  12.965  1.5848 -0.7625  0.2998
14223TIP3    H264085   4.252   5.860  13.069 -0.4136 -0.3241 -0.3762
14224TIP3   OH264086   4.452   3.473  11.280  0.4258  0.1694 -0.2549
14224TIP3    H164087   4.437   3.381  11.300  1.0954  0.3485  1.1138
14224TIP3    H264088   4.366   3.505  11.251  0.4905 -1.1839 -2.0506
14225TIP3   OH264089   2.722   4.048   3.040  0.0413  0.2571  0.3361
14225TIP3    H164090   2.693   4.027   2.951 -0.4343 -0.8754  0.7516
14225TIP3    H264091   2.677   4.130   3.062  0.5333  0.7951 -0.6395
14226TIP3   OH264092   0.183   2.605  12.885  0.1139  0.4414  0.5093
14226TIP3    H164093   0.232   2.525  12.900 -1.3028 -0.6860 -0.7554
14226TIP3    H264094   0.091   2.581  12.899 -0.2566  2.0757  1.0784
14227TIP3   OH264095   4.069   3.126  13.576  0.3978 -0.3029  0.3233
14227TIP3    H164096   4.160   3.149  13.598  0.6467 -1.8674  0.9949
14227TIP3    H264097   4.065   3.031  13.589 -1.2191 -0.3033 -0.1491
14228TIP3   OH264098   3.125   5.064   2.264 -0.4673  0.1974  0.0085
14228TIP3    H164099   3.208   5.098   2.228  0.0880  0.6626  1.6772
14228TIP3    H264100   3.150   4.986   2.313 -1.3168 -0.8287 -1.1561
14229TIP3   OH264101   6.705   3.752  15.717 -0.2835 -0.8919 -0.1407
14229TIP3    H164102   6.648   3.770  15.791  0.3936 -0.4476  0.2814
14229TIP3    H264103   6.712   3.836  15.671  2.6101 -0.0802  1.6395
14230TIP3   OH264104   6.767   6.478  11.156  0.0880  0.2077 -0.2476
14230TIP3    H164105   6.709   6.418  11.204 -1.1669  0.8226 -0.9780
14230TIP3    H264106   6.815   6.421  11.095  1.2892 -0.4972  1.3323
14231TIP3   OH264107   5.135   3.050  17.077  0.5293  0.5012  0.1839
14231TIP3    H164108   5.228   3.045  17.100  0.0450 -0.0864  2.0654
14231TIP3    H264109   5.111   3.141  17.093  0.4798  0.3633  0.9057
14232TIP3   OH264110   1.664   4.982  15.346 -0.0046 -0.4593 -0.2132
14232TIP3    H164111   1.704   4.907  15.390 -0.1400  0.0512  0.7999
14232TIP3    H264112   1.599   5.014  15.409  0.0767  0.5287 -0.6293
14233TIP3   OH264113   5.791   1.914  16.439 -0.5138  0.1475  0.3250
14233TIP3    H164114   5.728   1.972  16.482  1.5334  1.5123  1.5793
14233TIP3    H264115   5.855   1.973  16.399  1.2449 -1.1927  1.0635
14234TIP3   OH264116   5.259   3.811  15.119  0.1063 -0.2054  0.2681
14234TIP3    H164117   5.170   3.843  15.136 -0.1361  0.0338 -1.2937
14234TIP3    H264118   5.255   3.717  15.134 -0.0330  0.0015  1.6055
14235TIP3   OH264119   4.674   5.954  11.508  0.6928  0.1253  0.3629
14235TIP3    H164120   4.657   5.884  11.572  0.4246  0.0834  0.2451
14235TIP3    H264121   4.599   6.013  11.517 -0.9467 -1.5128 -2.1432
14236TIP3   OH264122   5.400   6.072   5.623 -0.6530  0.0311 -0.0116
14236TIP3    H164123   5.377   6.159   5.657  2.0178  0.8692 -0.2650
14236TIP3    H264124   5.402   6.083   5.528 -0.6664 -0.4139 -0.0635
14237TIP3   OH264125   0.753   1.217  15.272 -0.1120  0.1971  0.4389
14237TIP3    H164126   0.725   1.202  15.363  0.7200 -1.7561  0.4149
14237TIP3    H264127   0.844   1.187  15.270 -0.2608 -0.2060 -1.1441
14238TIP3   OH264128   2.434   2.230  13.078  0.4265  0.0823 -0.3557
14238TIP3    H164129   2.402   2.190  13.159 -0.8025  0.7635 -0.5074
14238TIP3    H264130   2.445   2.323  13.100 -1.3631  0.5496 -1.4073
14239TIP3   OH264131   2.061   2.365   0.864 -0.4937  0.8999 -0.3153
14239TIP3    H164132   2.133   2.427   0.874  0.3583 -0.4343  2.3611
14239TIP3    H264133   1.992   2.401   0.921 -0.1957 -0.2887  0.8134
14240TIP3   OH264134   4.825   4.150   3.892  0.0042 -0.0062  0.0372
14240TIP3    H164135   4.782   4.098   3.824 -0.3919  0.4496 -0.0616
14240TIP3    H264136   4.838   4.236   3.852 -0.6179  0.3973  0.6812
14241TIP3   OH264137   4.411   1.036   5.782 -0.2395  0.4930  0.4861
14241TIP3    H164138   4.372   1.054   5.867  1.0057 -0.5082  1.2966
14241TIP3    H264139   4.393   0.944   5.766  0.2968  0.4570  0.0738
14242TIP3   OH264140   5.905   5.658   2.238 -0.1141 -0.4780  0.1306
14242TIP3    H164141   5.982   5.676   2.184 -0.2914 -1.7786 -0.5678
14242TIP3    H264142   5.842   5.619   2.178 -0.7435 -0.8601  1.0265
14243TIP3   OH264143   6.152   0.941  10.982  0.0339 -0.7254 -0.0371
14243TIP3    H164144   6.227   0.889  10.953 -0.1691 -0.7488 -0.5304
14243TIP3    H264145   6.161   1.024  10.936 -0.6681 -1.0111 -0.7161
14244TIP3   OH264146   3.141   3.043  14.906  0.1826 -0.0725  0.4005
14244TIP3    H164147   3.081   3.107  14.867  0.1562  0.5353  1.4269
14244TIP3    H264148   3.211   3.096  14.943  0.3852 -0.6699  0.8725
14245TIP3   OH264149   0.019   0.397   0.039 -0.2516  0.1883  0.4512
14245TIP3    H164150   0.081   0.414   0.110 -3.3430  3.4118  2.5856
14245TIP3    H264151   0.066   0.419  -0.041  2.3109 -0.4926  1.7231
14246TIP3   OH264152   3.820   1.989   2.977  0.0995  0.6739 -0.3475
14246TIP3    H164153   3.794   2.069   3.022 -0.6804  0.3488 -0.2131
14246TIP3    H264154   3.742   1.963   2.927  0.3310 -0.0245 -0.3504
14247TIP3   OH264155   2.309   1.173   0.829  0.4760 -0.5286  0.2018
14247TIP3    H164156   2.263   1.251   0.858  0.7500 -0.7843  1.3351
14247TIP3    H264157   2.297   1.109   0.899  0.1143 -1.5693 -0.7822
14248TIP3   OH264158   0.781   2.188  16.338  0.4026  0.0950 -0.1005
14248TIP3    H164159   0.791   2.179  16.243  0.2417  1.6787 -0.2902
14248TIP3    H264160   0.834   2.118  16.375 -0.6228 -1.3948 -1.3851
14249TIP3   OH264161   3.866   2.769   2.011 -0.4068  0.1814  0.5466
14249TIP3    H164162   3.940   2.722   2.049 -0.2989 -0.2784 -0.2215
14249TIP3    H264163   3.903   2.818   1.938 -1.1019 -1.2507 -0.8073
14250TIP3   OH264164   2.999   2.760   0.158 -0.4558  0.3225  0.0523
14250TIP3    H164165   2.946   2.782   0.235 -1.3875 -0.3913 -0.3779
14250TIP3    H264166   3.034   2.844   0.128  0.5763  0.5187  1.7348
14251TIP3   OH264167   1.222   2.955   2.558  0.1127  0.5795 -0.6469
14251TIP3    H164168   1.241   2.899   2.483  0.9547  0.4773 -0.3663
14251TIP3    H264169   1.164   2.903   2.613  0.9876 -0.0662 -0.3304
14252TIP3   OH264170   6.163   4.949   4.329 -0.0797  0.1668  0.1726
14252TIP3    H164171   6.158   5.035   4.288 -0.5762  0.0758  0.0433
14252TIP3    H264172   6.078   4.937   4.371  0.9196  0.8801  2.4668
14253TIP3   OH264173   0.899   5.651  12.550  0.1109 -0.0682 -0.2977
14253TIP3    H164174   0.951   5.661  12.471  3.4243  1.5456  1.9763
14253TIP3    H264175   0.868   5.739  12.571  2.3467  0.1895  2.1483
14254TIP3   OH264176   1.280   0.233  11.499  0.2010 -0.4190  0.0352
14254TIP3    H164177   1.244   0.172  11.564  0.9383  1.1094  1.9545
14254TIP3    H264178   1.374   0.236  11.518  1.2764 -3.4762 -4.1634
14255TIP3   OH264179   2.196   0.143   4.794 -0.4734 -0.2076 -0.6393
14255TIP3    H164180   2.223   0.177   4.709  1.0991 -0.9741 -0.4467
14255TIP3    H264181   2.262   0.175   4.855 -1.7535  0.5826  0.3555
14256TIP3   OH264182   6.491   5.868  16.514 -0.2758 -0.1775 -0.1703
14256TIP3    H164183   6.512   5.914  16.432  0.0866 -0.9937 -0.5414
14256TIP3    H264184   6.432   5.927  16.560 -1.0948 -0.0420 -1.3699
14257TIP3   OH264185   2.451   6.373  12.337 -0.1512 -0.4387  0.2959
14257TIP3    H164186   2.500   6.374  12.419  1.4232 -1.2582 -0.6104
14257TIP3    H264187   2.380   6.311  12.353  0.3082 -0.8101  0.9546
14258TIP3   OH264188   4.315   5.110   5.026 -0.4402  1.0182 -0.7606
14258TIP3    H164189   4.304   5.082   4.935  2.5382 -0.1758 -0.7996
14258TIP3    H264190   4.312   5.029   5.077 -0.7048  1.5464  0.0853
14259TIP3   OH264191   3.908   1.489   3.270 -0.0549 -0.5453  0.0568
14259TIP3    H164192   3.951   1.464   3.352 -2.1241 -1.6171  0.8460
14259TIP3    H264193   3.885   1.581   3.281  1.4286 -0.1412 -0.1224
14260TIP3   OH264194   5.348   4.459  13.609 -0.8074 -0.1434  0.2266
14260TIP3    H164195   5.361   4.534  13.551  1.4816 -1.5489 -1.1563
14260TIP3    H264196   5.405   4.475  13.683 -0.5554 -0.3678  0.0811
14261TIP3   OH264197   2.053   4.566  14.835  0.2801  0.3134 -0.4391
14261TIP3    H164198   2.052   4.488  14.890  2.0523  0.7694  0.2688
14261TIP3    H264199   1.967   4.606  14.848 -0.7182 -1.6133 -0.9646
14262TIP3   OH264200   1.358   2.059   0.458 -0.3764  0.1221 -0.5257
14262TIP3    H164201   1.375   1.974   0.418 -0.6016 -0.2082  0.0679
14262TIP3    H264202   1.359   2.042   0.552  0.8704  1.0291 -0.3575
14263TIP3   OH264203   2.620   0.709  14.657 -0.4061 -0.1164 -0.2154
14263TIP3    H164204   2.628   0.656  14.736 -3.4640 -2.0350 -1.0879
14263TIP3    H264205   2.604   0.797  14.689 -1.4098 -0.8268  1.3207
14264TIP3   OH264206   0.141   2.368  12.037  0.6356  0.2269  0.1436
14264TIP3    H164207   0.127   2.317  11.958 -0.4369 -0.0547  0.5029
14264TIP3    H264208   0.107   2.455  12.016 -0.4868 -0.1014  0.5949
14265TIP3   OH264209   4.050   3.760   5.640  0.0055  0.8979  0.7833
14265TIP3    H164210   4.113   3.828   5.616 -1.1177  2.3494  1.8439
14265TIP3    H264211   3.994   3.801   5.706 -0.8185 -1.0028  1.3080
14266TIP3   OH264212   1.751   6.466   0.577 -0.1602 -0.1748  0.0989
14266TIP3    H164213   1.844   6.456   0.597  0.0987 -1.0235 -1.4382
14266TIP3    H264214   1.742   6.556   0.547  0.6593 -0.8034 -2.1553
14267TIP3   OH264215   3.572   6.703  12.086 -0.2133 -0.3076  0.7772
14267TIP3    H164216   3.537   6.728  12.001  0.1778  1.6572  1.1535
14267TIP3    H264217   3.663   6.678  12.068 -0.8460 -2.3510  0.2715
14268TIP3   OH264218   1.106   2.971  12.314  0.5080 -0.0396  0.1526
14268TIP3    H164219   1.075   3.061  12.306  0.1122 -0.1826  0.0668
14268TIP3    H264220   1.201   2.979  12.324  0.4232  0.4049  0.5830
14269TIP3   OH264221   1.425   2.050   5.722  0.5756 -0.1182  0.6569
14269TIP3    H164222   1.447   2.105   5.646  0.0328  0.0981  0.6551
14269TIP3    H264223   1.340   2.011   5.700  0.8761 -0.8285  0.7315
14270TIP3   OH264224   1.602   5.844   3.387 -0.0989  0.1492 -0.1219
14270TIP3    H164225   1.678   5.853   3.444  1.5372 -2.2570 -1.8223
14270TIP3    H264226   1.609   5.916   3.325 -0.1441  0.9136  0.7529
14271TIP3   OH264227   2.282   1.832  13.662  0.4006 -0.2393  0.2736
14271TIP3    H164228   2.263   1.753  13.612  0.7638 -0.0176 -0.2245
14271TIP3    H264229   2.222   1.829  13.736 -1.2835  0.2544 -1.0430
14272TIP3   OH264230   0.449   5.563   1.155  0.0083  0.4857  0.3305
14272TIP3    H164231   0.433   5.617   1.077 -0.0540 -0.6634 -0.4643
14272TIP3    H264232   0.541   5.538   1.148 -0.7400 -2.0716 -0.9724
14273TIP3   OH264233   0.751   2.318   6.284 -0.4115 -0.0798 -0.1545
14273TIP3    H164234   0.731   2.411   6.300 -3.7871 -0.8991  0.5666
14273TIP3    H264235   0.797   2.290   6.364 -0.9609  0.5042  0.3719
14274TIP3   OH264236   5.929   5.278  16.601 -0.0117 -0.0452  0.0408
14274TIP3    H164237   6.009   5.324  16.576 -1.1993  1.8350 -0.4296
14274TIP3    H264238   5.936   5.192  16.560  1.7780  0.0937  0.0424
14275TIP3   OH264239   6.314   0.118  12.298  0.0079 -0.0583  0.7693
14275TIP3    H164240   6.351   0.031  12.286 -1.2479 -0.5115  0.1282
14275TIP3    H264241   6.349   0.170  12.226  0.3746 -0.1569  0.8774
14276TIP3   OH264242   3.757   5.914  11.950  0.4515  0.1101  0.1178
14276TIP3    H164243   3.846   5.881  11.944  0.9415  1.6032 -1.1309
14276TIP3    H264244   3.747   5.939  12.042  0.0827 -3.3261  1.0983
14277TIP3   OH264245   6.271   3.512  13.831  0.1553  0.0776  0.2678
14277TIP3    H164246   6.216   3.570  13.884  1.1293 -0.7309  2.2483
14277TIP3    H264247   6.356   3.514  13.874  1.1945 -0.0273 -1.7550
14278TIP3   OH264248   4.927   2.642  13.694  0.4287 -0.3240  0.6562
14278TIP3    H164249   4.957   2.669  13.781  0.2280  0.4139  0.4989
14278TIP3    H264250   4.962   2.708  13.634 -1.0564  0.2828  0.4136
14279TIP3   OH264251   5.625   5.635  16.700  0.1280  0.2886  0.1780
14279TIP3    H164252   5.534   5.649  16.675  0.0076 -0.5370  0.1558
14279TIP3    H264253   5.667   5.599  16.622 -0.1903 -2.0373  1.0417
14280TIP3   OH264254   5.202   2.609   3.751 -0.1750 -0.0512 -0.0568
14280TIP3    H164255   5.289   2.628   3.716  0.3259 -0.5022  0.9449
14280TIP3    H264256   5.218   2.567   3.836 -1.3535 -0.5700 -0.0766
14281TIP3   OH264257   2.805   5.076   4.009  0.2398 -0.8160 -1.0812
14281TIP3    H164258   2.850   5.032   3.937  2.0770  1.2151 -1.2367
14281TIP3    H264259   2.807   5.169   3.985  0.1351 -0.1950  1.1781
14282TIP3   OH264260   3.062   4.501  15.423 -0.5083 -0.0529  0.0030
14282TIP3    H164261   3.103   4.516  15.338 -0.1793 -2.3019 -0.2703
14282TIP3    H264262   2.971   4.525  15.410 -0.4037 -0.1189 -0.9254
14283TIP3   OH264263   1.769   4.772  15.506 -0.6213 -0.2359  0.4151
14283TIP3    H164264   1.842   4.714  15.486 -1.1668 -1.3268  1.4531
14283TIP3    H264265   1.691   4.720  15.486 -1.1637  1.7111 -2.9163
14284TIP3   OH264266   6.023   1.144  14.186 -0.2575  0.2263 -0.3681
14284TIP3    H164267   5.977   1.064  14.209 -2.3009  1.8032  1.3180
14284TIP3    H264268   5.993   1.164  14.097  0.4043 -0.9535 -0.8656
14285TIP3   OH264269   2.247   5.665   0.685  0.0774  0.1508  0.0077
14285TIP3    H164270   2.217   5.717   0.760 -0.4458  0.9930 -0.7659
14285TIP3    H264271   2.267   5.731   0.617 -0.3627 -0.6469 -0.9024
14286TIP3   OH264272   5.513   4.138  13.368  0.1184 -0.6364 -0.1612
14286TIP3    H164273   5.567   4.208  13.405  0.1066  0.0440 -1.4034
14286TIP3    H264274   5.423   4.164  13.388  0.1493 -0.7115  0.0829
14287TIP3   OH264275   1.571   0.590   3.109  0.2256 -0.5433  0.4318
14287TIP3    H164276   1.621   0.528   3.162 -1.3520 -2.5719 -0.4289
14287TIP3    H264277   1.530   0.537   3.041 -2.5156  1.1995  0.6666
14288TIP3   OH264278   4.551   0.310   4.276 -0.4778 -0.2058 -0.5573
14288TIP3    H164279   4.548   0.236   4.217  0.9642 -0.3885 -0.4368
14288TIP3    H264280   4.523   0.275   4.361 -1.5642 -0.1804 -0.9080
14289TIP3   OH264281   5.992   6.177  13.148  0.0669  0.3453 -0.7167
14289TIP3    H164282   5.898   6.181  13.133 -0.1292 -0.6320  0.1703
14289TIP3    H264283   6.024   6.265  13.128 -1.4165  1.4100  1.3871
14290TIP3   OH264284   6.667   0.796   4.704 -0.3349 -0.1529  0.0257
14290TIP3    H164285   6.603   0.833   4.764 -0.8137 -0.4845 -0.2797
14290TIP3    H264286   6.707   0.724   4.752 -2.7958 -2.3061 -1.0965
14291TIP3   OH264287   0.764   5.650  14.915  0.3750  0.1304  0.0636
14291TIP3    H164288   0.856   5.635  14.935  0.4521 -0.5523 -0.7868
14291TIP3    H264289   0.723   5.665  15.001  1.0815 -0.6428  0.5353
14292TIP3   OH264290   5.216   1.043  12.743  0.1529 -0.3976 -0.0309
14292TIP3    H164291   5.285   1.099  12.779  0.9341  0.6087 -2.9714
14292TIP3    H264292   5.216   0.966  12.800  2.1418  0.5828  1.3637
14293TIP3   OH264293   4.391   5.146  14.673 -0.8719 -0.8138 -0.2238
14293TIP3    H164294   4.437   5.096  14.605 -1.0191 -1.5831  0.2293
14293TIP3    H264295   4.461   5.186  14.724 -0.7058 -1.5527  0.1414
14294TIP3   OH264296   2.596   1.492   0.365 -0.2056  0.1323  0.7806
14294TIP3    H164297   2.628   1.403   0.375 -2.9663 -1.0755 -0.6199
14294TIP3    H264298   2.619   1.536   0.447  0.5931 -2.0471  1.7494
14295TIP3   OH264299   4.195   2.932   4.663  0.5758  0.3115  0.2657
14295TIP3    H164300   4.266   2.907   4.604 -0.7711 -1.4398 -0.6475
14295TIP3    H264301   4.136   2.984   4.609 -0.0838 -0.3312  0.3577
14296TIP3   OH264302   0.189   4.833   0.450  0.1055  0.1795 -0.3503
14296TIP3    H164303   0.156   4.759   0.500 -0.2639 -0.2110 -1.1684
14296TIP3    H264304   0.139   4.908   0.483  0.1531 -0.0019  0.1481
14297TIP3   OH264305   0.870   4.217  11.868  0.3321  0.0683 -0.2481
14297TIP3    H164306   0.866   4.252  11.779 -1.7312  0.0500 -0.1866
14297TIP3    H264307   0.826   4.283  11.921  2.2278  0.4461  0.9087
14298TIP3   OH264308   3.134   4.299  11.371 -0.5911  0.3649  0.3093
14298TIP3    H164309   3.101   4.360  11.305 -0.5469  0.2674  0.1955
14298TIP3    H264310   3.117   4.343  11.454  0.5105  1.0421  0.1762
14299TIP3   OH264311   5.330   5.343   1.585  0.1083 -0.0602  0.1292
14299TIP3    H164312   5.309   5.294   1.665 -0.8346 -0.4818 -0.3708
14299TIP3    H264313   5.289   5.293   1.515  2.2695 -0.5721 -0.8312
14300TIP3   OH264314   0.019   2.860   2.933 -0.5846  0.3277  0.3640
14300TIP3    H164315  -0.052   2.886   2.874  0.4772  1.3192 -0.4965
14300TIP3    H264316   0.088   2.829   2.875  0.4548  1.2835  1.0795
14301TIP3   OH264317   5.562   1.327  10.703  0.2983  0.0253  0.3387
14301TIP3    H164318   5.471   1.305  10.684 -0.0772  0.7825  1.2383
14301TIP3    H264319   5.588   1.388  10.634  0.5874 -1.3018 -0.7588
14302TIP3   OH264320   3.514   0.965   4.979  0.1369  0.1776 -0.3482
14302TIP3    H164321   3.429   0.923   4.963  0.1798 -0.2379  0.5269
14302TIP3    H264322   3.578   0.906   4.937  0.1825 -0.5565  0.7413
14303TIP3   OH264323   2.253   2.274   5.539 -0.6942 -0.1197 -0.3345
14303TIP3    H164324   2.258   2.180   5.556  0.5609 -0.0512 -0.2694
14303TIP3    H264325   2.339   2.307   5.564 -0.4923  0.7552 -2.1395
14304TIP3   OH264326   2.392   2.357   4.307  0.3567 -0.0646  0.1555
14304TIP3    H164327   2.468   2.406   4.275 -1.3665  2.3087 -0.4340
14304TIP3    H264328   2.409   2.266   4.280  2.8308  0.4693 -0.1915
14305TIP3   OH264329   1.504   6.093   2.583  0.3138  0.1502 -0.7280
14305TIP3    H164330   1.563   6.022   2.561  0.7352  0.4365 -0.5344
14305TIP3    H264331   1.493   6.088   2.678  0.7335  0.6439 -0.6525
14306TIP3   OH264332   4.182   5.135   1.202  1.2163 -0.2077 -0.1703
14306TIP3    H164333   4.138   5.218   1.215  0.7399 -0.4583 -0.1901
14306TIP3    H264334   4.265   5.144   1.248  0.3207 -0.4467  1.5131
14307TIP3   OH264335   2.697   4.215  11.741  0.2506  0.1719 -0.0838
14307TIP3    H164336   2.617   4.183  11.782 -0.6881  0.1956 -1.8507
14307TIP3    H264337   2.730   4.281  11.801 -1.8597  1.2122 -0.0186
14308TIP3   OH264338   2.388   1.393   3.446  0.1907  0.2429 -0.3309
14308TIP3    H164339   2.475   1.366   3.419 -0.1369 -0.6916 -0.4662
14308TIP3    H264340   2.330   1.362   3.377 -0.2959  0.5184 -0.0551
14309TIP3   OH264341   4.371   1.906  11.056 -0.1701  0.0704  0.3426
14309TIP3    H164342   4.357   1.985  11.109 -0.8508 -0.7285  1.3854
14309TIP3    H264343   4.374   1.937  10.966  0.3048  1.3765  0.8032
14310TIP3   OH264344   3.194   2.249   1.536 -0.0807  1.0654  0.0966
14310TIP3    H164345   3.119   2.203   1.499  0.6193  0.1735 -0.2560
14310TIP3    H264346   3.206   2.211   1.623  1.0818 -0.1241 -0.5634
14311TIP3   OH264347   6.087   5.311   5.686  0.3429  0.1298  0.3738
14311TIP3    H164348   5.997   5.339   5.703 -0.4324 -0.7690 -2.0989
14311TIP3    H264349   6.124   5.380   5.631  1.3574  0.7741  1.8471
14312TIP3   OH264350   3.766   0.448  11.550  0.5682  0.3137 -0.2312
14312TIP3    H164351   3.861   0.444  11.554  0.6019 -1.1237 -1.8165
14312TIP3    H264352   3.739   0.362  11.518 -1.1911  1.0243 -0.7529
14313TIP3   OH264353   0.693   6.385   6.497  0.4914 -0.0218 -0.5537
14313TIP3    H164354   0.739   6.304   6.521  0.1598 -0.4589 -1.3951
14313TIP3    H264355   0.600   6.363   6.503  0.3697  0.8497  1.0924
14314TIP3   OH264356   4.374   2.426  13.237  0.3218  0.3701 -0.1590
14314TIP3    H164357   4.311   2.471  13.181 -0.4672 -0.4383  0.0801
14314TIP3    H264358   4.452   2.483  13.235 -0.0701  0.8895 -1.2056
14315TIP3   OH264359   3.319   0.156   5.424 -0.2006  0.5126 -0.3523
14315TIP3    H164360   3.345   0.243   5.456  0.4591 -0.1508  0.9524
14315TIP3    H264361   3.355   0.152   5.336  2.2832  0.4739  0.6113
14316TIP3   OH264362   2.191   3.641  12.551 -0.9202 -0.0567  0.2766
14316TIP3    H164363   2.273   3.690  12.555  0.6918 -2.4599 -1.4956
14316TIP3    H264364   2.156   3.645  12.640  0.1022  2.6614  0.5865
14317TIP3   OH264365   0.221   3.598   1.074 -0.0738 -0.0852 -0.5136
14317TIP3    H164366   0.279   3.669   1.047  0.6518 -0.0601  1.0899
14317TIP3    H264367   0.133   3.632   1.058  0.2673  1.1393  0.1640
14318TIP3   OH264368   0.869   4.086  13.847 -0.2113 -0.1430  0.7440
14318TIP3    H164369   0.781   4.064  13.877 -0.7786  2.1315  0.8496
14318TIP3    H264370   0.897   4.157  13.906  1.7262 -0.8861  0.7627
14319TIP3   OH264371   1.628   0.845   4.197 -0.1075  0.8162 -0.2260
14319TIP3    H164372   1.686   0.843   4.273  1.1887  1.2150 -1.1898
14319TIP3    H264373   1.684   0.874   4.125 -0.9950 -0.8443 -1.6180
14320TIP3   OH264374   0.178   6.442  14.191 -0.1828  0.0289  0.2860
14320TIP3    H164375   0.136   6.422  14.107  0.1708  0.2067  0.0596
14320TIP3    H264376   0.258   6.489  14.166 -0.3101  0.4928  0.7450
14321TIP3   OH264377   4.744   4.482   3.034 -0.2861 -0.3936  0.3656
14321TIP3    H164378   4.745   4.577   3.020  0.1325 -0.4422  0.0863
14321TIP3    H264379   4.757   4.444   2.948 -1.2029 -0.7182  0.3634
14322TIP3   OH264380   1.745   1.059   2.977  0.4242 -0.2690 -0.2178
14322TIP3    H164381   1.737   0.996   3.048  1.7628 -1.3124 -0.9451
14322TIP3    H264382   1.839   1.063   2.959  0.6630  3.7473  1.3819
14323TIP3   OH264383   2.072   1.478   4.982  0.3085  0.4329  0.2946
14323TIP3    H164384   2.038   1.563   4.955 -2.0517 -0.6462 -0.2895
14323TIP3    H264385   2.149   1.499   5.035  0.4283  2.8714 -0.7532
14324TIP3   OH264386   5.450   1.857  14.713 -0.3475 -0.4466 -0.5651
14324TIP3    H164387   5.362   1.893  14.705 -0.3058 -0.2917 -0.3320
14324TIP3    H264388   5.459   1.837  14.806  0.3726  0.8440 -0.3493
14325TIP3   OH264389   6.316   2.831   1.366  0.0591  0.3586  0.1298
14325TIP3    H164390   6.287   2.798   1.451 -2.0839  0.2050 -0.6515
14325TIP3    H264391   6.379   2.765   1.335 -0.3648 -0.3966  0.8534
14326TIP3   OH264392   5.627   4.726   0.926  0.2051 -0.1320 -0.3849
14326TIP3    H164393   5.585   4.705   0.842 -1.9044 -0.8069  0.8064
14326TIP3    H264394   5.716   4.690   0.917 -0.6457 -2.0444 -1.5718
14327TIP3   OH264395   4.047   0.484  14.542 -0.0095  0.2006 -0.1551
14327TIP3    H164396   3.994   0.457  14.617  1.6138  0.2239  1.0170
14327TIP3    H264397   3.985   0.488  14.469 -1.3132 -1.3622  0.8304
14328TIP3   OH264398   4.810   3.112  12.808 -0.1359  0.2638  0.0741
14328TIP3    H164399   4.802   3.187  12.868  0.1762  0.2598  0.1212
14328TIP3    H264400   4.859   3.047  12.858 -0.4554  0.0056  0.0509
14329TIP3   OH264401   1.534   1.959   3.603 -0.1100 -0.5223 -0.1348
14329TIP3    H164402   1.519   1.866   3.588  3.7398 -1.2860  0.2715
14329TIP3    H264403   1.505   1.974   3.693  0.3878 -1.6164  0.2152
14330TIP3   OH264404   0.076   4.175  12.873  0.2008 -0.4159 -0.3452
14330TIP3    H164405   0.152   4.150  12.926 -0.2298 -2.4172 -0.6238
14330TIP3    H264406   0.046   4.093  12.835 -2.2503  0.3251 -0.0728
14331TIP3   OH264407   4.437   3.772   3.966  0.2453 -0.3286  0.1193
14331TIP3    H164408   4.397   3.859   3.970  2.6831  1.0677 -3.2365
14331TIP3    H264409   4.494   3.768   4.042  0.9994  1.5215 -0.3226
14332TIP3   OH264410   2.360   2.950  14.346 -0.2908 -0.2756  0.0567
14332TIP3    H164411   2.370   3.008  14.422  2.7781 -1.4840  0.6660
14332TIP3    H264412   2.382   2.863  14.379 -0.1207 -1.0139 -1.9185
14333TIP3   OH264413   5.367   0.065  12.914 -0.4323 -0.3602  0.2434
14333TIP3    H164414   5.341  -0.007  12.972  0.5424 -1.4448 -0.6304
14333TIP3    H264415   5.455   0.088  12.942 -0.7531  0.5181  0.5333
14334TIP3   OH264416   6.177   2.660  12.436  0.1575 -0.1871 -0.1792
14334TIP3    H164417   6.238   2.586  12.436 -2.4632 -2.4137  0.4165
14334TIP3    H264418   6.136   2.657  12.522 -1.2304  0.9253 -0.7866
14335TIP3   OH264419   3.101   4.332  12.902 -0.0859  0.1485  0.6276
14335TIP3    H164420   3.097   4.426  12.918  1.4058  0.3549 -0.1244
14335TIP3    H264421   3.165   4.299  12.965 -1.0779 -0.4684  1.3228
14336TIP3   OH264422   1.223   5.837  14.022  0.3651  0.0164 -0.0022
14336TIP3    H164423   1.135   5.833  13.985  0.4902 -0.1917 -0.2762
14336TIP3    H264424   1.272   5.769  13.976  0.8114  0.4815 -0.2264
14337TIP3   OH264425   6.770   4.631  12.285  0.2377 -0.0393 -0.2589
14337TIP3    H164426   6.816   4.700  12.332  0.0892  0.0251 -0.2086
14337TIP3    H264427   6.678   4.656  12.290  0.3024  0.3917 -1.2925
14338TIP3   OH264428   1.528   5.922  14.366 -0.4264  0.6929 -0.1929
14338TIP3    H164429   1.439   5.887  14.371  0.4051 -1.3932  0.0544
14338TIP3    H264430   1.580   5.866  14.422  1.1819  1.5607 -0.7844
14339TIP3   OH264431   3.243   6.617  12.446  0.3624 -0.6713  0.2305
14339TIP3    H164432   3.207   6.661  12.369 -2.0052 -0.2929  1.4884
14339TIP3    H264433   3.167   6.573  12.485  1.0077  1.0900  3.6308
14340TIP3   OH264434   1.094   2.111   4.089 -0.8224  0.0773 -0.0076
14340TIP3    H164435   1.138   2.142   4.009  0.1222 -0.3173  0.3418
14340TIP3    H264436   1.056   2.027   4.064  0.7572 -0.7687  0.3405
14341TIP3   OH264437   0.921   0.213   6.169 -0.6338  0.0346  0.4848
14341TIP3    H164438   0.919   0.231   6.263 -1.3486  1.2560  0.2403
14341TIP3    H264439   0.832   0.232   6.139 -0.5714 -0.9486 -0.3336
14342TIP3   OH264440   6.659   4.687   0.287  0.5626  0.0882  0.1273
14342TIP3    H164441   6.613   4.624   0.342  1.0733 -0.6114 -0.2371
14342TIP3    H264442   6.695   4.634   0.216  1.0924  0.7766 -0.1170
14343TIP3   OH264443   6.275   2.331   0.886 -0.1962  0.3371  0.7265
14343TIP3    H164444   6.267   2.363   0.797 -0.3351 -2.9282 -0.5010
14343TIP3    H264445   6.218   2.388   0.938  0.1875  2.5016 -1.1745
14344TIP3   OH264446   0.459   1.337  12.850 -0.2462  0.4392 -0.2517
14344TIP3    H164447   0.528   1.387  12.893 -0.5675  0.0769  0.7043
14344TIP3    H264448   0.396   1.402  12.821 -0.2010  0.6638  0.1523
14345TIP3   OH264449   0.444   1.864  15.024  0.0453 -0.3682  0.7028
14345TIP3    H164450   0.483   1.897  15.105  0.2459  0.5119  0.2551
14345TIP3    H264451   0.447   1.769  15.034  3.8244 -0.4246  0.0236
14346TIP3   OH264452   2.860   1.467   2.444 -0.5143  0.3244 -0.0420
14346TIP3    H164453   2.882   1.386   2.398  0.8106 -0.0947  1.2810
14346TIP3    H264454   2.897   1.536   2.390  0.3100 -0.1001 -0.0254
14347TIP3   OH264455   6.304   3.955  16.615 -0.5948 -0.6985  0.1826
14347TIP3    H164456   6.275   3.882  16.559 -1.2853 -1.4787  1.5075
14347TIP3    H264457   6.225   3.980  16.663 -0.0176 -0.0484  0.7982
14348TIP3   OH264458   5.736   3.407  15.497 -0.5227  0.4289  0.2874
14348TIP3    H164459   5.691   3.492  15.505 -0.0851  0.6615  0.2542
14348TIP3    H264460   5.804   3.422  15.432 -1.1511 -0.2457 -0.5483
14349TIP3   OH264461   1.275   2.256  15.251 -0.0206  0.2021  0.0861
14349TIP3    H164462   1.275   2.161  15.240  0.0936  0.2319 -0.1885
14349TIP3    H264463   1.184   2.281  15.239  0.2245  0.3268 -1.7266
14350TIP3   OH264464   6.030   6.678  14.066  0.4320  0.0952 -0.3391
14350TIP3    H164465   6.013   6.595  14.021  0.2645 -1.0429  1.7735
14350TIP3    H264466   6.113   6.664  14.111  1.5189  1.8552 -1.7350
14351TIP3   OH264467   1.306   5.565  10.764 -0.3421 -0.4388  0.0139
14351TIP3    H164468   1.353   5.482  10.766  1.1341  0.4147  2.3681
14351TIP3    H264469   1.375   5.631  10.754 -1.4374  0.5597 -1.0855
14352TIP3   OH264470   2.896   2.846   0.397  0.1147 -0.1280  0.2643
14352TIP3    H164471   2.834   2.838   0.470  0.5077 -0.2999  0.5824
14352TIP3    H264472   2.903   2.940   0.383  0.4122 -0.0687  0.7788
14353TIP3   OH264473   6.632   6.713  13.656  0.5156 -0.4365  0.0743
14353TIP3    H164474   6.627   6.684  13.747 -2.0110  0.4785  0.2433
14353TIP3    H264475   6.564   6.663  13.611 -0.7230  1.7760 -0.5573
14354TIP3   OH264476   4.237   4.173  12.296  0.2230 -0.2100  0.3025
14354TIP3    H164477   4.173   4.126  12.349 -1.8219 -1.2023 -2.9453
14354TIP3    H264478   4.220   4.266  12.314  0.3031 -0.5455  2.1782
14355TIP3   OH264479   5.163   4.083   1.271  0.3388 -0.2279  0.1934
14355TIP3    H164480   5.224   4.151   1.241  0.9079 -1.1361 -0.7148
14355TIP3    H264481   5.119   4.053   1.192 -1.4301  0.5104  0.8509
14356TIP3   OH264482   2.785   1.240   3.439 -0.0705 -0.3145 -0.3626
14356TIP3    H164483   2.727   1.175   3.478 -0.3484 -1.3169 -2.3833
14356TIP3    H264484   2.853   1.254   3.505  0.3462 -3.1252 -0.1268
14357TIP3   OH264485   3.091   3.031   5.471 -0.2611  0.2706 -0.1955
14357TIP3    H164486   2.995   3.038   5.476 -0.6210 -2.3512 -2.1045
14357TIP3    H264487   3.122   3.073   5.551 -3.0699  0.1813  1.0186
14358TIP3   OH264488   4.776   3.215   4.401  0.4781  0.4494  0.2032
14358TIP3    H164489   4.832   3.240   4.328  2.7923  0.3083  1.8792
14358TIP3    H264490   4.782   3.289   4.461 -1.3824  0.5515  0.2796
14359TIP3   OH264491   0.850   5.173   3.352 -0.5064 -0.2579 -0.3943
14359TIP3    H164492   0.802   5.246   3.390 -0.0287  0.1911 -0.6441
14359TIP3    H264493   0.812   5.161   3.265  0.0592  0.3198 -0.7247
14360TIP3   OH264494   0.518   6.264   3.911 -0.4343 -0.1802  0.0248
14360TIP3    H164495   0.437   6.243   3.959  1.0526  0.4078  2.9067
14360TIP3    H264496   0.494   6.254   3.819 -2.9553 -3.0354  0.8885
14361TIP3   OH264497   6.051   1.870  15.174  0.4669  0.3303  0.4269
14361TIP3    H164498   6.025   1.878  15.265  1.3392 -0.7746  0.7831
14361TIP3    H264499   6.077   1.779  15.164 -1.8193 -0.1641 -1.5269
14362TIP3   OH264500   0.342   3.658  17.005 -0.3493 -0.2375  0.4102
14362TIP3    H164501   0.280   3.605  17.055 -0.0532  0.0422  1.0810
14362TIP3    H264502   0.293   3.685  16.928 -0.6784 -1.0179  0.3385
14363TIP3   OH264503   6.061   6.300  12.320  0.7100  0.3699  0.1541
14363TIP3    H164504   6.117   6.246  12.375  0.9852  0.4763 -0.0171
14363TIP3    H264505   6.120   6.365  12.282  0.5691  0.1480 -0.4586
14364TIP3   OH264506   1.525   0.579  14.323 -0.2831 -0.0756 -0.1300
14364TIP3    H164507   1.458   0.587  14.255 -1.2615 -1.8591  0.5785
14364TIP3    H264508   1.481   0.533  14.395  0.5450  2.2901  1.9678
14365TIP3   OH264509   1.456   3.526  12.640  0.6035 -0.3146  0.6018
14365TIP3    H164510   1.469   3.577  12.720  0.7204  0.2891  0.2076
14365TIP3    H264511   1.487   3.584  12.570  0.2423 -0.7243  0.0958
14366TIP3   OH264512   2.451   0.533  15.041  0.1790 -0.3612  0.3926
14366TIP3    H164513   2.405   0.498  14.965  0.2014  0.9565 -0.2552
14366TIP3    H264514   2.510   0.599  15.004 -0.3358  0.8143  1.6224
14367TIP3   OH264515   0.858   2.847   2.091 -0.3146  0.1783  0.7712
14367TIP3    H164516   0.850   2.940   2.114  0.6784  0.0791  1.5718
14367TIP3    H264517   0.879   2.847   1.998  2.2053  0.8785  1.3012
14368TIP3   OH264518   2.817   6.424   1.299 -0.1212 -0.0550  0.0030
14368TIP3    H164519   2.757   6.457   1.367 -0.7377 -1.6531  0.2721
14368TIP3    H264520   2.891   6.389   1.349 -0.0447 -0.1844 -0.2041
14369TIP3   OH264521   5.653   3.503   1.558 -0.4737 -0.5561 -0.1051
14369TIP3    H164522   5.674   3.570   1.623 -0.3548  0.3950 -1.1178
14369TIP3    H264523   5.718   3.434   1.573  0.0450  0.0041  0.2627
14370TIP3   OH264524   3.737   1.819   0.617 -0.1576  0.0817  0.2559
14370TIP3    H164525   3.798   1.791   0.685 -1.0594 -0.7835  0.7212
14370TIP3    H264526   3.769   1.905   0.589  1.1411 -0.2726  0.6478
14371TIP3   OH264527   5.638   2.927  14.180 -1.2250  0.2787 -0.1556
14371TIP3    H164528   5.576   2.875  14.129  0.0115 -1.2891 -0.1108
14371TIP3    H264529   5.722   2.884  14.166 -0.6171  0.7037  2.0400
14372TIP3   OH264530   2.371   4.040  16.468 -0.0831  0.4926  0.2517
14372TIP3    H164531   2.429   4.042  16.392  1.3337  1.2853  1.3072
14372TIP3    H264532   2.312   4.114  16.455  0.2741  0.7358 -0.0004
14373TIP3   OH264533   0.359   5.174  14.775  0.0477 -0.1371 -0.5240
14373TIP3    H164534   0.404   5.099  14.813 -0.1539  0.1750  0.3587
14373TIP3    H264535   0.429   5.232  14.744  0.2892  0.4877  1.1137
14374TIP3   OH264536   2.013   2.168  14.955  0.2242 -0.3961  0.5548
14374TIP3    H164537   2.095   2.218  14.951 -0.8757  1.4804  0.9545
14374TIP3    H264538   1.967   2.191  14.874 -1.5366  1.4754  2.0552
14375TIP3   OH264539   0.360   5.236   0.852 -0.1720 -0.6997  0.0142
14375TIP3    H164540   0.336   5.266   0.939 -0.3536 -0.3552 -0.1546
14375TIP3    H264541   0.402   5.311   0.811 -1.4616 -0.3672 -0.7376
14376TIP3   OH264542   2.713   4.589   4.198  0.8628 -0.6737 -0.7117
14376TIP3    H164543   2.737   4.499   4.175 -1.4163 -1.5064  0.0332
14376TIP3    H264544   2.660   4.620   4.125  0.7901 -0.2970 -0.5017
14377TIP3   OH264545   3.899   1.391  17.235  0.6827  0.3027  0.4356
14377TIP3    H164546   3.879   1.389  17.329  0.3659  2.6982  0.4358
14377TIP3    H264547   3.864   1.474  17.204  0.5197 -0.5918 -1.8982
14378TIP3   OH264548   2.229   4.632   1.273  0.6295  0.2993  0.1047
14378TIP3    H164549   2.267   4.687   1.342 -0.0512 -2.1874  2.5672
14378TIP3    H264550   2.135   4.647   1.280  0.5109 -0.4758  0.1828
14379TIP3   OH264551   6.341   0.662  14.549  0.0265 -0.5422  0.2024
14379TIP3    H164552   6.368   0.588  14.603  1.0971  0.4659  1.0753
14379TIP3    H264553   6.398   0.659  14.472 -1.6459 -2.1088 -1.0341
14380TIP3   OH264554   3.906   6.438  14.393 -0.4386  0.1987 -0.3006
14380TIP3    H164555   3.859   6.385  14.328 -0.6258 -0.3333  0.2600
14380TIP3    H264556   3.836   6.484  14.440 -0.2891  0.7571 -0.6228
14381TIP3   OH264557   1.064   6.071  12.462  0.3446  0.1295  0.5103
14381TIP3    H164558   1.129   6.001  12.452  0.8383  0.6833 -0.1600
14381TIP3    H264559   0.992   6.029  12.509  0.1441 -1.1485 -0.8849
14382TIP3   OH264560   4.978   3.228  12.006  0.4951 -0.3544 -0.5986
14382TIP3    H164561   4.941   3.206  12.091 -0.2786 -0.2815 -0.9044
14382TIP3    H264562   4.931   3.170  11.945  1.1212 -0.4843 -0.9580
14383TIP3   OH264563   0.271   6.779   5.861  0.1533 -0.0048 -0.2223
14383TIP3    H164564   0.320   6.757   5.940 -0.6104 -0.6302  0.0889
14383TIP3    H264565   0.179   6.766   5.885 -0.1091  0.1312 -1.1102
14384TIP3   OH264566   1.219   1.981  15.295  0.0013 -0.2333  0.3774
14384TIP3    H164567   1.141   1.928  15.313  0.9247 -1.6548  0.2282
14384TIP3    H264568   1.281   1.920  15.255 -0.0804  1.6368 -2.7858
14385TIP3   OH264569   4.944   0.257  13.071 -0.3879 -0.3233 -0.5483
14385TIP3    H164570   4.882   0.279  13.141  0.2533 -0.7099  0.1511
14385TIP3    H264571   5.014   0.322  13.080 -0.7417  0.1860 -1.4110
14386TIP3   OH264572   3.422   5.522   4.989 -0.4539  0.2359  0.4820
14386TIP3    H164573   3.463   5.439   4.964 -0.5162  1.0324 -2.5480
14386TIP3    H264574   3.330   5.511   4.966 -0.1890  1.6228 -1.3619
14387TIP3   OH264575   2.255   0.607   4.959  0.0405 -0.1829 -0.0645
14387TIP3    H164576   2.293   0.694   4.965  1.1265 -0.5796 -1.0282
14387TIP3    H264577   2.170   0.614   5.004 -0.6676  1.7977 -1.6635
14388TIP3   OH264578   4.371   6.543   5.187  0.3752  0.8190  0.0604
14388TIP3    H164579   4.408   6.605   5.250 -0.0012  1.8628 -0.7281
14388TIP3    H264580   4.309   6.596   5.136 -0.8709 -0.4922  0.1980
14389TIP3   OH264581   6.674   6.495  14.739 -0.6285  0.1072  0.9085
14389TIP3    H164582   6.651   6.404  14.755  1.3360 -0.7506 -0.8856
14389TIP3    H264583   6.624   6.520  14.661 -1.0694  0.5358  1.3234
14390TIP3   OH264584   4.026   5.676   0.495  0.9668 -0.1492  0.2808
14390TIP3    H164585   4.047   5.763   0.529  0.9234  0.4065 -1.0657
14390TIP3    H264586   4.083   5.617   0.544  1.0031  0.6308  1.2076
14391TIP3   OH264587   1.382   4.787  14.329  0.1867  0.2511  0.4132
14391TIP3    H164588   1.374   4.753  14.418  0.7388 -1.1080 -0.0307
14391TIP3    H264589   1.462   4.746  14.296  0.8710  2.0172 -0.1539
14392TIP3   OH264590   6.467   0.444   2.470 -0.3723 -0.2787  0.2892
14392TIP3    H164591   6.539   0.508   2.474 -1.0954  0.4704  1.7073
14392TIP3    H264592   6.485   0.383   2.542  0.2804 -1.6591 -1.0236
14393TIP3   OH264593   2.717   2.858  12.736 -0.4265 -0.5376  0.0229
14393TIP3    H164594   2.768   2.911  12.675  0.1679 -0.3300  0.7005
14393TIP3    H264595   2.687   2.920  12.803 -0.9227 -0.7950  0.0381
14394TIP3   OH264596   2.223   2.541  17.169  0.1326  0.2537  0.1579
14394TIP3    H164597   2.140   2.522  17.214  0.6248  0.3192  1.1094
14394TIP3    H264598   2.287   2.550  17.240  0.7695  1.1504 -0.5124
14395TIP3   OH264599   5.937   1.870   1.861 -0.0749  0.2446 -0.1672
14395TIP3    H164600   5.857   1.827   1.833 -0.2842 -0.4781  1.4990
14395TIP3    H264601   6.004   1.802   1.855 -0.4005 -0.3491  2.4290
14396TIP3   OH264602   2.803   4.208   3.514  0.1325  0.3195 -0.6935
14396TIP3    H164603   2.813   4.231   3.607  4.0614  0.9879 -1.2001
14396TIP3    H264604   2.817   4.113   3.511 -0.9883  0.1435 -0.4951
14397TIP3   OH264605   1.398   3.864   2.098  0.5912 -0.2203  0.5870
14397TIP3    H164606   1.325   3.921   2.076  0.1641 -0.6249  0.9423
14397TIP3    H264607   1.459   3.873   2.025  0.4173  0.5041  0.5269
14398TIP3   OH264608   2.317   6.612   0.523 -0.0273 -0.2791 -0.1286
14398TIP3    H164609   2.365   6.694   0.537 -1.3418  0.5782 -0.5205
14398TIP3    H264610   2.353   6.552   0.588  0.3004  0.8987  0.8069
14399TIP3   OH264611   4.137   6.715   1.417  0.2242  0.3765  0.3994
14399TIP3    H164612   4.201   6.665   1.366 -0.1018 -1.0242  1.3395
14399TIP3    H264613   4.065   6.732   1.356 -0.1985 -1.3462  0.4120
14400TIP3   OH264614   0.491   4.185   0.208  0.1923  0.8904  0.3146
14400TIP3    H164615   0.423   4.235   0.255 -0.7918  0.0144 -0.1443
14400TIP3    H264616   0.572   4.205   0.255 -0.3355  2.1969  0.6892
14401TIP3   OH264617   3.896   5.138  12.555  0.4790 -0.7225 -0.0444
14401TIP3    H164618   3.815   5.189  12.555 -0.2672 -1.8891 -0.8267
14401TIP3    H264619   3.948   5.176  12.484  1.6812  1.6227  2.0043
14402TIP3   OH264620   4.298   6.159  11.412  0.0784 -0.6406 -0.1402
14402TIP3    H164621   4.374   6.158  11.469 -1.8320  0.3426  2.5511
14402TIP3    H264622   4.310   6.235  11.356  0.6134  0.0683  0.9377
14403TIP3   OH264623   0.106   1.343  13.070 -0.1775 -0.5810  0.4965
14403TIP3    H164624   0.106   1.256  13.031 -0.3893 -0.0611 -0.6740
14403TIP3    H264625   0.016   1.374  13.062  0.1995  0.3208 -0.4076
14404TIP3   OH264626   3.523   0.764  16.803  0.1517 -0.2089  0.2784
14404TIP3    H164627   3.457   0.752  16.872  0.2592 -1.0397  0.2381
14404TIP3    H264628   3.528   0.679  16.759  1.2080 -0.1366  0.2400
14405TIP3   OH264629   4.891   4.901   0.907 -0.3726 -0.6294  0.0920
14405TIP3    H164630   4.970   4.870   0.862 -0.4722 -1.3538  0.4058
14405TIP3    H264631   4.898   4.996   0.905  0.0345 -0.6725 -0.7252
14406TIP3   OH264632   3.677   3.676  11.690 -0.4720  0.5320  0.0688
14406TIP3    H164633   3.722   3.637  11.765  0.1280 -1.9352 -1.5107
14406TIP3    H264634   3.643   3.601  11.641 -2.0490  2.1548 -1.4136
14407TIP3   OH264635   0.597   6.183   5.096 -0.2894  0.7053 -0.2435
14407TIP3    H164636   0.623   6.274   5.106 -0.6568  0.8741 -0.7935
14407TIP3    H264637   0.535   6.183   5.023  0.8076 -0.1996 -1.1872
14408TIP3   OH264638   5.972   4.232  11.398 -0.5577 -0.2580  0.2717
14408TIP3    H164639   5.995   4.284  11.321  1.2282 -0.7443  0.4540
14408TIP3    H264640   5.885   4.196  11.378 -1.2758  1.7640 -0.3729
14409TIP3   OH264641   0.206   3.743  13.891  0.4196  0.1128 -0.2619
14409TIP3    H164642   0.192   3.807  13.821  2.6564  1.4975  0.5163
14409TIP3    H264643   0.190   3.658  13.850  1.1393  0.9453 -2.3195
14410TIP3   OH264644   3.064   1.987   0.331  0.5671  0.1816 -0.2686
14410TIP3    H164645   3.081   2.077   0.302  1.7199 -0.1500 -0.6674
14410TIP3    H264646   2.981   1.963   0.291  1.0280  0.5267 -1.4389
14411TIP3   OH264647   0.979   1.337   6.585 -0.1251  0.6408  0.2006
14411TIP3    H164648   1.054   1.296   6.541  0.2029 -0.7437  1.9891
14411TIP3    H264649   0.904   1.313   6.532  0.5316  0.8997 -0.8637
14412TIP3   OH264650   3.658   5.177   4.403 -0.1950 -0.3446  0.4159
14412TIP3    H164651   3.736   5.195   4.457  0.6900 -0.6574 -0.7323
14412TIP3    H264652   3.651   5.254   4.346  0.3986 -1.1750 -0.7881
14413TIP3   OH264653   1.853   1.162  15.584  0.0417 -0.4290  0.2148
14413TIP3    H164654   1.918   1.149  15.516  1.5415  0.1128  1.5215
14413TIP3    H264655   1.770   1.170  15.537  1.0005 -0.4875 -1.5098
14414TIP3   OH264656   6.542   0.843  15.428 -0.0605 -0.3174 -0.6514
14414TIP3    H164657   6.585   0.875  15.508  0.1981  0.0626 -0.9403
14414TIP3    H264658   6.613   0.840  15.363  0.0141 -1.8937 -0.5142
14415TIP3   OH264659   4.450   2.530  14.230  0.3247  0.1044 -0.1156
14415TIP3    H164660   4.534   2.506  14.190 -0.3796 -1.1030 -0.9125
14415TIP3    H264661   4.468   2.611  14.278  1.7000  0.4121 -1.1292
14416TIP3   OH264662   0.960   6.710  16.836  0.0929  0.3275  0.1458
14416TIP3    H164663   0.995   6.622  16.850 -1.0862 -0.0259  0.9836
14416TIP3    H264664   1.016   6.767  16.889 -0.0308 -0.1125  0.7564
14417TIP3   OH264665   1.350   3.492   0.012  0.9533 -0.7543  0.5699
14417TIP3    H164666   1.280   3.522   0.071 -0.2938  1.0140 -1.7396
14417TIP3    H264667   1.315   3.507  -0.076  4.0520 -0.3378 -0.6365
14418TIP3   OH264668   1.940   6.747  11.827 -0.1375 -0.5099 -0.1185
14418TIP3    H164669   1.860   6.792  11.797  0.8981  1.7363  0.4076
14418TIP3    H264670   1.988   6.813  11.876  0.9140 -2.5354  1.6642
14419TIP3   OH264671   5.585   0.215  14.085 -0.2267 -0.2527  0.0322
14419TIP3    H164672   5.567   0.187  13.995 -0.9335 -2.0283  0.7047
14419TIP3    H264673   5.654   0.157  14.116  1.3822  1.6027  0.0265
14420TIP3   OH264674   6.008   1.194  16.447 -0.0444 -0.2243  0.0516
14420TIP3    H164675   5.982   1.186  16.539 -0.1217 -1.1115 -0.0427
14420TIP3    H264676   5.986   1.284  16.424 -0.7836 -0.2399  0.6660
14421TIP3   OH264677   2.742   0.632  11.553  0.0202 -0.3777  0.3611
14421TIP3    H164678   2.776   0.580  11.480  0.9282 -1.6726  1.6773
14421TIP3    H264679   2.769   0.584  11.631  0.8195  2.0311  1.6194
14422TIP3   OH264680   6.668   1.185   0.765 -0.0251  0.3201  0.2251
14422TIP3    H164681   6.604   1.115   0.752 -0.9629  1.6194 -2.5371
14422TIP3    H264682   6.749   1.140   0.790 -0.8073 -1.6884 -0.8201
14423TIP3   OH264683   3.358   0.918   3.372  0.2195  0.8287  0.7896
14423TIP3    H164684   3.416   0.964   3.312  0.6537  0.0697  0.6251
14423TIP3    H264685   3.353   0.975   3.449  0.2770  1.4328  0.3528
14424TIP3   OH264686   5.106   4.576   4.683 -0.6579  1.0617  0.1298
14424TIP3    H164687   5.179   4.617   4.637  1.3878 -0.1088  2.2140
14424TIP3    H264688   5.110   4.483   4.658 -2.0034  1.1486 -0.4530
14425TIP3   OH264689   3.596   1.341  11.203 -0.4316  0.3941 -0.3691
14425TIP3    H164690   3.677   1.358  11.250 -0.2065  1.4487 -1.1290
14425TIP3    H264691   3.529   1.336  11.272  0.0398  1.0017  0.1289
14426TIP3   OH264692   6.307   4.731   4.631  0.2653 -0.0729 -0.0082
14426TIP3    H164693   6.330   4.644   4.662  1.2518  0.2006  0.0479
14426TIP3    H264694   6.280   4.718   4.540  1.1783 -0.3379 -0.2521
14427TIP3   OH264695   5.843   1.508  16.655  0.3478  0.3068  0.5706
14427TIP3    H164696   5.851   1.592  16.699  4.2516  0.2561  0.1326
14427TIP3    H264697   5.821   1.530  16.564  1.2343  0.8498  0.4874
14428TIP3   OH264698   6.600   1.039  16.340 -0.0727 -0.2743  0.4996
14428TIP3    H164699   6.619   1.117  16.289 -0.9474 -0.3384  0.0746
14428TIP3    H264700   6.509   1.050  16.368  0.2552 -0.4437  1.6718
14429TIP3   OH264701   0.621   4.240  17.177 -0.0836 -0.0035  0.2019
14429TIP3    H164702   0.542   4.247  17.231  0.3438  0.7467  0.7436
14429TIP3    H264703   0.610   4.309  17.111 -1.1864 -1.7114 -1.4633
14430TIP3   OH264704   5.371   3.619   0.541  0.0216 -0.3687  0.8975
14430TIP3    H164705   5.416   3.612   0.457 -0.7634  2.2015  0.2178
14430TIP3    H264706   5.283   3.584   0.524 -0.4115  0.9344  0.4016
14431TIP3   OH264707   0.894   2.335   1.333 -0.3993 -0.2870  0.2782
14431TIP3    H164708   0.901   2.373   1.421 -1.4545  0.5352  0.0193
14431TIP3    H264709   0.971   2.369   1.287 -1.3551  1.6356  0.0308
14432TIP3   OH264710   5.130   5.040   2.148 -0.6423  0.2857 -0.5432
14432TIP3    H164711   5.145   5.134   2.156 -1.4209  0.5634 -2.1203
14432TIP3    H264712   5.037   5.033   2.127 -1.3932 -1.0359  2.8854
14433TIP3   OH264713   4.035   6.005   2.785 -0.4729 -0.0166  0.2830
14433TIP3    H164714   4.046   6.086   2.735 -0.2159 -0.4300 -0.3417
14433TIP3    H264715   4.080   5.939   2.733 -1.0627 -0.6462  0.5685
14434TIP3   OH264716   3.305   1.914  14.702  0.0827 -0.4266 -0.0885
14434TIP3    H164717   3.366   1.961  14.759 -0.7473 -0.7909  1.1260
14434TIP3    H264718   3.347   1.829  14.687  0.2475 -0.3752  0.0734
14435TIP3   OH264719   2.616   0.737  13.680 -0.6049 -0.5735  0.3761
14435TIP3    H164720   2.593   0.800  13.748  0.0336  1.2192 -1.0420
14435TIP3    H264721   2.597   0.652  13.719 -1.5693  0.4882  2.2864
14436TIP3   OH264722   0.978   0.501  11.841  0.3718  0.3673  0.1677
14436TIP3    H164723   1.013   0.464  11.760 -0.1980 -2.7564  1.2863
14436TIP3    H264724   1.054   0.512  11.898  0.6047  1.4045 -0.3305
14437TIP3   OH264725   0.944   1.043   2.710  0.3531  0.4031 -0.7775
14437TIP3    H164726   0.900   1.113   2.758  1.6943  2.7021 -2.7683
14437TIP3    H264727   0.897   0.963   2.734 -3.6744  2.4738 -1.3924
14438TIP3   OH264728   6.076   2.091  12.758  0.0869 -0.3777 -0.3637
14438TIP3    H164729   6.135   2.024  12.725  0.1250 -0.2894 -0.4736
14438TIP3    H264730   6.023   2.046  12.824 -0.2356 -0.6359 -0.8045
14439TIP3   OH264731   1.381   4.033   4.752  0.5222 -0.2316 -0.4486
14439TIP3    H164732   1.467   4.074   4.745  0.9743 -1.2135 -0.6851
14439TIP3    H264733   1.331   4.092   4.808  2.1532 -0.9567  1.8291
14440TIP3   OH264734   4.130   3.633  15.220 -0.3268  0.4638 -0.2365
14440TIP3    H164735   4.039   3.653  15.195 -0.7717 -0.9764  0.1945
14440TIP3    H264736   4.149   3.695  15.291 -1.1215  0.4924 -0.0432
14441TIP3   OH264737   2.879   1.404   2.739 -0.0966  0.4240 -0.2601
14441TIP3    H164738   2.885   1.435   2.648  0.2176 -0.0160 -0.3910
14441TIP3    H264739   2.849   1.313   2.731 -2.9329  1.2480  0.1939
14442TIP3   OH264740   4.878   3.946   1.250  0.5259 -0.0018  0.0333
14442TIP3    H164741   4.922   3.995   1.180 -0.2663  0.5559 -0.0779
14442TIP3    H264742   4.940   3.877   1.273  1.0049  0.1121 -0.8793
14443TIP3   OH264743   0.653   5.024   0.751  0.4335  0.0070  0.5030
14443TIP3    H164744   0.701   4.964   0.807 -0.7175 -1.0027  0.4277
14443TIP3    H264745   0.692   5.110   0.768  0.8209 -0.4659  2.0199
14444TIP3   OH264746   5.658   6.394  14.950 -0.5074 -0.2568  0.0764
14444TIP3    H164747   5.630   6.470  14.899  0.1461 -0.1215 -0.0878
14444TIP3    H264748   5.752   6.386  14.932  0.0613  0.7494  2.5016
14445TIP3   OH264749   3.367   2.330  16.482  0.1967 -0.2575 -0.1123
14445TIP3    H164750   3.450   2.370  16.455  0.9100 -1.5175  0.1650
14445TIP3    H264751   3.371   2.328  16.578 -0.8142  1.0360 -0.0299
14446TIP3   OH264752   5.920   3.757   3.457  0.8315 -0.9614  0.1177
14446TIP3    H164753   5.972   3.717   3.387  0.6049  0.9828 -1.1932
14446TIP3    H264754   5.854   3.808   3.412  0.6857  0.3323  1.7520
14447TIP3   OH264755   3.884   1.303   3.916  0.6778  0.1654  0.0452
14447TIP3    H164756   3.978   1.311   3.902  0.4111  0.6012 -1.7505
14447TIP3    H264757   3.849   1.386   3.881 -0.3633 -0.0431  0.5989
14448TIP3   OH264758   2.419   0.333   3.122  0.2364  0.2306 -0.4362
14448TIP3    H164759   2.350   0.390   3.156  1.3010 -0.0247  2.3164
14448TIP3    H264760   2.470   0.390   3.065  0.2014  1.5885  0.8248
14449TIP3   OH264761   3.928   4.575  17.209  0.0724  0.2654  0.3428
14449TIP3    H164762   3.969   4.537  17.131 -1.1593  0.0580 -0.2198
14449TIP3    H264763   3.848   4.525  17.221  0.1078  0.4976  1.5788
14450TIP3   OH264764   6.151   2.554  12.923  0.6919  0.0684 -0.2765
14450TIP3    H164765   6.209   2.482  12.947 -1.0141 -1.3084 -0.1738
14450TIP3    H264766   6.167   2.621  12.989  1.7023 -0.5314  0.1033
14451TIP3   OH264767   2.903   5.996   4.545 -0.0103  0.8320 -0.0498
14451TIP3    H164768   2.973   6.059   4.526  1.1090 -0.4959 -0.3851
14451TIP3    H264769   2.948   5.918   4.577 -1.2788 -0.3882 -1.1704
14452TIP3   OH264770   5.253   6.784  15.114  0.4175 -0.0924  0.2709
14452TIP3    H164771   5.307   6.863  15.111  0.1210  0.0429 -1.7674
14452TIP3    H264772   5.270   6.740  15.031 -1.3473 -0.8870  0.3158
14453TIP3   OH264773   0.915   4.007  14.265  0.5734 -0.5208  0.4153
14453TIP3    H164774   0.934   3.951  14.339 -0.3227 -0.9565  0.3201
14453TIP3    H264775   0.849   3.959  14.214 -0.5656  0.8135  0.5936
14454TIP3   OH264776   1.395   0.353  12.438  0.2269  0.4127 -0.0537
14454TIP3    H164777   1.426   0.270  12.474  0.8317  1.8848  3.0750
14454TIP3    H264778   1.458   0.375  12.370 -0.8714 -2.4353 -2.0846
14455TIP3   OH264779   6.756   3.019   0.903 -0.7038 -0.0500 -0.0741
14455TIP3    H164780   6.752   2.947   0.966  3.6525  1.0983  1.7039
14455TIP3    H264781   6.688   3.080   0.931 -0.8244 -0.9629  1.6957
14456TIP3   OH264782   2.927   5.292   1.128  0.5883  0.6019 -0.7892
14456TIP3    H164783   2.902   5.220   1.070 -0.0605  1.1306 -1.1815
14456TIP3    H264784   2.870   5.364   1.101  1.1132  1.2045 -0.2820
14457TIP3   OH264785   2.896   0.950   2.411  0.3553  0.0776 -0.0587
14457TIP3    H164786   2.897   0.984   2.322 -0.0423 -0.8320 -0.4102
14457TIP3    H264787   2.970   0.890   2.416  1.5037  1.5420  0.7835
14458TIP3   OH264788   5.041   3.745   1.345  0.4122  0.1387  0.5601
14458TIP3    H164789   5.102   3.731   1.418  1.6892  0.7268 -0.3701
14458TIP3    H264790   4.971   3.683   1.360  1.3352 -0.6843  1.5634
14459TIP3   OH264791   2.991   6.193  13.098  0.6310 -0.4498 -0.0110
14459TIP3    H164792   2.914   6.193  13.156 -0.7123  0.1481 -1.7417
14459TIP3    H264793   3.053   6.134  13.141 -0.2857  0.0229  2.0618
14460TIP3   OH264794   5.235   5.596  12.430  0.0141  0.1099 -0.0582
14460TIP3    H164795   5.243   5.553  12.345 -0.8973 -0.9053  0.3572
14460TIP3    H264796   5.142   5.589  12.452  0.0106  1.4669  0.4592
14461TIP3   OH264797   5.501   3.968   5.104  0.5660  0.4939 -0.1031
14461TIP3    H164798   5.551   3.923   5.173 -0.6671 -1.3222 -0.3570
14461TIP3    H264799   5.558   3.964   5.027  1.3658  1.2877  0.4444
14462TIP3   OH264800   1.890   5.922   1.095 -0.2182  0.5199  0.1927
14462TIP3    H164801   1.912   5.851   1.155 -1.7012  1.2401  1.6487
14462TIP3    H264802   1.795   5.919   1.088 -0.1479  1.1462 -1.2779
14463TIP3   OH264803   0.619   0.172   0.072  0.0697 -0.8051 -0.0735
14463TIP3    H164804   0.705   0.135   0.051 -0.2552 -1.1047 -0.8771
14463TIP3    H264805   0.558   0.099   0.061 -0.3547 -0.4660  0.0219
14464TIP3   OH264806   3.030   4.149  12.698 -0.3233 -0.7051  0.3017
14464TIP3    H164807   3.055   4.212  12.766 -3.1513 -1.0122  1.6752
14464TIP3    H264808   3.100   4.156  12.633  0.7116  2.0095  1.6223
14465TIP3   OH264809   2.798   4.345   4.192 -0.2727  0.5479  0.2991
14465TIP3    H164810   2.757   4.325   4.108  1.2170  0.1119 -0.3467
14465TIP3    H264811   2.754   4.287   4.255  2.1809 -3.0384 -1.0995
14466TIP3   OH264812   2.945   5.553   2.254  0.5366 -0.4387 -0.5483
14466TIP3    H164813   3.027   5.503   2.256  0.3430 -0.7628 -0.6371
14466TIP3    H264814   2.934   5.585   2.343  1.1815  0.2918 -0.7242
14467TIP3   OH264815   0.882   0.737  12.206 -0.3823  0.1705 -0.5930
14467TIP3    H164816   0.892   0.642  12.215 -0.6483  0.2639  0.7188
14467TIP3    H264817   0.877   0.751  12.111 -1.3113 -1.2232 -0.7671
14468TIP3   OH264818   2.024   1.507   2.307 -0.7061  0.6313  0.2648
14468TIP3    H164819   2.044   1.558   2.229  0.5774 -0.3321 -0.0656
14468TIP3    H264820   2.064   1.556   2.379  1.9225 -0.6619 -0.2439
14469TIP3   OH264821   6.720   5.519   3.589 -0.0167  0.1716 -0.2954
14469TIP3    H164822   6.778   5.591   3.562  1.6838 -0.0963  2.4478
14469TIP3    H264823   6.678   5.551   3.669  0.1096 -1.5436  0.4824
14470TIP3   OH264824   5.028   5.749   4.145 -0.4840  0.3948 -0.0638
14470TIP3    H164825   4.942   5.777   4.177 -1.1348 -0.7457 -0.7535
14470TIP3    H264826   5.077   5.830   4.133 -1.0392  0.9751  1.5229
14471TIP3   OH264827   0.350   3.698  11.704  0.0204 -0.3056 -0.1045
14471TIP3    H164828   0.261   3.732  11.694 -0.3568 -0.6257  1.7996
14471TIP3    H264829   0.370   3.711  11.797  0.9064 -2.7225  0.0814
14472TIP3   OH264830   3.576   4.953   0.134  0.0917 -0.0248  0.0128
14472TIP3    H164831   3.635   4.899   0.186  0.6474  0.4698 -0.0939
14472TIP3    H264832   3.489   4.936   0.169  0.4701  0.3625  1.1507
14473TIP3   OH264833   2.884   3.287  11.268 -0.3350 -0.1069  0.3863
14473TIP3    H164834   2.894   3.378  11.295  0.5810 -0.4006  1.0671
14473TIP3    H264835   2.832   3.291  11.188  2.4304  1.2704 -1.4245
14474TIP3   OH264836   3.438   4.745  14.578  0.3777 -0.2662 -0.4237
14474TIP3    H164837   3.518   4.772  14.532  0.8389 -1.6331 -0.4722
14474TIP3    H264838   3.413   4.663  14.535 -0.3311 -0.5033  0.4300
14475TIP3   OH264839   6.158   4.604  12.092  0.1406  0.0500 -0.0465
14475TIP3    H164840   6.121   4.687  12.121 -0.8251 -0.7824  1.1363
14475TIP3    H264841   6.090   4.564  12.039  0.0641 -0.6059  0.5312
14476TIP3   OH264842   2.455   4.452   3.974 -0.0498 -0.5225  0.4391
14476TIP3    H164843   2.537   4.419   3.939 -0.8921 -0.9334 -1.1638
14476TIP3    H264844   2.459   4.547   3.960 -1.1700 -0.8640 -2.5415
14477TIP3   OH264845   5.848   5.694   3.329  0.5797  0.3557 -0.1016
14477TIP3    H164846   5.936   5.720   3.303 -0.3670  0.6652 -3.2121
14477TIP3    H264847   5.841   5.602   3.305 -0.3178  0.6377 -0.9586
14478TIP3   OH264848   2.315   0.132  15.930  0.6008 -0.1928 -0.1157
14478TIP3    H164849   2.280   0.216  15.901  1.1921  0.5717  1.3488
14478TIP3    H264850   2.288   0.070  15.862 -1.9552  0.7081  0.0456
14479TIP3   OH264851   5.940   1.246   4.134  0.5078 -0.4181 -0.3588
14479TIP3    H164852   5.926   1.154   4.112  0.6042 -0.3808 -0.5704
14479TIP3    H264853   5.901   1.294   4.061  1.5591 -0.3047 -0.8570
14480TIP3   OH264854   2.036   2.063  11.767 -0.5724 -0.0975 -0.1490
14480TIP3    H164855   2.021   2.025  11.681 -0.2868  0.2872 -0.3665
14480TIP3    H264856   2.062   2.153  11.750  0.5531 -0.3326  0.3010
14481TIP3   OH264857   1.537   4.151  13.915 -0.0381 -0.1623  0.0622
14481TIP3    H164858   1.514   4.229  13.864 -1.4708 -0.3900  0.3535
14481TIP3    H264859   1.631   4.139  13.898  0.2199  1.6506  0.0584
14482TIP3   OH264860   4.059   4.149  16.428  0.1224 -0.7395 -0.2682
14482TIP3    H164861   4.126   4.144  16.359  0.0528 -1.6681 -0.2708
14482TIP3    H264862   4.097   4.101  16.501  0.5748  1.0086  0.6611
14483TIP3   OH264863   2.273   5.617  13.097 -0.3778 -0.4694 -0.4943
14483TIP3    H164864   2.239   5.704  13.118 -0.9999 -0.6987 -0.5480
14483TIP3    H264865   2.325   5.593  13.173  0.2989  0.2056 -0.7363
14484TIP3   OH264866   0.537   1.158  15.111 -0.0916 -0.1937  0.2665
14484TIP3    H164867   0.604   1.193  15.170 -1.3331 -0.8698  2.1074
14484TIP3    H264868   0.556   1.064  15.107 -0.7471 -0.3415  0.5786
14485TIP3   OH264869   3.521   4.810  16.525 -0.0199 -0.2015 -0.1219
14485TIP3    H164870   3.604   4.853  16.544 -0.0968 -0.3097  0.4701
14485TIP3    H264871   3.454   4.877  16.539 -0.1378 -0.5067  0.7820
14486TIP3   OH264872   5.760   6.738  13.321 -0.4275 -0.5466 -0.4116
14486TIP3    H164873   5.844   6.715  13.362 -2.2042 -0.0023  3.8011
14486TIP3    H264874   5.777   6.821  13.278  0.8714  0.3740  1.7774
14487TIP3   OH264875   3.097   2.371   3.831  0.6498 -0.6717  0.4413
14487TIP3    H164876   3.067   2.315   3.902 -2.5241 -0.2838 -0.5081
14487TIP3    H264877   3.104   2.313   3.755 -1.6767 -0.0136 -0.3071
14488TIP3   OH264878   2.599   1.132  11.946 -0.0784 -0.2964 -0.0702
14488TIP3    H164879   2.534   1.200  11.929  1.2777  1.2291  0.7447
14488TIP3    H264880   2.671   1.177  11.990  1.8275 -1.8170 -1.4938
14489TIP3   OH264881   0.587   2.917   1.637 -0.0920 -0.2505 -0.3602
14489TIP3    H164882   0.530   2.957   1.571 -0.7416 -1.9279 -0.8405
14489TIP3    H264883   0.630   2.845   1.591 -0.8784 -1.7174  1.1557
14490TIP3   OH264884   0.599   3.966  13.839 -0.2875  0.5886  0.2365
14490TIP3    H164885   0.552   3.883  13.833 -0.5689  0.7438  0.2342
14490TIP3    H264886   0.617   3.991  13.749  0.5999  0.0850  0.2747
14491TIP3   OH264887   4.735   5.499   2.082  0.1489  0.1414 -0.3933
14491TIP3    H164888   4.799   5.544   2.027  1.4483 -1.2562 -0.0336
14491TIP3    H264889   4.668   5.566   2.100  0.1664  0.8770 -2.8745
14492TIP3   OH264890   1.279   4.573   4.236  0.1897 -0.2307 -0.4525
14492TIP3    H164891   1.352   4.628   4.263 -0.0402 -0.1433  0.0008
14492TIP3    H264892   1.219   4.633   4.190  0.4353 -0.3167 -0.8887
14493TIP3   OH264893   5.231   5.905  13.255  0.3650 -0.2042  0.1409
14493TIP3    H164894   5.192   5.970  13.315  1.1059  0.2330  0.1526
14493TIP3    H264895   5.198   5.930  13.169  0.2652 -0.0980  0.2090
14494TIP3   OH264896   3.120   2.013  15.812 -0.1476  0.3841 -0.0378
14494TIP3    H164897   3.189   2.009  15.878  1.6151  1.0462 -1.7755
14494TIP3    H264898   3.138   2.095  15.764 -1.4769  0.0007 -1.2147
14495TIP3   OH264899   4.892   6.482   4.925 -0.5163  0.2325  0.0120
14495TIP3    H164900   4.856   6.569   4.912 -0.5571  0.1653 -0.3096
14495TIP3    H264901   4.834   6.424   4.876  0.0379  0.1255 -0.5140
14496TIP3   OH264902   4.641   4.588  16.938  0.1011  0.4371  0.0177
14496TIP3    H164903   4.588   4.592  16.858  0.4744 -0.8712 -0.3099
14496TIP3    H264904   4.707   4.521  16.919 -0.7323 -0.9899  1.9604
14497TIP3   OH264905   0.771   2.657  13.333 -0.2798 -0.4900  0.0863
14497TIP3    H164906   0.777   2.564  13.356 -0.7417 -0.2880  1.0075
14497TIP3    H264907   0.784   2.658  13.238 -1.0573 -1.5760 -0.0459
14498TIP3   OH264908   1.525   4.367  14.653 -0.7377  0.2357  0.2398
14498TIP3    H164909   1.522   4.457  14.622 -1.5384  0.8199  1.9358
14498TIP3    H264910   1.518   4.314  14.574  2.3813  1.6314 -1.0488
14499TIP3   OH264911   4.626   0.492  13.176  0.2049 -0.0377  0.1995
14499TIP3    H164912   4.567   0.422  13.206 -0.6524  0.6915  0.2494
14499TIP3    H264913   4.669   0.523  13.255 -2.8622  2.6275  0.9226
14500TIP3   OH264914   1.365   0.891   5.941  0.3737  0.3972  0.6194
14500TIP3    H164915   1.278   0.878   5.903  1.0437 -0.7197 -0.5289
14500TIP3    H264916   1.359   0.852   6.029  0.1015 -0.8427  0.0547
14501TIP3   OH264917   6.184   5.624   0.542 -0.2743 -0.1349  0.0675
14501TIP3    H164918   6.260   5.611   0.599 -1.3390 -3.4015  0.8519
14501TIP3    H264919   6.113   5.644   0.602 -0.4591  0.9794 -0.5141
14502TIP3   OH264920   1.977   6.224   3.937  0.5812  0.0987  0.7348
14502TIP3    H164921   2.010   6.156   3.997  0.0706 -0.7415  0.0747
14502TIP3    H264922   2.002   6.194   3.850 -1.9574 -0.6065  0.2033
14503TIP3   OH264923   5.759   6.160  16.541  0.5218  0.5609  0.3002
14503TIP3    H164924   5.672   6.149  16.503  0.8157  0.8965 -0.4958
14503TIP3    H264925   5.764   6.094  16.610  0.1824 -0.4440 -0.6322
14504TIP3   OH264926   2.924   3.039   1.420  0.0438 -0.3717  0.5863
14504TIP3    H164927   2.865   3.082   1.357 -0.1351 -0.0738  0.9559
14504TIP3    H264928   2.934   2.950   1.386  1.4791  0.3280 -0.9335
14505TIP3   OH264929   6.017   0.292  16.691  0.4699  0.4424  0.4682
14505TIP3    H164930   6.048   0.330  16.609  0.8580 -1.0222 -0.0969
14505TIP3    H264931   6.072   0.214  16.702 -1.3810 -0.8548  0.7309
14506TIP3   OH264932   2.624   4.127  10.749 -0.3628  0.1387  0.4626
14506TIP3    H164933   2.705   4.156  10.707  1.0251 -2.9567  0.8587
14506TIP3    H264934   2.557   4.141  10.682  0.9402  0.3556 -0.8347
14507TIP3   OH264935   6.673   4.791  17.224  0.0753  0.6123 -0.0790
14507TIP3    H164936   6.718   4.781  17.139  0.7085 -0.1033  0.3289
14507TIP3    H264937   6.744   4.786  17.288 -0.3088  1.9702  0.4587
14508TIP3   OH264938   1.899   2.655   2.146 -0.2425  0.1804 -0.2973
14508TIP3    H164939   1.967   2.590   2.126  0.4294  0.8890 -0.3421
14508TIP3    H264940   1.945   2.722   2.196 -1.2993 -0.1804  1.1609
14509TIP3   OH264941   2.210   6.543   5.861  0.0389  0.2823  0.2246
14509TIP3    H164942   2.270   6.533   5.935 -0.1079 -1.1857  0.1446
14509TIP3    H264943   2.123   6.530   5.898 -0.1481  1.0104  0.0620
14510TIP3   OH264944   2.558   2.305   5.050 -0.0628 -0.4191  0.4175
14510TIP3    H164945   2.563   2.354   5.133 -1.3772  0.1321  0.1906
14510TIP3    H264946   2.530   2.371   4.986 -0.9056 -1.2544 -0.0856
14511TIP3   OH264947   2.828   6.613  15.269 -0.1145  0.3190  0.0689
14511TIP3    H164948   2.763   6.566  15.321 -0.3065 -0.2845 -0.7069
14511TIP3    H264949   2.868   6.675  15.330  0.2138 -0.9213  1.1409
14512TIP3   OH264950   6.485   5.716  16.982  0.0893 -0.1206  0.8558
14512TIP3    H164951   6.549   5.772  16.939  2.1637 -1.4383  2.1788
14512TIP3    H264952   6.422   5.694  16.913  1.5352  0.4569 -0.6765
14513TIP3   OH264953   3.728   3.562   6.162 -0.5555  0.3043 -0.6545
14513TIP3    H164954   3.709   3.654   6.179 -1.2054  0.1798 -0.7185
14513TIP3    H264955   3.753   3.560   6.069  0.5781  0.5916 -0.3630
14514TIP3   OH264956   6.406   1.255  14.881  0.2870  0.4106  0.1553
14514TIP3    H164957   6.317   1.290  14.883 -0.2619 -0.9993  1.1915
14514TIP3    H264958   6.433   1.256  14.973  0.4256 -1.4494  0.1469
14515TIP3   OH264959   5.652   5.016   2.705  0.6690 -0.0047 -0.3108
14515TIP3    H164960   5.635   5.086   2.768  1.0241  2.1715 -2.5848
14515TIP3    H264961   5.747   5.015   2.694  0.7037 -1.1295  0.0078
14516TIP3   OH264962   0.164   3.268   2.080  0.0533 -0.0341 -0.9263
14516TIP3    H164963   0.185   3.175   2.088  1.0974  0.2033 -0.8524
14516TIP3    H264964   0.093   3.282   2.142  0.6512 -0.5489 -0.1059
14517TIP3   OH264965   4.986   6.415  12.218 -0.4778  0.1930 -0.2845
14517TIP3    H164966   5.046   6.490  12.222 -0.2081  0.0511 -1.4523
14517TIP3    H264967   4.906   6.451  12.180 -0.8272  0.1850  0.4423
14518TIP3   OH264968   0.009   2.492   5.460  0.4065  0.0721 -0.8256
14518TIP3    H164969   0.097   2.455   5.448  1.0144  1.4713 -0.7323
14518TIP3    H264970   0.024   2.582   5.489 -1.0521 -0.4424  1.6417
14519TIP3   OH264971   1.109   1.579   6.101  0.8068 -0.0527  0.6420
14519TIP3    H164972   1.065   1.645   6.154 -1.3992 -1.4147  0.5853
14519TIP3    H264973   1.039   1.521   6.072  2.3728 -0.9925 -1.3739
14520TIP3   OH264974   6.056   2.594   2.319  0.1624 -0.3104 -0.1844
14520TIP3    H164975   6.048   2.681   2.357 -0.7767  0.3597 -1.8803
14520TIP3    H264976   6.100   2.542   2.386  1.4546  1.6664  0.5109
14521TIP3   OH264977   0.999   4.517  13.163  0.8174  0.0830 -0.5312
14521TIP3    H164978   0.967   4.503  13.074  1.2833  2.2291 -1.0726
14521TIP3    H264979   1.094   4.501  13.157  0.6871 -0.8134 -0.1857
14522TIP3   OH264980   5.565   3.175   3.665  0.5741 -0.2140  0.0437
14522TIP3    H164981   5.489   3.136   3.708  0.9796 -0.8320  0.2067
14522TIP3    H264982   5.594   3.109   3.602  0.2933  0.4796 -0.8178
14523TIP3   OH264983   0.754   0.937   0.872 -0.1142  0.7248  0.1270
14523TIP3    H164984   0.797   0.921   0.788 -1.1129  0.7670 -0.3992
14523TIP3    H264985   0.702   1.016   0.858 -3.0731 -1.2322 -0.3037
14524TIP3   OH264986   6.062   0.644  11.980  0.0646 -0.5230  0.1754
14524TIP3    H164987   5.974   0.675  12.002  0.5227 -0.6649  2.3072
14524TIP3    H264988   6.121   0.706  12.024  1.0030 -2.0685  1.1176
14525TIP3   OH264989   0.617   4.317  16.132  0.6480  0.5031 -0.8727
14525TIP3    H164990   0.701   4.283  16.162  1.2472  1.2928 -1.6229
14525TIP3    H264991   0.604   4.398  16.182  0.6068  0.6786 -1.1629
14526TIP3   OH264992   0.424   4.632  12.089  0.9803  0.6738 -0.2202
14526TIP3    H164993   0.333   4.636  12.058 -0.0524 -3.5428  1.8216
14526TIP3    H264994   0.464   4.712  12.057 -3.4226  2.5748 -1.3724
14527TIP3   OH264995   0.019   2.098  17.188 -0.3798  0.3911 -0.3623
14527TIP3    H164996   0.086   2.032  17.207  0.0559  0.9445  0.0508
14527TIP3    H264997   0.059   2.156  17.124 -0.0694  1.3286  0.6600
14528TIP3   OH264998   4.288   5.271  13.528  0.1898  0.1267  0.0471
14528TIP3    H164999   4.379   5.273  13.556  0.0694  3.5817  0.3532
14528TIP3    H265000   4.242   5.223  13.597  1.9906 -3.2812 -1.0087
14529TIP3   OH265001   2.016   3.214  11.528  0.8518 -0.2488  0.5381
14529TIP3    H165002   1.957   3.289  11.535  2.1532  0.8259  0.2076
14529TIP3    H265003   1.958   3.140  11.510 -0.4527  0.6659  0.8781
14530TIP3   OH265004   2.341   3.626  15.647 -0.4566  0.3260 -0.1719
14530TIP3    H165005   2.258   3.615  15.693 -1.9357 -0.2443 -2.8533
14530TIP3    H265006   2.347   3.721  15.631 -1.2231  0.2319 -1.0589
14531TIP3   OH265007   3.363   3.897   4.098 -0.0758  0.7490 -0.4254
14531TIP3    H165008   3.295   3.964   4.106 -0.7183 -0.0321  0.5877
14531TIP3    H265009   3.381   3.869   4.187  1.9938  1.3528 -0.6259
14532TIP3   OH265010   0.174   6.452  15.114  0.2806 -0.3811  0.1422
14532TIP3    H165011   0.269   6.440  15.110  0.1888 -0.6871 -1.2725
14532TIP3    H265012   0.157   6.527  15.056 -0.4802 -1.1213 -0.6025
14533TIP3   OH265013   0.542   1.961   1.417 -0.4950  0.0236 -0.1225
14533TIP3    H165014   0.501   1.874   1.428 -0.9290  0.5280  2.7514
14533TIP3    H265015   0.541   1.998   1.505 -0.6153  3.1033 -1.3746
14534TIP3   OH265016   2.723   6.664  11.215  0.7340  0.1727 -0.8463
14534TIP3    H165017   2.658   6.725  11.183  1.0361  0.3931 -1.0464
14534TIP3    H265018   2.743   6.693  11.303 -0.8831 -1.0678 -0.0507
14535TIP3   OH265019   2.580   2.696  12.563 -0.0773  0.2802 -0.2958
14535TIP3    H165020   2.515   2.655  12.620 -1.3192  2.2319 -0.2555
14535TIP3    H265021   2.620   2.765  12.617 -0.7948  1.7024 -1.5410
14536TIP3   OH265022   3.613   4.047   2.148  0.1319  0.5587 -0.3626
14536TIP3    H165023   3.554   3.973   2.164  0.8287  0.0538 -0.0820
14536TIP3    H265024   3.651   4.067   2.234  0.4599  0.7985 -0.5591
14537TIP3   OH265025   6.065   6.685  12.667  0.8199 -0.0345 -0.1232
14537TIP3    H165026   6.151   6.725  12.681  1.4142 -1.7364  1.2610
14537TIP3    H265027   6.077   6.593  12.691 -1.1155 -0.5339 -0.9758
14538TIP3   OH265028   2.521   5.045  15.284 -0.6403  0.3154 -0.2597
14538TIP3    H165029   2.429   5.059  15.261 -0.6552 -0.3813 -0.6363
14538TIP3    H265030   2.520   4.974  15.348 -0.3695  0.3421 -0.2247
14539TIP3   OH265031   0.720   6.643   2.529 -0.3237  0.0643 -0.0840
14539TIP3    H165032   0.657   6.627   2.460 -0.3444  0.9268 -0.2762
14539TIP3    H265033   0.724   6.739   2.537  1.3552  0.0525 -0.4552
14540TIP3   OH265034   6.418   0.591   5.262  0.1334 -0.1181  0.4575
14540TIP3    H165035   6.501   0.570   5.219  0.0893  0.2651  0.1819
14540TIP3    H265036   6.442   0.614   5.352  0.1221 -1.9893  0.9640
14541TIP3   OH265037   4.922   3.495   2.634  0.3864  0.7066  0.8006
14541TIP3    H165038   4.966   3.429   2.686  1.1546 -1.3237 -2.3041
14541TIP3    H265039   4.988   3.563   2.619  0.5360  0.6933  1.4056
14542TIP3   OH265040   1.199   4.810  12.094 -0.0020  0.3143 -0.0390
14542TIP3    H165041   1.176   4.832  12.184  0.3445 -0.2195  0.1884
14542TIP3    H265042   1.259   4.879  12.066 -0.6292  0.8369 -0.0872
14543TIP3   OH265043   1.491   4.878   4.551 -0.2622 -0.2325 -0.3822
14543TIP3    H165044   1.438   4.801   4.572 -0.6646  0.6219  1.9033
14543TIP3    H265045   1.428   4.945   4.526  0.0659 -0.5084 -2.0117
14544TIP3   OH265046   4.729   4.521   1.364  0.1265 -0.2042 -0.3839
14544TIP3    H165047   4.782   4.559   1.434  0.1335  0.6338 -0.8342
14544TIP3    H265048   4.737   4.583   1.292 -3.2135  1.0842  0.2597
14545TIP3   OH265049   0.051   5.440   4.730  0.6168  0.3152 -0.4936
14545TIP3    H165050  -0.044   5.428   4.734  0.3347  1.6089 -2.6781
14545TIP3    H265051   0.069   5.507   4.795  0.1338 -0.3841  0.3811
14546TIP3   OH265052   6.546   1.210  13.939 -0.3864 -0.0686 -0.6595
14546TIP3    H165053   6.487   1.163  13.881  0.1456 -0.3914 -0.9406
14546TIP3    H265054   6.592   1.141  13.988 -1.1148  0.2027  0.4276
14547TIP3   OH265055   0.015   0.911   2.615  0.4501 -0.7387 -0.1340
14547TIP3    H165056  -0.045   0.982   2.593  0.3207 -0.4751  1.0011
14547TIP3    H265057   0.055   0.886   2.532  0.7002  0.8683 -0.5124
14548TIP3   OH265058   0.202   0.617   2.612 -0.2543  0.2004 -0.7627
14548TIP3    H165059   0.282   0.596   2.564 -0.5783 -1.0769 -0.7723
14548TIP3    H265060   0.230   0.672   2.685  0.3332  1.6281 -2.0289
14549TIP3   OH265061   4.733   6.711  14.118 -0.8112  0.6717  0.4467
14549TIP3    H165062   4.652   6.715  14.066 -0.2335  1.7412 -0.3983
14549TIP3    H265063   4.745   6.801  14.150  0.3290  0.6385  0.1111
14550TIP3   OH265064   5.555   3.467  12.936 -0.4896  0.1437  0.1260
14550TIP3    H165065   5.508   3.464  12.853  0.6265 -0.5808 -0.4901
14550TIP3    H265066   5.536   3.554  12.971 -0.4814  0.6745 -1.1715
14551TIP3   OH265067   4.324   3.238   2.499  0.3252 -0.4570  0.2826
14551TIP3    H165068   4.342   3.176   2.428  1.6664 -0.4682  0.6233
14551TIP3    H265069   4.291   3.183   2.570 -1.2792 -0.4158 -0.3960
14552TIP3   OH265070   2.974   4.159  13.159  0.0143 -0.2558 -0.3876
14552TIP3    H165071   2.973   4.232  13.222 -1.6522  0.9002 -1.6926
14552TIP3    H265072   3.053   4.174  13.107  1.2547 -1.0620  1.2266
14553TIP3   OH265073   2.098   3.096  17.005 -0.0754  0.1052 -0.0008
14553TIP3    H165074   2.094   3.173  16.948 -0.0917 -0.2432 -0.4768
14553TIP3    H265075   2.027   3.108  17.067  0.5354  0.9602  0.5468
14554TIP3   OH265076   4.054   1.834  15.170 -0.2689  0.6184  0.1571
14554TIP3    H165077   4.036   1.740  15.165  0.4876  0.5466 -1.5946
14554TIP3    H265078   4.141   1.840  15.208 -0.0288  0.5752 -0.3812
14555TIP3   OH265079   3.238   5.084  16.040  0.4217  0.1342 -0.2744
14555TIP3    H165080   3.240   4.991  16.021  1.2666 -0.0201  0.5233
14555TIP3    H265081   3.157   5.115  16.000 -0.6163 -1.2161  0.7253
14556TIP3   OH265082   4.205   6.279   5.650 -0.3926 -0.6156 -0.2239
14556TIP3    H165083   4.229   6.193   5.614  0.0851 -0.6361  0.1403
14556TIP3    H265084   4.151   6.319   5.582  0.6854 -0.5690 -1.0762
14557TIP3   OH265085   2.289   3.546  13.215 -0.1845  0.8476  0.2910
14557TIP3    H165086   2.264   3.480  13.280 -1.6109  2.4817  1.4731
14557TIP3    H265087   2.384   3.548  13.218  0.0064 -2.3408 -1.0226
14558TIP3   OH265088   2.757   0.248   6.151 -0.3024 -0.5343  0.3392
14558TIP3    H165089   2.757   0.207   6.238  1.7653  1.0611  1.1281
14558TIP3    H265090   2.840   0.221   6.112 -1.6871 -2.1350 -1.6205
14559TIP3   OH265091   2.692   1.312  12.551 -0.0631  0.3268  0.3097
14559TIP3    H165092   2.601   1.288  12.569 -0.6034  0.6483 -1.8464
14559TIP3    H265093   2.701   1.304  12.456  1.7330  1.7376  0.3254
14560TIP3   OH265094   1.396   6.415   6.228 -0.0830 -0.1686 -0.4888
14560TIP3    H165095   1.462   6.398   6.295 -0.8060 -1.5575 -0.0829
14560TIP3    H265096   1.444   6.451   6.155  1.2956 -2.0462 -0.5543
14561TIP3   OH265097   1.085   6.120  13.416 -0.1687  0.0328 -0.4480
14561TIP3    H165098   1.078   6.122  13.321  0.0347 -1.3329 -0.4999
14561TIP3    H265099   1.161   6.065  13.434 -0.0187  0.5357  0.4978
14562TIP3   OH265100   4.938   0.958  16.423  0.5823 -0.0588 -0.0880
14562TIP3    H165101   4.842   0.958  16.421  0.5682 -0.5667  0.3820
14562TIP3    H265102   4.960   0.992  16.509  0.8213  0.0693 -0.2013
14563TIP3   OH265103   2.870   2.130   1.956 -0.0943 -0.2260  0.3135
14563TIP3    H165104   2.907   2.097   2.038  1.3070 -1.2948 -0.7384
14563TIP3    H265105   2.935   2.192   1.923 -0.4423 -0.1512 -0.2496
14564TIP3   OH265106   1.156   6.408  14.741 -1.1855 -0.2764  0.3889
14564TIP3    H165107   1.085   6.399  14.677 -0.1585  0.3636 -0.8468
14564TIP3    H265108   1.216   6.471  14.702  0.0217 -0.7326  1.4710
14565TIP3   OH265109   6.058   0.067  14.824 -0.1691  0.2046 -0.5412
14565TIP3    H165110   5.976   0.025  14.800  0.1984 -1.1441  0.4572
14565TIP3    H265111   6.050   0.082  14.919  0.4500  0.7026 -0.5618
14566TIP3   OH265112   0.027   1.903  11.535  0.0596 -0.8786 -0.6143
14566TIP3    H165113   0.071   1.973  11.486  4.8809 -4.6455 -2.1112
14566TIP3    H265114   0.036   1.929  11.627  1.5206  0.6144 -1.1504
14567TIP3   OH265115   0.992   5.526   1.299  0.3484 -0.1370  0.1503
14567TIP3    H165116   1.046   5.447   1.299  0.5342 -0.0166 -0.4638
14567TIP3    H265117   1.055   5.598   1.304  0.1163 -0.0512  2.0868
14568TIP3   OH265118   1.310   1.385   3.661  0.2478  0.6503  0.0551
14568TIP3    H165119   1.394   1.378   3.707  2.1559  0.1612 -3.3686
14568TIP3    H265120   1.253   1.322   3.705  1.4288  1.4552  2.8520
14569TIP3   OH265121   5.572   0.933  12.967  0.3290 -0.4093 -0.5447
14569TIP3    H165122   5.655   0.973  12.993  0.1591 -1.2259  1.3115
14569TIP3    H265123   5.577   0.844  13.001 -0.2072 -1.3233 -2.7402
14570TIP3   OH265124   0.688   5.844   1.042 -0.2590 -0.1861 -0.3380
14570TIP3    H165125   0.593   5.857   1.039 -0.2366 -0.0617 -0.5329
14570TIP3    H265126   0.701   5.774   1.106 -0.4567  0.0423 -0.0503
14571TIP3   OH265127   5.998   2.753   5.386  0.1091 -0.1989 -0.2063
14571TIP3    H165128   6.071   2.722   5.332  0.0091  0.7349 -0.8885
14571TIP3    H265129   6.040   2.797   5.460  0.2419 -0.1792 -0.2938
14572TIP3   OH265130   6.732   1.755  16.480  0.0041  0.4315 -0.0694
14572TIP3    H165131   6.820   1.789  16.461 -0.0636 -0.2767 -1.7536
14572TIP3    H265132   6.729   1.749  16.575  1.8317  0.3624  0.0102
14573TIP3   OH265133   2.909   3.600  12.017 -0.2133 -0.1522  0.3371
14573TIP3    H165134   2.888   3.584  12.109 -0.0678 -0.1341  0.3735
14573TIP3    H265135   2.891   3.516  11.974  1.2311 -0.6275  0.6476
14574TIP3   OH265136   0.542   4.692  16.012 -0.0055  0.8148  0.1163
14574TIP3    H165137   0.637   4.706  16.006  0.3908 -0.9097  1.6068
14574TIP3    H265138   0.517   4.732  16.096 -0.2470 -0.3123  0.6000
14575TIP3   OH265139   4.570   1.242  13.111 -0.1786 -0.1034  0.4437
14575TIP3    H165140   4.651   1.286  13.135 -1.9681  2.0125  2.9156
14575TIP3    H265141   4.568   1.163  13.166  0.1894 -0.1251  0.4259
14576TIP3   OH265142   4.672   6.354   5.756  0.1279 -0.4273  0.0482
14576TIP3    H165143   4.730   6.280   5.739 -0.5375 -1.1314  0.8252
14576TIP3    H265144   4.590   6.315   5.786 -0.3230  0.6076  0.2012
14577TIP3   OH265145   0.194   3.518  12.331  0.6694 -0.4123 -0.3402
14577TIP3    H165146   0.190   3.545  12.240  0.1372  1.8936  0.3167
14577TIP3    H265147   0.285   3.535  12.357  0.6539 -0.4441 -0.2634
14578TIP3   OH265148   0.893   4.920   1.581  0.3629  1.1678 -0.1276
14578TIP3    H165149   0.959   4.938   1.514  0.0202  0.6727 -0.6017
14578TIP3    H265150   0.943   4.883   1.654  0.5820  0.5677 -0.5765
14579TIP3   OH265151   2.745   2.272   5.617  0.4082 -0.0418 -0.3881
14579TIP3    H165152   2.807   2.345   5.621 -2.4154  2.4191  0.8348
14579TIP3    H265153   2.731   2.248   5.709 -0.8272 -0.1948 -0.6080
14580TIP3   OH265154   4.170   4.074  10.300  0.5035 -0.0450 -1.1190
14580TIP3    H165155   4.165   3.980  10.280  1.3046 -0.3248 -0.0043
14580TIP3    H265156   4.230   4.109  10.234 -0.4530 -0.1598 -2.0631
14581TIP3   OH265157   1.359   2.438   2.147 -0.2723 -0.1389 -0.1328
14581TIP3    H165158   1.330   2.449   2.238 -0.6445  0.2000 -0.2937
14581TIP3    H265159   1.368   2.528   2.114 -2.2780 -0.2822 -1.1161
14582TIP3   OH265160   6.268   5.358   2.013  0.8458  0.5236  0.3582
14582TIP3    H165161   6.282   5.309   1.932  2.3123  3.1560 -1.0401
14582TIP3    H265162   6.357   5.374   2.046  0.3178  0.8705  1.6346
14583TIP3   OH265163   2.502   4.048  13.965  0.0517 -0.1760 -0.6881
14583TIP3    H165164   2.436   4.102  13.921 -0.3347 -0.1531 -0.0932
14583TIP3    H265165   2.479   4.054  14.058  0.6600 -0.4872 -0.5151
14584TIP3   OH265166   5.835   1.316   2.388 -0.4340 -0.1270  0.2748
14584TIP3    H165167   5.802   1.384   2.330 -1.0755  0.1731  0.9765
14584TIP3    H265168   5.809   1.345   2.476 -0.7045 -1.2619  0.5832
14585TIP3   OH265169   0.810   2.898  14.342 -0.4215  0.1677 -0.0188
14585TIP3    H165170   0.806   2.994  14.337 -0.7172  0.2686  1.7731
14585TIP3    H265171   0.903   2.878  14.351 -0.1652  0.1488 -2.4935
14586TIP3   OH265172   5.987   0.736   1.182 -0.3771  0.4352 -0.0667
14586TIP3    H165173   5.956   0.646   1.173 -1.3414  0.6317  1.1754
14586TIP3    H265174   6.056   0.745   1.116 -0.3872 -1.1578 -0.2966
14587TIP3   OH265175   3.672   0.615   5.183 -0.0474 -0.0365 -0.2881
14587TIP3    H165176   3.607   0.554   5.219 -1.4381  1.8537  0.5263
14587TIP3    H265177   3.633   0.702   5.197  3.4757  1.3070  1.9536
14588TIP3   OH265178   3.764   5.575   5.584 -0.1576 -0.6345  0.5058
14588TIP3    H165179   3.816   5.650   5.612 -0.7349  1.6199 -4.0122
14588TIP3    H265180   3.674   5.598   5.608 -0.3006  0.0306 -0.6393
14589TIP3   OH265181   0.099   4.721   1.582 -0.2868  0.5521  0.1001
14589TIP3    H165182   0.123   4.806   1.545 -1.7560  0.8802 -0.1312
14589TIP3    H265183   0.115   4.659   1.510 -1.1166  0.9054 -0.3961
14590TIP3   OH265184   6.580   0.295  14.095 -0.3657  0.2637  0.4633
14590TIP3    H165185   6.577   0.265  14.004 -0.3026  0.8678  0.2607
14590TIP3    H265186   6.655   0.354  14.098 -0.5153  0.4311  0.8536
14591TIP3   OH265187   5.590   1.745  11.451  0.0420 -0.2959  0.1103
14591TIP3    H165188   5.566   1.653  11.444  2.6588 -0.9918 -0.4101
14591TIP3    H265189   5.683   1.747  11.429 -0.1354  2.5736 -0.5925
14592TIP3   OH265190   1.343   0.659  16.489  0.2954  0.2936 -0.0579
14592TIP3    H165191   1.359   0.580  16.540  3.9240  1.1218  0.2084
14592TIP3    H265192   1.318   0.628  16.402 -0.6643 -1.1025  0.7051
14593TIP3   OH265193   1.595   0.468  12.266 -0.3170  0.0022  0.0604
14593TIP3    H165194   1.672   0.507  12.226 -0.5758 -0.2576 -0.6929
14593TIP3    H265195   1.525   0.532  12.252 -0.7239 -0.6934 -1.1090
14594TIP3   OH265196   5.338   1.933  10.782 -0.1681 -0.3389 -0.4219
14594TIP3    H165197   5.273   1.863  10.783 -0.1476 -0.3743 -1.2224
14594TIP3    H265198   5.350   1.953  10.690  1.1179 -0.4881 -0.3034
14595TIP3   OH265199   4.380   5.994  13.614  0.5622 -0.0235 -0.4559
14595TIP3    H165200   4.328   5.923  13.576  0.3259  1.3263 -2.7599
14595TIP3    H265201   4.318   6.066  13.625  1.0352  0.1954  0.8115
14596TIP3   OH265202   2.761   3.579   5.285 -0.1672 -0.8496 -0.2575
14596TIP3    H165203   2.825   3.647   5.264 -1.1493  0.0929 -0.2017
14596TIP3    H265204   2.794   3.501   5.240  0.0493  0.0767 -1.7286
14597TIP3   OH265205   3.912   5.699   2.528  0.1085 -0.0380 -0.0864
14597TIP3    H165206   3.912   5.605   2.512  2.1895  0.0108 -0.5830
14597TIP3    H265207   3.902   5.738   2.441  0.8329  0.2040 -0.0635
14598TIP3   OH265208   4.761   6.195   3.996 -0.1053 -0.2526 -0.3229
14598TIP3    H165209   4.746   6.105   4.026  2.3861 -0.2682  0.9813
14598TIP3    H265210   4.740   6.249   4.072 -1.9577  0.3375 -1.2172
14599TIP3   OH265211   3.514   1.126   4.260 -0.3088  0.3820 -0.5112
14599TIP3    H165212   3.498   1.092   4.348  0.0475 -0.3300 -0.7211
14599TIP3    H265213   3.492   1.053   4.202 -2.2087  1.3862 -1.1186
14600TIP3   OH265214   3.769   4.228  15.509  0.6303 -0.4458 -0.1193
14600TIP3    H165215   3.735   4.301  15.561  2.6161  2.7302 -3.0956
14600TIP3    H265216   3.853   4.206  15.550 -0.4833 -1.9276  1.4672
14601TIP3   OH265217   0.303   3.116  16.567 -0.2750 -0.9978 -0.3156
14601TIP3    H165218   0.257   3.043  16.608 -0.6832 -0.7139 -0.2619
14601TIP3    H265219   0.304   3.184  16.634 -1.0953 -0.4699 -0.8248
14602TIP3   OH265220   0.595   6.099  13.284  0.1661 -0.2701 -0.0574
14602TIP3    H165221   0.609   6.179  13.334  0.8593 -0.5901  0.2682
14602TIP3    H265222   0.660   6.038  13.318  0.0349 -0.7823 -0.7144
14603TIP3   OH265223   6.633   6.321   0.211 -0.2406 -0.2078  0.0497
14603TIP3    H165224   6.595   6.368   0.285 -0.7748 -0.6847  0.0744
14603TIP3    H265225   6.563   6.265   0.178 -0.2599  0.5653 -1.2989
14604TIP3   OH265226   0.447   6.374  11.701  0.0084  0.0274  0.4193
14604TIP3    H165227   0.500   6.396  11.778 -0.1624 -1.6875  1.0580
14604TIP3    H265228   0.506   6.322  11.647  0.0473  1.0225 -0.4981
14605TIP3   OH265229   1.747   1.598   2.318 -0.4801  0.2507  0.0262
14605TIP3    H165230   1.741   1.571   2.410 -3.7865 -0.3677 -0.2988
14605TIP3    H265231   1.828   1.559   2.286  0.8252  0.6565  2.7211
14606TIP3   OH265232   2.112   6.587   3.548  0.3953  0.4608 -0.1816
14606TIP3    H165233   2.099   6.541   3.631 -0.4492 -0.9531 -1.0561
14606TIP3    H265234   2.206   6.602   3.542  0.4004  1.0662  1.2735
14607TIP3   OH265235   4.686   0.499   5.411 -0.3156 -0.0546 -0.3627
14607TIP3    H165236   4.769   0.511   5.364  0.5719 -1.1353  0.8795
14607TIP3    H265237   4.676   0.580   5.461  1.4512 -1.0238  1.6473
14608TIP3   OH265238   2.714   3.084  11.682  0.2062 -0.5885  0.1405
14608TIP3    H165239   2.746   3.152  11.741  0.2481  1.0487 -1.7112
14608TIP3    H265240   2.628   3.114  11.654  1.2383  0.0034 -2.6133
14609TIP3   OH265241   1.272   4.165  16.411 -0.3795  0.2800  0.6596
14609TIP3    H165242   1.347   4.187  16.354 -1.2981  2.7417  0.3315
14609TIP3    H265243   1.312   4.127  16.489  1.1439  0.3245 -0.0681
14610TIP3   OH265244   2.836   4.422  15.153 -0.0630 -0.4031  0.0004
14610TIP3    H165245   2.899   4.367  15.105 -1.0088  0.1120 -1.9014
14610TIP3    H265246   2.758   4.422  15.098 -0.6924  1.4137  0.8470
14611TIP3   OH265247   3.759   5.253   2.495 -1.2272  0.4299  0.0443
14611TIP3    H165248   3.718   5.252   2.408 -0.6861 -0.5688 -0.1995
14611TIP3    H265249   3.826   5.185   2.491  0.0966  1.6847  0.6307
14612TIP3   OH265250   4.861   0.847   2.249  0.5727  0.4016 -0.0001
14612TIP3    H165251   4.790   0.794   2.285  0.3014 -0.0865 -1.2060
14612TIP3    H265252   4.832   0.937   2.260  0.6435  0.2746  1.2779
14613TIP3   OH265253   3.644   3.438  11.530 -0.7940 -0.2333  0.3127
14613TIP3    H165254   3.739   3.436  11.538 -0.6952  0.1944 -0.6748
14613TIP3    H265255   3.627   3.403  11.443 -1.4082  1.7414 -0.3969
14614TIP3   OH265256   6.394   1.554   0.552 -0.2106 -0.0710 -0.2053
14614TIP3    H165257   6.335   1.629   0.550  0.3348  0.4485  2.0138
14614TIP3    H265258   6.438   1.557   0.467 -1.1960  1.2976 -0.6990
14615TIP3   OH265259   3.629   0.372  11.825 -0.1395  0.3168 -0.6368
14615TIP3    H165260   3.624   0.380  11.920 -1.3179  1.8690 -0.8017
14615TIP3    H265261   3.723   0.365  11.807  0.1785  1.2263  0.5649
14616TIP3   OH265262   2.478   1.728  11.519 -0.1396  0.2342  0.1326
14616TIP3    H165263   2.506   1.650  11.473  0.9451 -0.4894  1.9761
14616TIP3    H265264   2.522   1.723  11.604 -2.3371  1.3447  1.3776
14617TIP3   OH265265   5.821   4.728   1.307 -0.1657  0.2984 -0.0570
14617TIP3    H165266   5.874   4.808   1.312 -0.5248  0.4356  1.7771
14617TIP3    H265267   5.882   4.660   1.279  0.7756  0.6538  1.0975
14618TIP3   OH265268   6.757   1.603   5.556  0.0232  0.4212  0.3000
14618TIP3    H165269   6.740   1.691   5.589  0.3202  0.5726  0.0589
14618TIP3    H265270   6.741   1.546   5.630 -1.4576  0.5570  0.0981
14619TIP3   OH265271   0.028   2.656  13.976 -0.8181 -0.7042 -0.0211
14619TIP3    H165272   0.081   2.609  13.912  0.6243 -0.7612  1.1785
14619TIP3    H265273  -0.027   2.715  13.923  0.5318 -0.5512 -1.2944
14620TIP3   OH265274   3.908   4.954   2.654  0.3058  0.2264 -0.3265
14620TIP3    H165275   3.887   4.874   2.702 -0.6636  0.3072 -0.6062
14620TIP3    H265276   3.865   5.024   2.704 -0.4293  0.3490 -1.1251
14621TIP3   OH265277   4.216   2.084   4.352 -0.1191  0.3769  0.2772
14621TIP3    H165278   4.168   2.164   4.332 -0.7111  0.3548  1.5970
14621TIP3    H265279   4.284   2.112   4.413  2.3266  0.6325 -2.4526
14622TIP3   OH265280   3.320   4.821  14.982 -0.2493  0.4347 -0.2682
14622TIP3    H165281   3.279   4.907  14.980  0.6402  0.8169 -3.5189
14622TIP3    H265282   3.407   4.835  14.946  1.4345 -1.1078  2.9246
14623TIP3   OH265283   3.104   0.195  13.233  0.5659 -0.1041 -0.3248
14623TIP3    H165284   3.017   0.233  13.222  0.3891 -0.2257  0.5547
14623TIP3    H265285   3.155   0.226  13.158 -0.2708 -0.1237 -0.8984
14624TIP3   OH265286   4.809   6.156   1.472  0.3614  0.4845  0.0882
14624TIP3    H165287   4.883   6.217   1.462  2.3703 -1.9338 -0.3417
14624TIP3    H265288   4.812   6.130   1.564  0.6797 -0.4038 -0.1753
14625TIP3   OH265289   4.070   4.619   1.863  0.3464 -0.0712 -0.1181
14625TIP3    H165290   4.159   4.636   1.893  0.7996 -0.4546 -1.2330
14625TIP3    H265291   4.077   4.538   1.812 -0.1827  1.2674 -2.3301
14626TIP3   OH265292   4.805   3.680   0.233 -0.6710  0.0132  0.4599
14626TIP3    H165293   4.794   3.620   0.306 -0.0792 -1.0206 -0.2953
14626TIP3    H265294   4.726   3.735   0.235 -1.3502 -0.9669  0.9856
14627TIP3   OH265295   1.084   5.962   5.632 -0.4365  0.3961 -0.2321
14627TIP3    H165296   1.097   5.971   5.537 -0.1915  0.6287 -0.1784
14627TIP3    H265297   1.155   6.014   5.670 -0.9123  0.8279  0.0736
14628TIP3   OH265298   5.979   1.320  12.663 -0.2085 -0.0810 -0.6582
14628TIP3    H165299   6.040   1.367  12.720 -0.9517  0.9903 -0.7470
14628TIP3    H265300   6.035   1.263  12.610  0.5815 -0.2412  0.3322
14629TIP3   OH265301   6.144   5.400  13.549 -0.0133  0.1148 -0.2729
14629TIP3    H165302   6.149   5.470  13.483 -0.8268 -0.3587 -0.8483
14629TIP3    H265303   6.079   5.431  13.612 -2.7622 -1.5065 -2.2297
14630TIP3   OH265304   3.176   1.579   5.331 -0.6777 -0.3151 -0.7113
14630TIP3    H165305   3.197   1.656   5.384  1.0859 -1.8660  0.8989
14630TIP3    H265306   3.136   1.517   5.393  0.8912 -1.9325 -1.2834
14631TIP3   OH265307   5.124   0.120   5.699  0.1687  0.7235 -0.1762
14631TIP3    H165308   5.073   0.200   5.711 -0.3251  0.1720  1.5863
14631TIP3    H265309   5.065   0.049   5.724  1.0800 -0.0783 -0.2477
14632TIP3   OH265310   6.053   4.532  13.585 -0.1740  0.2235  0.2326
14632TIP3    H165311   6.012   4.513  13.501 -1.6580  0.3703  0.9051
14632TIP3    H265312   6.008   4.475  13.648  1.4489 -0.4501  0.8181
14633TIP3   OH265313   0.212   2.899  15.287  0.2654  0.3170  0.7916
14633TIP3    H165314   0.305   2.882  15.272  0.3862  0.0521  1.7808
14633TIP3    H265315   0.191   2.972  15.230  0.7903 -0.3978 -0.3381
14634TIP3   OH265316   6.007   0.050   5.801  0.2028  0.0420  0.2157
14634TIP3    H165317   6.072   0.027   5.868 -0.5111 -0.8647  0.6069
14634TIP3    H265318   6.013   0.145   5.793  1.3861 -0.0029  0.4479
14635TIP3   OH265319   2.518   4.848   5.295  0.1609 -0.6351 -0.4597
14635TIP3    H165320   2.513   4.942   5.315 -1.8670 -0.7985 -0.0324
14635TIP3    H265321   2.487   4.805   5.375 -0.1978 -1.6151 -1.1193
14636TIP3   OH265322   0.908   6.201   4.601  0.0540 -0.1924 -0.5406
14636TIP3    H165323   0.813   6.201   4.610 -0.1906 -3.2658 -2.2628
14636TIP3    H265324   0.936   6.286   4.634 -3.0028 -0.4158  2.9377
14637TIP3   OH265325   0.024   0.101   3.700  0.0897  0.2576  0.3026
14637TIP3    H165326   0.027   0.188   3.740 -2.0398 -0.4344  2.0481
14637TIP3    H265327  -0.026   0.113   3.619 -0.7205  0.5572  0.8435
14638TIP3   OH265328   2.401   0.526   4.674 -0.1626 -0.2805  0.0923
14638TIP3    H165329   2.373   0.567   4.757 -0.5040  0.2063 -0.2588
14638TIP3    H265330   2.454   0.593   4.631 -0.1023 -0.4820 -0.1457
14639TIP3   OH265331   4.832   5.513   4.246  0.0336 -0.3144  0.2429
14639TIP3    H165332   4.831   5.530   4.341  2.0318 -0.9526  0.4157
14639TIP3    H265333   4.845   5.600   4.207  0.1142 -0.1556  0.6165
14640TIP3   OH265334   1.077   2.977  14.281  0.4786  0.4334  0.3507
14640TIP3    H165335   1.047   2.932  14.202 -0.3750 -1.6926  1.8463
14640TIP3    H265336   1.168   2.949  14.291 -0.1917 -1.3777  1.5396
14641TIP3   OH265337   2.153   2.059  16.931  0.0269  0.2632 -0.0783
14641TIP3    H165338   2.171   2.027  17.019  1.9509  0.5698 -0.3417
14641TIP3    H265339   2.230   2.112  16.909  0.3817 -1.2539 -2.6316
14642TIP3   OH265340   5.000   0.898  16.142 -0.2938 -0.6309  0.4166
14642TIP3    H165341   4.926   0.841  16.119  1.0776 -2.2605 -0.0542
14642TIP3    H265342   4.981   0.926  16.232 -1.9792 -0.2067 -0.0454
14643TIP3   OH265343   0.686   3.562  12.120  0.0870  0.3248  0.2811
14643TIP3    H165344   0.690   3.509  12.040 -0.8354 -1.0883  1.1619
14643TIP3    H265345   0.645   3.506  12.185 -0.8992  2.1066  1.2503
14644TIP3   OH265346   5.144   4.279  12.683 -0.2350  0.2164 -0.8945
14644TIP3    H165347   5.159   4.198  12.733 -1.1442  0.0832 -0.8372
14644TIP3    H265348   5.222   4.287  12.627  1.0706  0.7004  0.9743
14645TIP3   OH265349   2.243   0.414  11.793  0.0720 -0.0450  0.3084
14645TIP3    H165350   2.235   0.417  11.698 -0.6572 -2.7413  0.2458
14645TIP3    H265351   2.335   0.391  11.808  0.2102  0.4717  0.2729
14646TIP3   OH265352   2.265   1.050  14.180 -0.5404 -0.6625  0.3260
14646TIP3    H165353   2.320   1.007  14.246 -1.4841 -1.5562  0.5320
14646TIP3    H265354   2.299   1.017  14.096 -0.5715 -0.9823  0.4392
14647TIP3   OH265355   4.427   0.743  11.530  0.2724  0.0500 -0.2805
14647TIP3    H165356   4.504   0.709  11.486 -0.2163 -0.0945 -1.0240
14647TIP3    H265357   4.444   0.837  11.540 -0.3308  0.3759 -2.2475
14648TIP3   OH265358   5.773   1.506  15.012  0.2798 -0.7077 -0.6554
14648TIP3    H165359   5.740   1.524  14.924 -1.8381 -0.1610  0.2178
14648TIP3    H265360   5.851   1.453  14.998  1.3643  1.4109 -2.9534
14649TIP3   OH265361   6.539   1.384   2.718  0.3681 -0.4433  0.4266
14649TIP3    H165362   6.497   1.469   2.732 -0.0583 -0.5732 -0.0384
14649TIP3    H265363   6.536   1.371   2.623  0.1363 -1.1259  0.5204
14650TIP3   OH265364   5.769   0.232  14.448  0.0191 -0.1115  0.0411
14650TIP3    H165365   5.798   0.145  14.421  1.3729  0.4876 -0.5129
14650TIP3    H265366   5.749   0.223  14.541 -0.1092 -1.0751 -0.0730
14651TIP3   OH265367   5.986   5.664  15.829 -0.1527 -0.0063  0.2052
14651TIP3    H165368   6.076   5.697  15.829  0.1597 -0.8211  1.3592
14651TIP3    H265369   5.941   5.716  15.763  1.8413 -1.4362 -2.3742
14652TIP3   OH265370   3.841   4.831  14.815 -0.1800  0.2206  0.0505
14652TIP3    H165371   3.933   4.826  14.842 -0.2370  0.5354  0.3152
14652TIP3    H265372   3.844   4.867  14.727 -0.0569  0.4440  0.1446
14653TIP3   OH265373   1.908   3.204  14.206 -0.6494 -0.0224 -0.2617
14653TIP3    H165374   1.940   3.122  14.169  0.7206 -0.7480  2.3789
14653TIP3    H265375   1.926   3.270  14.139  1.7561 -1.2655 -0.8924
14654TIP3   OH265376   6.543   3.908   0.579 -0.7014  0.4841  0.6889
14654TIP3    H165377   6.494   3.839   0.534 -0.8263  0.8950  0.1991
14654TIP3    H265378   6.618   3.925   0.523 -0.3987  0.3931  1.0636
14655TIP3   OH265379   5.201   6.777   4.330 -0.1407  0.1162  0.2433
14655TIP3    H165380   5.153   6.779   4.247  0.0099 -0.2834  0.1446
14655TIP3    H265381   5.281   6.827   4.312 -0.0130 -0.1427  0.0870
14656TIP3   OH265382   6.605   2.654  12.647  0.2272 -0.3989 -0.1279
14656TIP3    H165383   6.675   2.634  12.710  0.0258 -0.3438  0.1136
14656TIP3    H265384   6.539   2.586  12.662  0.2580 -0.4888 -0.4001
14657TIP3   OH265385   3.175   2.649   0.648  0.2777  0.1100  0.0619
14657TIP3    H165386   3.262   2.688   0.661 -0.0262  0.4111  1.2407
14657TIP3    H265387   3.155   2.606   0.732 -1.5524  1.7206  0.4850
14658TIP3   OH265388   5.040   6.521   3.296  0.6101 -0.6742  0.3805
14658TIP3    H165389   5.119   6.514   3.242  1.3463  1.0766  1.2003
14658TIP3    H265390   5.059   6.470   3.374 -0.0722 -2.3753 -0.5369
14659TIP3   OH265391   3.955   4.014   0.779 -0.5706  0.0715  0.0680
14659TIP3    H165392   3.947   3.942   0.841  0.0586 -0.2552 -0.2279
14659TIP3    H265393   4.027   4.067   0.813 -1.6680  1.0922  0.8162
14660TIP3   OH265394   5.471   6.127  14.680  0.4353 -0.1595 -0.2256
14660TIP3    H165395   5.473   6.216  14.716  1.3413 -0.9092  1.5869
14660TIP3    H265396   5.378   6.107  14.674  0.2243  0.8088 -0.3910
14661TIP3   OH265397   2.747   4.420   2.704  0.3076 -0.8942  0.5711
14661TIP3    H165398   2.737   4.409   2.799  0.8888  0.1628  0.7635
14661TIP3    H265399   2.767   4.513   2.693 -3.0294 -0.3121 -0.8650
14662TIP3   OH265400   0.115   0.451  16.189 -0.1517  0.3306 -0.0882
14662TIP3    H165401   0.119   0.368  16.236  0.5722  1.1215  1.3021
14662TIP3    H265402   0.069   0.510  16.248 -2.5313  0.3772 -1.9339
14663TIP3   OH265403   4.462   0.400  11.123  0.5853  0.5493 -0.4523
14663TIP3    H165404   4.401   0.371  11.055 -0.2397 -0.7886  0.8163
14663TIP3    H265405   4.549   0.388  11.084  0.2129 -2.2668 -0.5610
14664TIP3   OH265406   3.703   0.770   2.818  0.1871  0.1574 -0.2440
14664TIP3    H165407   3.676   0.687   2.858  0.5865 -0.5968 -1.5316
14664TIP3    H265408   3.621   0.812   2.792 -0.1450  1.0534  2.0974
14665TIP3   OH265409   0.489   3.199  17.050 -0.3885 -0.1873 -0.4223
14665TIP3    H165410   0.492   3.138  16.977  0.9999 -1.2630  0.4803
14665TIP3    H265411   0.513   3.146  17.126 -1.4187  0.9889  0.7560
14666TIP3   OH265412   1.286   0.970  15.063 -0.3647 -0.9673  0.2352
14666TIP3    H165413   1.308   1.062  15.076 -2.3185 -0.3752 -0.4156
14666TIP3    H265414   1.210   0.972  15.005  0.8580 -3.0781 -1.4879
14667TIP3   OH265415   4.972   4.985  15.842 -0.0744  0.1561 -0.0877
14667TIP3    H165416   4.900   5.006  15.902 -0.5029 -1.0141 -0.1783
14667TIP3    H265417   4.997   4.895  15.865  0.0398 -0.1564 -1.3902
14668TIP3   OH265418   0.964   2.702   5.669 -0.0088 -0.2799 -0.4925
14668TIP3    H165419   1.009   2.664   5.593  0.2006 -0.6753 -0.1704
14668TIP3    H265420   0.900   2.762   5.631  2.1794  1.8977 -0.9213
14669TIP3   OH265421   2.424   5.330  11.524  0.2723 -0.4834 -0.2913
14669TIP3    H165422   2.351   5.387  11.503  2.3465  2.3074 -0.3025
14669TIP3    H265423   2.482   5.336  11.448  2.0978  0.1184  1.1030
14670TIP3   OH265424   2.267   3.571   1.592 -0.3180  0.4592  0.4166
14670TIP3    H165425   2.301   3.601   1.677  0.8718 -1.3930  0.6361
14670TIP3    H265426   2.246   3.652   1.545 -3.7078  1.5226  3.4955
14671TIP3   OH265427   3.277   6.204  14.299 -0.3255 -0.0720 -0.4867
14671TIP3    H165428   3.281   6.296  14.274 -4.8077  0.3265 -0.1361
14671TIP3    H265429   3.316   6.157  14.226  2.4386  2.0886 -0.4700
14672TIP3   OH265430   0.937   5.643   4.766 -0.2956 -0.1143  0.3933
14672TIP3    H165431   1.029   5.655   4.746 -0.5374  2.5182  0.6991
14672TIP3    H265432   0.892   5.654   4.682 -0.4711  0.2135  0.5309
14673TIP3   OH265433   2.388   5.625  13.663  0.0524 -0.3727 -0.0292
14673TIP3    H165434   2.390   5.541  13.616 -0.5936 -0.7242  0.5579
14673TIP3    H265435   2.307   5.666  13.634  0.3317  0.0167 -0.2567
14674TIP3   OH265436   5.273   1.048  12.183 -0.8559 -0.0534 -0.0248
14674TIP3    H165437   5.217   1.082  12.113  2.3268  1.8011 -1.8104
14674TIP3    H265438   5.307   0.966  12.148 -0.4472  0.1229 -0.0482
14675TIP3   OH265439   5.615   3.245   0.405  0.8002  0.9438  0.0751
14675TIP3    H165440   5.550   3.304   0.443  0.6052  1.1680 -0.6027
14675TIP3    H265441   5.675   3.226   0.477  0.4860  1.4448  0.4704
14676TIP3   OH265442   1.459   1.388   4.775 -0.2936  0.0399  0.0877
14676TIP3    H165443   1.526   1.332   4.736 -1.6837 -0.2958 -1.8727
14676TIP3    H265444   1.416   1.332   4.840 -0.1242 -0.4376 -0.2067
14677TIP3   OH265445   2.696   4.492   1.530  0.5824 -0.5858 -0.0161
14677TIP3    H165446   2.637   4.563   1.555  1.8794  0.7271 -0.6277
14677TIP3    H265447   2.670   4.471   1.440  1.7624  0.7634 -0.6911
14678TIP3   OH265448   5.454   0.008   1.561 -0.2957 -0.3489 -0.0860
14678TIP3    H165449   5.386  -0.014   1.498 -0.8400 -1.0999  0.7580
14678TIP3    H265450   5.459   0.104   1.559 -2.7102 -0.1514  1.2267
14679TIP3   OH265451   1.083   0.576   6.028 -0.3795 -0.1498  0.1778
14679TIP3    H165452   1.117   0.565   6.117 -0.7269  0.0121  0.3282
14679TIP3    H265453   1.071   0.486   5.996  1.9755 -0.2301 -0.5595
14680TIP3   OH265454   5.712   5.101   3.080 -0.5253  0.6248  0.2481
14680TIP3    H165455   5.688   5.143   2.997  0.3833  2.1744  0.7496
14680TIP3    H265456   5.796   5.141   3.103  0.3491 -1.4814  0.7553
14681TIP3   OH265457   6.576   3.087  11.402 -0.2442  0.1729  0.2177
14681TIP3    H165458   6.577   3.037  11.320 -1.5391  1.7089 -0.7638
14681TIP3    H265459   6.573   3.178  11.374  0.6991  0.7697  1.9992
14682TIP3   OH265460   0.342   0.658  11.014 -0.6640  0.1943  0.3982
14682TIP3    H165461   0.304   0.742  10.987 -1.7252 -0.2039  0.6286
14682TIP3    H265462   0.402   0.681  11.085 -1.9503  0.6034  1.3664
14683TIP3   OH265463   1.426   1.509  11.858  0.1972 -0.4958 -0.0428
14683TIP3    H165464   1.463   1.597  11.848  2.4355 -1.5280 -1.3785
14683TIP3    H265465   1.384   1.490  11.775 -2.9414  0.4359  1.2758
14684TIP3   OH265466   5.964   3.782   0.462 -0.2506  0.1395 -0.4244
14684TIP3    H165467   6.031   3.714   0.470  0.2503  0.6454 -0.3132
14684TIP3    H265468   5.919   3.762   0.379  1.1191  0.7752 -1.3281
14685TIP3   OH265469   0.079   3.632   3.299  0.0054 -0.6626  0.8842
14685TIP3    H165470   0.062   3.562   3.236  2.1164 -1.3293  1.0142
14685TIP3    H265471   0.097   3.587   3.382 -1.3671  0.1576  1.6469
14686TIP3   OH265472   4.677   3.327   2.943  0.0195  0.2002  0.3929
14686TIP3    H165473   4.647   3.264   3.008  0.9724 -0.5308  0.1376
14686TIP3    H265474   4.711   3.274   2.871 -0.1860  0.9983 -0.3112
14687TIP3   OH265475   5.119   3.485  16.534  0.0958 -0.2608 -0.3689
14687TIP3    H165476   5.110   3.391  16.549 -2.4543 -0.4741 -2.8710
14687TIP3    H265477   5.132   3.494  16.440  0.6865  1.8757 -0.1225
14688TIP3   OH265478   5.209   0.950  15.419  0.4211  0.1707 -0.2295
14688TIP3    H165479   5.229   0.860  15.444 -1.2842  0.7655  3.7174
14688TIP3    H265480   5.294   0.990  15.402  1.3748 -1.4776  0.5538
14689TIP3   OH265481   4.428   2.340  10.874  0.1235  0.1760 -0.0501
14689TIP3    H165482   4.495   2.407  10.889  0.4899 -0.2794  0.3513
14689TIP3    H265483   4.476   2.264  10.840 -0.2765  0.0731 -0.3991
14690TIP3   OH265484   5.878   5.267  13.617 -0.4939 -0.1217 -0.2356
14690TIP3    H165485   5.915   5.229  13.696  0.3797  2.0579  0.4218
14690TIP3    H265486   5.784   5.272  13.635 -0.3209  0.2130  0.6101
14691TIP3   OH265487   4.625   5.502  16.701 -0.0643 -0.0719  0.2474
14691TIP3    H165488   4.570   5.452  16.762 -0.6483 -0.3559 -0.5092
14691TIP3    H265489   4.563   5.555  16.652  0.3797 -0.0846 -0.3260
14692TIP3   OH265490   5.452   2.254   2.038 -0.2638  0.0800  0.0869
14692TIP3    H165491   5.412   2.218   2.118 -1.9359 -1.4153 -1.3676
14692TIP3    H265492   5.535   2.208   2.030 -0.1194  0.1861  0.9332
14693TIP3   OH265493   2.149   5.226   1.530 -0.7076 -0.2639  0.5163
14693TIP3    H165494   2.180   5.313   1.555 -1.3486 -0.3254  1.5526
14693TIP3    H265495   2.223   5.168   1.546 -1.0102 -0.2594  2.0618
14694TIP3   OH265496   5.426   2.250   3.540 -0.7928 -0.2095  0.2822
14694TIP3    H165497   5.454   2.187   3.606  0.6263  0.2048  0.0857
14694TIP3    H265498   5.346   2.212   3.503  0.0626 -1.9055  0.1350
14695TIP3   OH265499   6.591   3.287  12.756 -0.4855 -0.2243 -0.0179
14695TIP3    H165500   6.628   3.255  12.674 -0.1311  0.1539 -0.0102
14695TIP3    H265501   6.546   3.212  12.794 -1.9111 -0.0175 -1.2696
14696TIP3   OH265502   4.387   2.996  16.087 -0.0808  0.4544 -0.0964
14696TIP3    H165503   4.349   2.908  16.091 -0.9095  0.7172 -1.7607
14696TIP3    H265504   4.315   3.054  16.110 -0.1580  0.8214 -1.2083
14697TIP3   OH265505   4.559   3.006  12.616 -0.1190 -0.0754  0.3928
14697TIP3    H165506   4.476   3.048  12.638  0.4819  0.5435  1.5262
14697TIP3    H265507   4.625   3.053  12.667  0.9168 -0.6874 -0.3339
14698TIP3   OH265508   1.610   4.454   4.544 -0.2157  0.3768 -0.3173
14698TIP3    H165509   1.631   4.371   4.587  2.3081  0.9227 -0.3780
14698TIP3    H265510   1.606   4.433   4.451 -2.8933 -0.2739 -0.0890
14699TIP3   OH265511   2.771   3.145  13.425 -0.2886 -0.0935  0.1176
14699TIP3    H165512   2.760   3.052  13.408  1.6910 -0.4187  0.4937
14699TIP3    H265513   2.716   3.163  13.502  1.1972 -1.4712  1.5292
14700TIP3   OH265514   1.658   1.085   5.729 -0.6728  0.3929  0.3456
14700TIP3    H165515   1.702   1.170   5.736 -1.4654  1.0060 -1.7540
14700TIP3    H265516   1.664   1.063   5.636 -0.8089 -1.6808  0.8165
14701TIP3   OH265517   6.769   2.334  12.657 -0.3675 -0.1311  0.3458
14701TIP3    H165518   6.765   2.241  12.637  0.1691  0.0279 -0.5168
14701TIP3    H265519   6.719   2.343  12.738 -2.5833 -0.7890 -0.9110
14702TIP3   OH265520   1.796   0.715  11.883  0.1861 -0.2647 -0.2611
14702TIP3    H165521   1.864   0.729  11.817  0.7973 -1.4023  0.1089
14702TIP3    H265522   1.718   0.693  11.831  0.6749 -1.1988 -0.6229
14703TIP3   OH265523   4.651   3.835   1.107  0.5914  0.7052  0.3135
14703TIP3    H165524   4.744   3.842   1.126  0.3843  2.2993  0.7997
14703TIP3    H265525   4.614   3.919   1.133 -0.6635  0.8378 -1.7195
14704TIP3   OH265526   5.932   2.944   3.784 -0.7229  0.1313 -0.1568
14704TIP3    H165527   5.901   2.871   3.731  1.1361 -0.3340 -0.6358
14704TIP3    H265528   5.884   2.936   3.867 -1.7917 -0.6021 -0.8380
14705TIP3   OH265529   2.565   6.108   4.914  0.2681 -0.7459  0.0045
14705TIP3    H165530   2.619   6.065   4.848 -0.9665 -1.9214 -0.2753
14705TIP3    H265531   2.487   6.052   4.921 -0.0481 -0.1230  1.7690
14706TIP3   OH265532   3.177   2.299  11.371 -0.6357 -0.2157  0.0448
14706TIP3    H165533   3.098   2.347  11.349 -0.4949 -0.8759 -2.0379
14706TIP3    H265534   3.149   2.208  11.375 -0.0097 -0.4399 -0.6015
14707TIP3   OH265535   6.650   0.609   5.743 -0.4260 -0.1877 -0.3989
14707TIP3    H165536   6.681   0.649   5.662 -1.5554  0.4386 -0.5329
14707TIP3    H265537   6.724   0.556   5.773  0.3589  0.3725 -1.3006
14708TIP3   OH265538   4.251   6.344  16.088  0.1651 -0.0723 -0.2777
14708TIP3    H165539   4.230   6.427  16.046  0.0053  0.3575  0.6178
14708TIP3    H265540   4.165   6.304  16.106  0.2411 -0.4399 -0.7228
14709TIP3   OH265541   1.617   3.397   0.063  0.2081  0.7906 -0.1688
14709TIP3    H165542   1.560   3.466   0.097  0.2492  0.6869  0.1124
14709TIP3    H265543   1.606   3.402  -0.032  1.0234  1.9001 -0.2267
14710TIP3   OH265544   1.410   3.173  11.548 -0.1097 -0.5619  0.0968
14710TIP3    H165545   1.335   3.220  11.511 -1.3787 -1.3281  1.6188
14710TIP3    H265546   1.431   3.220  11.628 -0.0882 -1.3571  0.5685
14711TIP3   OH265547   5.023   2.690  15.056 -0.3556  0.4442 -0.0140
14711TIP3    H165548   4.982   2.604  15.059 -1.6447  1.0781  0.6643
14711TIP3    H265549   5.008   2.721  14.966 -1.0531  0.5199  0.1256
14712TIP3   OH265550   1.154   4.653  12.506 -0.2775  0.2364  0.1641
14712TIP3    H165551   1.180   4.591  12.575 -2.8137  0.0355  1.0052
14712TIP3    H265552   1.234   4.671  12.458  1.0470 -1.5968  1.6193
14713TIP3   OH265553   5.022   3.320  12.712  0.1052  0.2133  0.0386
14713TIP3    H165554   4.952   3.262  12.741  0.6713  0.4217  1.8425
14713TIP3    H265555   4.976   3.398  12.680 -0.4972  0.2423  0.9614
14714TIP3   OH265556   6.553   6.603  15.506 -0.6296  0.0495  0.0793
14714TIP3    H165557   6.628   6.661  15.504  0.8075 -1.7046  1.1538
14714TIP3    H265558   6.477   6.661  15.507  0.7247  1.8542  0.1332
14715TIP3   OH265559   0.044   2.920  11.142  0.4201  0.0586  0.0202
14715TIP3    H165560   0.111   2.982  11.116 -0.9262  0.8840 -1.6464
14715TIP3    H265561   0.043   2.855  11.071  0.8387 -1.0897  1.0413
14716TIP3   OH265562   1.195   0.509   3.746 -0.7486 -0.6056  0.0037
14716TIP3    H165563   1.249   0.464   3.809  0.3673  2.0010  0.9835
14716TIP3    H265564   1.190   0.599   3.778 -3.7810 -0.2476 -1.2836
14717TIP3   OH265565   3.198   5.545   3.046  0.0059 -0.1571 -0.2879
14717TIP3    H165566   3.198   5.616   2.981  2.5379  1.2824  1.1726
14717TIP3    H265567   3.144   5.579   3.117  1.2468  0.3665  0.4260
14718TIP3   OH265568   1.122   5.074  13.366  0.1467  0.5718 -0.1118
14718TIP3    H165569   1.046   5.093  13.311  0.6329  0.9164 -0.6785
14718TIP3    H265570   1.132   5.153  13.420 -0.6395  0.0271  0.8462
14719TIP3   OH265571   6.342   4.439  15.850  0.6230  0.0451  0.0240
14719TIP3    H165572   6.350   4.398  15.764  1.6299  0.1469  0.0590
14719TIP3    H265573   6.301   4.372  15.905 -0.7765  0.2756 -0.7305
14720TIP3   OH265574   0.740   0.751  15.242  0.5092  0.9269  0.1822
14720TIP3    H165575   0.695   0.762  15.326  0.0551 -0.5611  0.1455
14720TIP3    H265576   0.675   0.779  15.177 -0.5257 -1.5154  0.1113
14721TIP3   OH265577   5.360   0.882   0.486  0.1954  0.5763  0.1312
14721TIP3    H165578   5.304   0.876   0.564 -0.7553  2.7283 -0.3232
14721TIP3    H265579   5.321   0.954   0.435  0.5268 -1.0910 -2.5651
14722TIP3   OH265580   5.218   6.459  11.877 -0.2537  0.0558  0.0918
14722TIP3    H165581   5.202   6.552  11.864 -0.0996  0.3007  1.5928
14722TIP3    H265582   5.130   6.420  11.884 -0.3082  0.2808  0.7123
14723TIP3   OH265583   4.019   0.902  12.461  0.1038  0.1041  0.2649
14723TIP3    H165584   3.926   0.893  12.443  0.1806  1.2163 -0.8450
14723TIP3    H265585   4.062   0.864  12.384  0.5103  1.6687 -0.3029
14724TIP3   OH265586   3.135   5.322  12.518 -0.1212  0.2544  0.5878
14724TIP3    H165587   3.062   5.308  12.579 -0.2280  1.4346  0.7342
14724TIP3    H265588   3.125   5.412  12.488 -0.9973 -0.8079 -2.4427
14725TIP3   OH265589   1.212   1.191  13.527 -0.1492  0.8180  0.1795
14725TIP3    H165590   1.136   1.193  13.585 -0.9303  0.3662 -0.8122
14725TIP3    H265591   1.181   1.229  13.445  0.9936  1.6024  0.1031
14726TIP3   OH265592   2.745   1.174   5.125 -0.5924 -0.0623  0.0653
14726TIP3    H165593   2.729   1.136   5.211  0.2761 -0.7055 -0.0461
14726TIP3    H265594   2.661   1.211   5.099 -0.4286  1.7185  1.9692
14727TIP3   OH265595   0.207   6.007  12.264  0.4248  0.3305 -0.2097
14727TIP3    H165596   0.252   6.062  12.329  1.5472  0.0970 -0.7671
14727TIP3    H265597   0.270   5.937  12.245 -0.0103  0.2418 -1.3303
14728TIP3   OH265598   6.090   3.354  12.652 -0.6605 -0.6909 -0.0606
14728TIP3    H165599   6.171   3.321  12.613 -0.1839  0.7382 -0.3303
14728TIP3    H265600   6.119   3.428  12.707 -1.7737 -0.1864 -0.1445
14729TIP3   OH265601   1.880   6.458  14.086  0.0437  0.6433 -0.2463
14729TIP3    H165602   1.801   6.422  14.047  0.0468  0.4373 -0.0649
14729TIP3    H265603   1.909   6.525  14.024  1.2719 -1.1849 -1.7403
14730TIP3   OH265604   3.017   0.350  16.339 -0.4536 -1.4471 -0.3393
14730TIP3    H165605   2.976   0.291  16.403  0.7793 -2.9592 -0.8947
14730TIP3    H265606   3.011   0.303  16.256 -1.4048  0.1937 -1.2088
14731TIP3   OH265607   5.800   1.884  15.478 -0.3271 -0.0337  0.2762
14731TIP3    H165608   5.893   1.891  15.502 -0.8650 -1.4030  3.0222
14731TIP3    H265609   5.758   1.951  15.533 -1.3541 -1.7686  1.6397
14732TIP3   OH265610   5.931   3.440   2.421  0.4655  1.0397  0.1246
14732TIP3    H165611   5.907   3.524   2.382 -0.8396 -0.6163 -2.8614
14732TIP3    H265612   5.994   3.403   2.359 -1.6900 -1.7098 -0.5395
14733TIP3   OH265613   0.525   5.979   3.325 -0.0679 -0.1190 -0.2943
14733TIP3    H165614   0.614   5.943   3.323 -0.5743 -1.3032 -1.9551
14733TIP3    H265615   0.499   5.986   3.233 -1.7689  0.0578  0.1761
14734TIP3   OH265616   4.477   2.834   5.247 -0.0550 -0.0916  0.0093
14734TIP3    H165617   4.403   2.780   5.219  0.1167 -1.2393  1.7034
14734TIP3    H265618   4.466   2.916   5.199 -2.1280 -0.4375 -0.1443
14735TIP3   OH265619   5.611   4.369   3.820  0.3899  0.2480 -0.1252
14735TIP3    H165620   5.596   4.342   3.911 -0.2927  1.5400  0.1674
14735TIP3    H265621   5.532   4.419   3.797  0.9382  0.6530 -1.1443
14736TIP3   OH265622   4.569   2.697   0.751 -0.6636 -0.0837 -0.7978
14736TIP3    H165623   4.588   2.790   0.755 -0.2731 -0.0936 -2.1072
14736TIP3    H265624   4.655   2.655   0.743 -0.8883 -0.5096 -1.0015
14737TIP3   OH265625   0.656   0.728   4.146 -0.3834 -0.4278  0.6308
14737TIP3    H165626   0.636   0.748   4.055 -1.1227  1.1480  1.1363
14737TIP3    H265627   0.588   0.665   4.172 -1.5479  0.8830  0.7769
14738TIP3   OH265628   3.814   2.027  10.388  1.1443 -0.4630  0.3277
14738TIP3    H165629   3.880   1.963  10.415  0.6681 -1.5718 -1.0858
14738TIP3    H265630   3.739   1.974  10.360  0.4777  0.7282 -0.1658
14739TIP3   OH265631   2.715   0.231  16.111 -0.2236 -0.4165 -0.1094
14739TIP3    H165632   2.687   0.188  16.030 -2.7898 -0.5988  0.8300
14739TIP3    H265633   2.782   0.174  16.147  0.1655 -0.8984 -1.5642
14740TIP3   OH265634   5.630   1.980   5.136  0.0117  0.3351 -0.0454
14740TIP3    H165635   5.709   1.930   5.118 -0.4893 -0.4404 -0.0901
14740TIP3    H265636   5.561   1.936   5.086 -0.8319 -0.1522  1.4874
14741TIP3   OH265637   6.284   3.799  11.572  0.3613  0.2591 -0.2734
14741TIP3    H165638   6.250   3.815  11.484  0.2864 -0.1137 -0.3121
14741TIP3    H265639   6.374   3.767  11.558  0.0772 -0.5632 -0.2523
14742TIP3   OH265640   3.038   3.496   0.360 -0.0589 -0.7467 -0.0947
14742TIP3    H165641   2.990   3.580   0.366 -0.7924 -1.0908 -1.0783
14742TIP3    H265642   3.119   3.518   0.315 -0.5715 -0.6952 -1.0016
14743TIP3   OH265643   4.956   6.126  13.161 -0.0992  0.2108 -0.3255
14743TIP3    H165644   5.017   6.120  13.235  1.8241  2.6876 -1.6298
14743TIP3    H265645   4.902   6.047  13.167  1.3955 -0.6320  2.5079
14744TIP3   OH265646   4.189   3.706   0.661 -0.2153  0.0510  0.4860
14744TIP3    H165647   4.143   3.642   0.715 -1.3550 -1.1224 -1.8235
14744TIP3    H265648   4.121   3.765   0.629  0.4641  0.8087  0.4087
14745TIP3   OH265649   5.191   5.278  13.097  0.2354 -0.2714  0.3359
14745TIP3    H165650   5.126   5.231  13.150  0.0044  0.6289  0.8581
14745TIP3    H265651   5.273   5.269  13.146  0.0121  0.5976  0.8639
14746TIP3   OH265652   4.349   2.710  14.685 -0.1930 -0.6046  0.0232
14746TIP3    H165653   4.370   2.627  14.643 -1.2499 -1.7241  1.6464
14746TIP3    H265654   4.332   2.687  14.776  1.8813  1.7294  1.0729
14747TIP3   OH265655   6.359   3.965   5.303 -0.2074 -0.3074  0.2110
14747TIP3    H165656   6.442   3.983   5.259 -0.1258 -0.4251  0.3133
14747TIP3    H265657   6.310   3.911   5.241 -0.9208  1.2280 -0.5574
14748TIP3   OH265658   1.570   1.994  13.887  0.1461 -0.1918 -0.2743
14748TIP3    H165659   1.482   1.983  13.850 -0.1117 -1.6866  0.7376
14748TIP3    H265660   1.564   2.074  13.939 -0.5881 -0.2367 -0.2827
14749TIP3   OH265661   3.837   5.461  12.569  0.1147  0.5679  0.0805
14749TIP3    H165662   3.809   5.553  12.567 -0.3398  0.4149 -1.1752
14749TIP3    H265663   3.890   5.454  12.648  0.2523  1.9398  0.1266
14750TIP3   OH265664   1.426   5.611   1.599 -0.2267 -0.0639  0.5474
14750TIP3    H165665   1.408   5.526   1.639  0.5496 -0.6258 -0.2555
14750TIP3    H265666   1.473   5.590   1.518 -0.2558  1.1199  0.2038
14751TIP3   OH265667   1.009   3.569  10.413  0.2298  0.6408 -0.3989
14751TIP3    H165668   1.098   3.536  10.398  0.0900  0.3498 -0.6041
14751TIP3    H265669   1.009   3.596  10.505  0.7012  1.1920 -0.5546
14752TIP3   OH265670   3.663   5.262   1.907 -0.3283 -0.4507  0.1900
14752TIP3    H165671   3.633   5.188   1.961 -0.4872  0.1841  0.9808
14752TIP3    H265672   3.755   5.274   1.933 -0.4362 -0.0755  0.3973
14753TIP3   OH265673   6.747   1.358   5.100  0.7159 -0.6811  0.2978
14753TIP3    H165674   6.808   1.394   5.164  1.8440  1.6704 -2.0002
14753TIP3    H265675   6.676   1.421   5.097  0.7824 -0.6510 -0.9081
14754TIP3   OH265676   3.476   3.514  14.989  0.4297  0.3631 -0.1903
14754TIP3    H165677   3.389   3.552  15.006  0.4777  0.0376  0.8137
14754TIP3    H265678   3.515   3.572  14.923 -1.7084 -1.1782 -2.9402
14755TIP3   OH265679   4.800   6.341   0.622 -0.9394 -0.3891  0.5265
14755TIP3    H165680   4.864   6.408   0.647  0.0311 -0.9943 -0.3298
14755TIP3    H265681   4.731   6.349   0.688 -0.3417  0.7606  1.0335
14756TIP3   OH265682   2.205   4.906  14.417 -0.6762 -0.7233  0.2911
14756TIP3    H165683   2.187   4.844  14.488 -3.0345 -1.9612 -1.3162
14756TIP3    H265684   2.243   4.852  14.347 -0.4120  0.0953 -0.2048
14757TIP3   OH265685   1.908   5.404   1.193 -0.4260 -0.1381  0.1944
14757TIP3    H165686   1.972   5.353   1.143 -0.3287  0.2234 -0.0488
14757TIP3    H265687   1.825   5.357   1.182 -0.7873  0.9170 -1.7839
14758TIP3   OH265688   0.770   3.677   2.558 -0.1905 -0.6971  0.3185
14758TIP3    H165689   0.825   3.710   2.629  0.2701  0.3285 -0.5007
14758TIP3    H265690   0.821   3.607   2.518  0.4191  0.0932 -0.2892
14759TIP3   OH265691   5.965   4.929  12.569  0.4530 -0.2766 -0.8662
14759TIP3    H165692   5.913   4.956  12.494 -1.3507  1.3153  0.9113
14759TIP3    H265693   6.054   4.959  12.549  0.0904 -0.2994 -2.5474
14760TIP3   OH265694   2.797   3.519   2.917 -0.0874 -0.0338  0.6913
14760TIP3    H165695   2.832   3.498   3.004 -0.3859  1.1600  1.1145
14760TIP3    H265696   2.708   3.550   2.933 -0.2870 -0.1970 -0.0767
14761TIP3   OH265697   2.033   4.287   2.033 -0.1568 -0.4846  0.2135
14761TIP3    H165698   2.058   4.252   2.119 -0.6168 -0.1212  0.5047
14761TIP3    H265699   1.972   4.358   2.054  1.0849  0.7684 -0.3312
14762TIP3   OH265700   2.898   1.948  12.466  0.2541 -0.0021 -0.3444
14762TIP3    H165701   2.991   1.953  12.487  0.2311 -0.1746 -0.1976
14762TIP3    H265702   2.861   1.892  12.534  0.0450  0.0574 -0.4071
14763TIP3   OH265703   3.181   1.075   0.579  0.1312  0.1082 -0.7333
14763TIP3    H165704   3.135   0.993   0.598  3.0208 -1.5631 -0.6351
14763TIP3    H265705   3.272   1.049   0.566  1.2764  3.4328  0.1025
14764TIP3   OH265706   5.514   4.721   0.123  0.0846  0.2052  0.1175
14764TIP3    H165707   5.593   4.724   0.069 -0.6306  0.3471 -0.9422
14764TIP3    H265708   5.485   4.629   0.118  1.6460 -0.4673  2.6783
14765TIP3   OH265709   2.061   0.671   4.195  0.6515 -0.2463  0.0764
14765TIP3    H165710   1.970   0.651   4.217  0.4394  0.5935 -0.0186
14765TIP3    H265711   2.101   0.698   4.278  0.6152  0.1127 -0.0219
14766TIP3   OH265712   2.519   5.743   4.719  0.3370  0.1774 -0.3835
14766TIP3    H165713   2.435   5.765   4.678  0.2048  0.5185  0.0811
14766TIP3    H265714   2.579   5.810   4.687 -0.2491  1.7120  1.6796
14767TIP3   OH265715   1.131   1.813   0.165  0.2839  0.2921 -0.1960
14767TIP3    H165716   1.204   1.800   0.226  0.3762 -0.4433 -0.4493
14767TIP3    H265717   1.104   1.724   0.141 -0.9199  0.5477  0.1561
14768TIP3   OH265718   6.438   3.230  13.408  0.3044 -0.4835  0.1278
14768TIP3    H165719   6.408   3.285  13.480  0.5009  3.0698 -2.4018
14768TIP3    H265720   6.378   3.248  13.336  1.7160 -1.9075 -1.4642
14769TIP3   OH265721   6.078   1.553   0.040 -0.9238 -0.4567  0.2542
14769TIP3    H165722   6.060   1.569  -0.053  1.6628  0.3716 -0.1255
14769TIP3    H265723   6.129   1.472   0.042 -0.8154 -0.3794  0.9394
14770TIP3   OH265724   1.331   2.109   4.729  0.2778 -0.4145 -0.3525
14770TIP3    H165725   1.329   2.023   4.688  0.9744 -0.7656  0.3598
14770TIP3    H265726   1.409   2.151   4.692  1.7869 -1.3068  1.7858
14771TIP3   OH265727   1.657   3.800  16.044 -0.5417  0.2534 -0.1161
14771TIP3    H165728   1.652   3.845  15.960 -0.2624  0.0683 -0.2312
14771TIP3    H265729   1.667   3.708  16.022 -1.1838  0.1271  0.1202
14772TIP3   OH265730   3.282   3.794   1.323 -0.3252 -0.2314  0.0899
14772TIP3    H165731   3.249   3.828   1.406  0.3276  0.0028  0.2556
14772TIP3    H265732   3.321   3.870   1.280  0.6968 -0.6614  0.2422
14773TIP3   OH265733   0.793   0.961  15.453 -0.9085 -0.1932  0.1681
14773TIP3    H165734   0.847   0.929  15.525 -1.1707  3.3799  2.0064
14773TIP3    H265735   0.851   0.957  15.376  1.3116  1.6206  1.7098
14774TIP3   OH265736   1.341   0.956  16.958 -0.0073  0.0922 -0.5831
14774TIP3    H165737   1.298   0.922  17.037 -1.2243 -0.0235 -1.2767
14774TIP3    H265738   1.362   1.047  16.980  0.7233 -0.2765  0.2813
14775TIP3   OH265739   5.850   0.865  15.544 -0.6391  0.1759  0.3978
14775TIP3    H165740   5.922   0.806  15.563  1.4801  2.3974 -0.3986
14775TIP3    H265741   5.818   0.838  15.458 -0.0848 -0.1981  0.3109
14776TIP3   OH265742   0.409   5.499  16.378  0.2659  0.6649 -0.0515
14776TIP3    H165743   0.376   5.575  16.329  1.7004  1.2537 -0.1158
14776TIP3    H265744   0.374   5.424  16.331 -0.4520  1.2683 -0.5045
14777TIP3   OH265745   0.510   3.995   5.569 -0.6232 -0.8310  0.1909
14777TIP3    H165746   0.574   3.955   5.510  0.2261 -3.1905  2.5821
14777TIP3    H265747   0.468   3.921   5.613 -1.1201  0.8223  2.6150
14778TIP3   OH265748   1.499   1.347  12.822  0.2811  0.3870 -0.5736
14778TIP3    H165749   1.520   1.433  12.858 -0.1395  0.7624 -1.2152
14778TIP3    H265750   1.528   1.351  12.732 -0.8797  0.2958 -0.9667
14779TIP3   OH265751   1.136   3.640   1.531 -0.3515  0.0137  0.3594
14779TIP3    H165752   1.086   3.701   1.585 -0.4163 -0.5197  0.9130
14779TIP3    H265753   1.079   3.621   1.457  0.9311  3.1208 -1.5431
14780TIP3   OH265754   3.484   2.259   5.094 -0.4430  0.2536  0.0624
14780TIP3    H165755   3.502   2.349   5.120 -0.5236  0.2068  0.2837
14780TIP3    H265756   3.450   2.266   5.005 -2.3929  0.6323  0.8020
14781TIP3   OH265757   1.006   2.997  11.641  0.0891  0.7031  0.0054
14781TIP3    H165758   0.928   3.022  11.591 -0.9467 -1.4092  0.5092
14781TIP3    H265759   1.069   2.970  11.575 -1.5888 -2.9500 -0.2084
14782TIP3   OH265760   2.402   0.827  12.941 -0.5245 -0.5504 -0.0153
14782TIP3    H165761   2.419   0.733  12.947 -0.7482 -0.6496 -0.9073
14782TIP3    H265762   2.310   0.834  12.916 -0.5088 -0.0891  0.0476
14783TIP3   OH265763   0.931   1.115  16.929  0.0985  0.4090 -0.1094
14783TIP3    H165764   0.994   1.141  16.997 -1.0291 -0.7909  1.4297
14783TIP3    H265765   0.926   1.020  16.937 -0.1136  0.2675 -1.8410
14784TIP3   OH265766   0.142   0.950   4.451  0.2366  0.4013 -0.5989
14784TIP3    H165767   0.158   1.032   4.498  0.8652 -0.2317  0.2994
14784TIP3    H265768   0.210   0.891   4.482  0.2878 -0.2192 -1.8573
14785TIP3   OH265769   2.172   2.181  12.607  0.1438  0.7151  0.2424
14785TIP3    H165770   2.104   2.188  12.540  1.3584 -0.7992 -1.2018
14785TIP3    H265771   2.147   2.104  12.658 -0.1030  1.1158  0.7176
14786TIP3   OH265772   0.992   1.481   3.036 -0.1530  0.6800  0.1570
14786TIP3    H165773   0.962   1.417   3.101  0.6001  0.4684  0.3038
14786TIP3    H265774   1.000   1.563   3.086  2.5378  0.0348  0.8727
14787TIP3   OH265775   3.603   5.091  15.726 -0.6317 -0.1546  0.1942
14787TIP3    H165776   3.509   5.108  15.739 -0.9404 -0.7335 -1.1850
14787TIP3    H265777   3.624   5.136  15.645 -0.2542 -1.9147 -0.7222
14788TIP3   OH265778   1.908   0.035  14.289  0.0812  0.5074  0.2840
14788TIP3    H165779   1.826  -0.015  14.286 -1.6761  3.3147 -1.1397
14788TIP3    H265780   1.958   0.002  14.214 -0.1245 -0.6143  0.6320
14789TIP3   OH265781   3.268   2.403   5.306  0.1210  0.4931 -0.1083
14789TIP3    H165782   3.235   2.385   5.218  1.0850 -0.2095 -0.3197
14789TIP3    H265783   3.350   2.450   5.292  0.2875  0.3600  0.4209
14790TIP3   OH265784   2.520   5.942  14.793  0.5681  0.4669  0.4986
14790TIP3    H165785   2.446   5.964  14.850  0.5267 -0.3183  0.7415
14790TIP3    H265786   2.492   5.971  14.706 -0.0825  0.0501  0.5680
14791TIP3   OH265787   0.368   5.324  14.253  0.0164 -0.0422  0.5460
14791TIP3    H165788   0.285   5.363  14.282  0.4982  0.8159  0.7910
14791TIP3    H265789   0.364   5.328  14.158 -0.0817  0.3119  0.5630
14792TIP3   OH265790   6.760   2.378   2.873  0.2491 -0.4271 -0.4762
14792TIP3    H165791   6.855   2.377   2.870  0.2297  0.5837 -1.5192
14792TIP3    H265792   6.734   2.445   2.811 -1.1676 -1.1283 -0.6699
14793TIP3   OH265793   6.536   4.130   3.116  0.0624 -0.1507 -0.1852
14793TIP3    H165794   6.508   4.093   3.032 -1.3531 -0.4535  0.4113
14793TIP3    H265795   6.629   4.107   3.122  0.0296 -0.6549 -1.3863
14794TIP3   OH265796   5.106   1.066   1.815 -0.2816 -0.7549  0.3604
14794TIP3    H165797   5.030   1.028   1.860  0.4272 -2.1459  0.3944
14794TIP3    H265798   5.157   0.991   1.786  1.7180  0.1564  1.4072
14795TIP3   OH265799   6.596   1.004   4.136  1.1015 -0.4047 -0.4145
14795TIP3    H165800   6.510   0.994   4.095  1.2060  1.7955 -1.2495
14795TIP3    H265801   6.586   0.965   4.222 -1.2384  1.2242  0.1020
14796TIP3   OH265802   0.622   6.040   2.660  0.4684 -0.0101 -0.6848
14796TIP3    H165803   0.672   5.979   2.715 -0.4111  1.1800  1.5018
14796TIP3    H265804   0.662   6.125   2.676  0.4649  0.3095 -2.2509
14797TIP3   OH265805   4.184   4.406   2.406  0.2033 -0.4945  0.4450
14797TIP3    H165806   4.194   4.491   2.364  2.2801 -0.4351  0.9906
14797TIP3    H265807   4.108   4.416   2.464 -0.0672  0.7238 -0.1157
14798TIP3   OH265808   3.143   0.789  12.481  0.1562 -0.0606  0.5292
14798TIP3    H165809   3.227   0.827  12.456 -0.6296  0.7205 -0.9433
14798TIP3    H265810   3.120   0.833  12.563 -0.4518  2.2084 -0.8440
14799TIP3   OH265811   5.779   6.678  12.791 -0.5243 -0.1927  0.1495
14799TIP3    H165812   5.715   6.620  12.749 -0.1877  0.2672 -1.0028
14799TIP3    H265813   5.860   6.662  12.743 -0.3978  1.1369 -0.0774
14800TIP3   OH265814   0.040   1.854   2.792 -0.4031 -0.0920 -0.5366
14800TIP3    H165815   0.064   1.790   2.724 -0.6280 -2.3178  1.4133
14800TIP3    H265816  -0.050   1.879   2.770 -0.4283 -0.6848 -1.1419
14801TIP3   OH265817   4.760   5.999   2.494  0.3116  0.3508 -0.1960
14801TIP3    H165818   4.813   5.932   2.451  0.2694 -0.1624  0.5426
14801TIP3    H265819   4.819   6.074   2.505  0.0830  0.8060 -1.9125
14802TIP3   OH265820   2.349   3.019  15.331  0.3828  0.0667  0.3760
14802TIP3    H165821   2.417   3.001  15.266  1.3093  1.9801  0.7556
14802TIP3    H265822   2.311   3.102  15.303 -0.4147  0.0205  1.3015
14803TIP3   OH265823   5.628   3.972  16.255 -0.6688 -0.0201 -0.8348
14803TIP3    H165824   5.658   3.882  16.240 -1.7791 -0.1047 -2.8583
14803TIP3    H265825   5.624   4.010  16.167 -0.2402  2.0091  0.0011
14804TIP3   OH265826   6.621   4.926  13.717  0.4306  0.6903 -0.0621
14804TIP3    H165827   6.567   4.862  13.670 -0.6130  1.4398  0.1122
14804TIP3    H265828   6.659   4.877  13.790 -0.5101  0.3118  0.1760
14805TIP3   OH265829   3.915   4.413  14.308 -0.8628 -0.2322  0.0845
14805TIP3    H165830   3.900   4.422  14.402 -2.4538 -1.0041 -0.0808
14805TIP3    H265831   3.828   4.406  14.270 -0.3094  2.1620 -1.7025
14806TIP3   OH265832   2.215   6.034  12.795  0.3258  0.0482 -0.4729
14806TIP3    H165833   2.296   5.988  12.773  0.7510  0.6098 -0.0799
14806TIP3    H265834   2.221   6.117  12.748 -0.4975 -0.3255 -1.2812
14807TIP3   OH265835   3.240   1.646   0.509 -0.3370  0.1938  0.2822
14807TIP3    H165836   3.265   1.639   0.417  1.2316 -0.2762  0.7156
14807TIP3    H265837   3.322   1.668   0.554 -1.0877  0.4315  1.5635
14808TIP3   OH265838   5.138   2.160   5.199  0.2486  0.6738  0.0500
14808TIP3    H165839   5.228   2.145   5.228  0.1830 -0.1428 -0.1429
14808TIP3    H265840   5.093   2.191   5.277  0.3507 -0.3720  0.5381
14809TIP3   OH265841   0.193   0.394  17.043  0.2667  0.3909  0.3274
14809TIP3    H165842   0.264   0.342  17.080 -0.0035 -0.6740 -0.6506
14809TIP3    H265843   0.164   0.346  16.966  0.0010  1.9682 -0.5957
14810TIP3   OH265844   2.729   0.146   2.237  0.4818 -0.9573 -0.7025
14810TIP3    H165845   2.794   0.115   2.173  0.6787 -1.3259 -0.3319
14810TIP3    H265846   2.781   0.189   2.304  0.4700 -2.3671  0.2390
14811TIP3   OH265847   0.931   5.310  14.784 -0.4868 -0.3770  0.0107
14811TIP3    H165848   0.846   5.296  14.826  0.0075  0.8397  1.4700
14811TIP3    H265849   0.914   5.298  14.691 -2.4332  0.6135  0.2082
14812TIP3   OH265850   3.647   2.590  16.534 -0.2497 -0.4608 -0.3981
14812TIP3    H165851   3.590   2.658  16.497 -0.8589 -0.1226  1.1252
14812TIP3    H265852   3.599   2.557  16.610  1.7849  0.1580  1.1984
14813TIP3   OH265853   3.373   3.149  12.713 -0.4350 -0.3156  0.3002
14813TIP3    H165854   3.287   3.115  12.692 -0.6043  0.1636  0.2052
14813TIP3    H265855   3.416   3.079  12.761 -1.8359  0.3967  2.6973
14814TIP3   OH265856   5.411   3.374  15.672  0.1565 -0.4901  0.0602
14814TIP3    H165857   5.456   3.301  15.716  0.2856 -0.2664  0.2993
14814TIP3    H265858   5.324   3.376  15.712 -0.0226 -0.8276 -0.3003
14815TIP3   OH265859   1.546   3.378  15.453 -0.2052 -0.3071  0.1120
14815TIP3    H165860   1.462   3.356  15.492 -0.6685 -0.3877 -0.9440
14815TIP3    H265861   1.596   3.297  15.455 -0.8471 -0.7359 -1.0425
14816TIP3   OH265862   5.605   2.643   4.192  0.1081 -0.3402  0.4177
14816TIP3    H165863   5.683   2.665   4.244  0.2064  0.6637 -0.1388
14816TIP3    H265864   5.630   2.565   4.143  0.6965 -0.1603  0.4202
14817TIP3   OH265865   6.425   1.408   1.240  0.1041 -0.2102 -0.6369
14817TIP3    H165866   6.415   1.499   1.214  0.6064  0.2073  0.5870
14817TIP3    H265867   6.508   1.381   1.200  1.3995  0.7375  1.3043
14818TIP3   OH265868   3.378   2.528   3.360  0.3174 -0.0253 -0.2965
14818TIP3    H165869   3.384   2.596   3.293 -1.2901 -1.5589 -2.0443
14818TIP3    H265870   3.417   2.451   3.320 -0.1739 -0.8249  0.7303
14819TIP3   OH265871   4.230   1.521   3.948 -0.0396  0.2215  0.8988
14819TIP3    H165872   4.300   1.572   3.906  0.4177  0.8239  2.3684
14819TIP3    H265873   4.215   1.448   3.888  2.0765 -0.0930  0.6974
14820TIP3   OH265874   4.784   4.766  10.972 -0.2083  0.0418  0.1542
14820TIP3    H165875   4.863   4.760  10.918  0.4209 -1.8195  1.2279
14820TIP3    H265876   4.810   4.821  11.046 -0.0326 -0.2096  0.2814
14821TIP3   OH265877   5.312   1.086   5.771  0.3218 -0.2960 -0.1159
14821TIP3    H165878   5.308   1.177   5.798  2.0404 -0.4422  0.7122
14821TIP3    H265879   5.381   1.084   5.704  0.6162 -1.0568  0.2008
14822TIP3   OH265880   4.965   4.156   1.877  0.0067 -0.0971 -0.3620
14822TIP3    H165881   4.902   4.110   1.932  0.8005 -0.7268  0.0264
14822TIP3    H265882   5.007   4.087   1.826  1.1238  0.1931  0.1426
14823TIP3   OH265883   5.121   6.722  11.815 -0.0434  0.0517 -0.1029
14823TIP3    H165884   5.039   6.754  11.777  0.2944  1.5392  0.3802
14823TIP3    H265885   5.152   6.794  11.871  3.1112  0.7488 -2.5716
14824TIP3   OH265886   1.676   0.921  12.483  0.1902  0.0196  0.4234
14824TIP3    H165887   1.738   0.869  12.534 -0.1504  0.2831  1.1052
14824TIP3    H265888   1.699   0.903  12.392  1.9192  0.8641  0.6709
14825TIP3   OH265889   3.890   0.588  12.361  0.8751  0.3931 -0.0579
14825TIP3    H165890   3.875   0.493  12.361 -0.6822  0.6220  0.6039
14825TIP3    H265891   3.832   0.621  12.293  1.8880  0.8176 -0.7268
14826TIP3   OH265892   2.499   0.946   2.938  0.6147  0.5075  0.4125
14826TIP3    H165893   2.543   1.031   2.929  0.7072  0.4657  0.4729
14826TIP3    H265894   2.562   0.883   2.902  0.8433  0.3773  1.0483
14827TIP3   OH265895   5.529   0.980  13.316 -0.1481 -0.7361 -0.4901
14827TIP3    H165896   5.597   1.023  13.264 -0.2581  0.5747  0.4215
14827TIP3    H265897   5.447   1.003  13.273 -0.4487  2.4006  1.5805
14828TIP3   OH265898   5.407   6.639  16.495  0.4858  0.0184 -0.2560
14828TIP3    H165899   5.435   6.652  16.404  0.2284 -2.9639 -0.8094
14828TIP3    H265900   5.481   6.594  16.537 -0.2745 -0.5917  0.4363
14829TIP3   OH265901   1.774   1.171   3.767  0.1741  0.1367 -0.4359
14829TIP3    H165902   1.794   1.159   3.674  1.1962  0.1676 -0.2219
14829TIP3    H265903   1.816   1.096   3.810 -1.7913 -0.8529 -0.1834
14830TIP3   OH265904   4.481   6.650   0.922 -0.2942  0.2030  0.3272
14830TIP3    H165905   4.470   6.675   0.830  0.3647 -1.4033 -0.2121
14830TIP3    H265906   4.434   6.717   0.971 -1.7392  0.3692 -1.2431
14831TIP3   OH265907   0.425   3.738  11.958  0.2022  0.2004  0.4061
14831TIP3    H165908   0.410   3.828  11.985 -2.5265 -0.4903  1.4177
14831TIP3    H265909   0.517   3.722  11.977  0.2560  2.1980  1.9669
14832TIP3   OH265910   2.984   3.921   2.910 -0.1074 -0.0080  0.2837
14832TIP3    H165911   2.894   3.932   2.941  0.5677  1.7669  1.6873
14832TIP3    H265912   3.034   3.900   2.988  0.9091  0.2188 -0.3040
14833TIP3   OH265913   2.482   1.088   2.066 -0.3360 -0.2018  0.1758
14833TIP3    H165914   2.403   1.138   2.086 -0.5578 -0.0406 -1.0335
14833TIP3    H265915   2.553   1.136   2.108 -0.8054 -0.0372  0.7907
14834TIP3   OH265916   2.594   5.406  16.459 -0.7952 -0.1239  0.0003
14834TIP3    H165917   2.581   5.387  16.551 -3.8609  0.6204 -0.2278
14834TIP3    H265918   2.540   5.484  16.442  0.4460  0.3177 -2.2085
14835TIP3   OH265919   3.765   2.794  15.523  0.2269 -0.1874 -0.2171
14835TIP3    H165920   3.700   2.738  15.481 -1.2681  0.2625  1.4393
14835TIP3    H265921   3.750   2.881  15.486  0.6593 -0.3065 -0.6808
14836TIP3   OH265922   5.196   0.116  14.767 -0.4234 -0.3785  0.2157
14836TIP3    H165923   5.259   0.052  14.800 -1.2303 -1.0539  0.4737
14836TIP3    H265924   5.190   0.097  14.674 -0.9303 -0.9183  0.3565
14837TIP3   OH265925   4.294   2.833  15.155 -0.0345 -0.1630  0.1378
14837TIP3    H165926   4.230   2.860  15.221  0.1517 -0.8340  0.5941
14837TIP3    H265927   4.371   2.806  15.204  1.3652  2.4744 -0.4677
14838TIP3   OH265928   2.099   5.432  10.832 -0.5225  0.1389 -0.3480
14838TIP3    H165929   2.063   5.362  10.779 -0.1373  0.8949 -1.6283
14838TIP3    H265930   2.141   5.491  10.769  3.9332 -1.2419  1.1175
14839TIP3   OH265931   2.235   2.637   0.386  0.1876 -0.0264  0.0382
14839TIP3    H165932   2.148   2.657   0.351  0.0943 -0.5343 -0.0210
14839TIP3    H265933   2.226   2.649   0.481  0.6366  2.0929 -0.1599
14840TIP3   OH265934   1.373   6.204  16.657  0.5314  0.2845 -0.2647
14840TIP3    H165935   1.320   6.132  16.691  1.2040 -0.4662 -0.7537
14840TIP3    H265936   1.318   6.281  16.664 -0.6665 -0.5031 -0.8904
14841TIP3   OH265937   6.006   3.097  11.639 -0.9066  0.1643 -0.2070
14841TIP3    H165938   6.070   3.110  11.709  1.2197  0.6531 -2.1935
14841TIP3    H265939   5.964   3.183  11.629 -0.6490  0.3096 -0.0563
14842TIP3   OH265940   1.181   3.846  17.091 -0.0214  0.0561 -0.6905
14842TIP3    H165941   1.260   3.814  17.049 -0.2048 -2.9196  1.0646
14842TIP3    H265942   1.194   3.828  17.184 -2.1495  0.8607 -0.1943
14843TIP3   OH265943   0.160   2.862  16.576  0.9268  0.5483 -0.1624
14843TIP3    H165944   0.090   2.877  16.513  1.3249  3.6033  0.0445
14843TIP3    H265945   0.116   2.857  16.660  0.9059  2.2517 -0.0552
14844TIP3   OH265946   3.873   3.556   1.258  0.0428 -0.7293  0.6530
14844TIP3    H165947   3.890   3.648   1.240 -1.5199 -0.9171 -1.9713
14844TIP3    H265948   3.929   3.508   1.197 -0.6227 -1.4777  0.6093
14845TIP3   OH265949   0.095   5.237   0.289 -0.2884  0.5040 -0.0844
14845TIP3    H165950   0.094   5.287   0.207  0.7547 -0.3952 -0.6833
14845TIP3    H265951   0.033   5.166   0.274  0.1681  0.1346 -0.2369
14846TIP3   OH265952   3.290   4.011   5.395  0.2366  0.1061  0.0476
14846TIP3    H165953   3.320   3.946   5.333 -2.1494 -0.9392 -0.0673
14846TIP3    H265954   3.360   4.017   5.460  0.8967 -1.8700 -0.4560
14847TIP3   OH265955   1.355   2.388  12.813  0.0526  0.1118  0.1546
14847TIP3    H165956   1.390   2.337  12.740  1.5281 -0.3943  1.1891
14847TIP3    H265957   1.266   2.411  12.787 -0.8330 -3.4217 -0.1069
14848TIP3   OH265958   1.068   2.010   2.794  0.2657 -0.6592 -0.3137
14848TIP3    H165959   1.090   1.918   2.781 -1.8507 -1.2403  0.0335
14848TIP3    H265960   0.997   2.027   2.731  1.7790  1.1990 -1.5592
14849TIP3   OH265961   2.761   5.993  15.740  0.7508 -0.2725  0.0199
14849TIP3    H165962   2.815   6.021  15.666 -0.3496 -0.0161 -0.6911
14849TIP3    H265963   2.814   5.926  15.784  1.5849 -0.1325 -0.7498
14850TIP3   OH265964   3.402   1.939  15.450  0.0232  0.0372 -0.2815
14850TIP3    H165965   3.385   1.995  15.526  0.4836  0.2041 -0.3018
14850TIP3    H265966   3.432   2.000  15.382  0.6179 -0.2458 -0.2741
14851TIP3   OH265967   2.566   4.805  11.398  0.1860 -0.2963 -0.3979
14851TIP3    H165968   2.476   4.775  11.413  0.7000 -1.4325  0.4812
14851TIP3    H265969   2.595   4.758  11.320 -0.4155  1.0705 -1.4760
14852TIP3   OH265970   2.396   1.613  12.164  0.2460 -0.2405 -0.1743
14852TIP3    H165971   2.492   1.617  12.157  0.2869  1.4520  1.0871
14852TIP3    H265972   2.365   1.689  12.114 -0.4160 -0.4677 -0.1126
14853TIP3   OH265973   3.431   6.374  16.989  0.1050  0.2891 -0.5626
14853TIP3    H165974   3.378   6.453  16.977 -0.0843 -0.0779 -2.2452
14853TIP3    H265975   3.389   6.328  17.062  0.2194  1.7184  0.4430
14854TIP3   OH265976   0.982   2.320   4.258 -0.4914  0.3243  0.3992
14854TIP3    H165977   0.936   2.372   4.192  1.1850  0.5696 -0.5800
14854TIP3    H265978   1.016   2.245   4.210 -0.4006 -0.1890  1.2532
14855TIP3   OH265979   0.676   5.584  12.702 -0.3308 -0.3361 -0.0770
14855TIP3    H165980   0.765   5.581  12.667  0.8657 -2.7087  2.9431
14855TIP3    H265981   0.626   5.526  12.644  0.0968  0.8733 -1.6912
14856TIP3   OH265982   2.811   5.267  14.061  0.4706 -0.0332 -0.2782
14856TIP3    H165983   2.725   5.227  14.077  0.8832 -0.0917  2.0126
14856TIP3    H265984   2.840   5.294  14.148  1.8597  1.8721 -1.3086
14857TIP3   OH265985   0.071   0.576  13.465 -0.6275 -0.4423  0.7682
14857TIP3    H165986   0.063   0.481  13.467 -0.8257 -0.4431  0.0867
14857TIP3    H265987   0.162   0.592  13.440 -0.3745 -0.4469  1.6667
14858TIP3   OH265988   2.528   5.729   5.738  0.3092  0.0299  0.4118
14858TIP3    H165989   2.540   5.807   5.684 -0.5235  0.8733  1.4132
14858TIP3    H265990   2.591   5.666   5.704 -0.2488  0.5146 -1.5924
14859TIP3   OH265991   2.705   6.339   4.586  0.2617 -0.7895 -0.0543
14859TIP3    H165992   2.722   6.429   4.615  1.5814 -1.4200  1.1257
14859TIP3    H265993   2.789   6.307   4.555 -0.5972 -0.9983 -2.2990
14860TIP3   OH265994   1.254   4.909  16.016 -0.0860  0.1157  0.0263
14860TIP3    H165995   1.178   4.949  16.058 -0.9555 -0.6880 -0.7725
14860TIP3    H265996   1.246   4.816  16.036  0.5734 -0.0047 -0.2479
14861TIP3   OH265997   4.113   2.809  11.637  0.2558 -0.2104  0.4164
14861TIP3    H165998   4.070   2.892  11.659 -1.1064 -0.3410 -1.6576
14861TIP3    H265999   4.201   2.836  11.610 -0.1337  0.5583 -0.1221
14862TIP3   OH266000   6.510   1.371   1.506 -0.0391 -0.1660 -0.2563
14862TIP3    H166001   6.480   1.457   1.535 -2.2867 -1.2299  0.6698
14862TIP3    H266002   6.459   1.353   1.427  0.5568 -0.5869 -0.5542
14863TIP3   OH266003   3.465   1.905   4.606  0.2370  0.4601 -0.4999
14863TIP3    H166004   3.369   1.909   4.610  0.1250 -0.3172 -1.9495
14863TIP3    H266005   3.489   1.827   4.655  0.3791  2.3610  2.5902
14864TIP3   OH266006   6.215   1.563  11.761 -0.0327  0.2880  0.3707
14864TIP3    H166007   6.153   1.610  11.705  0.5155 -0.1978 -0.6584
14864TIP3    H266008   6.225   1.618  11.839 -1.0994  0.7789  0.1587
14865TIP3   OH266009   5.311   0.662   0.907  0.6751  0.2791 -0.2959
14865TIP3    H166010   5.252   0.665   0.982  1.0691  0.6254  0.0005
14865TIP3    H266011   5.357   0.578   0.917 -0.2658 -0.3295 -0.9174
14866TIP3   OH266012   1.817   5.008  10.596  0.1437 -0.4344  0.1968
14866TIP3    H166013   1.747   5.006  10.661 -0.8216  1.4288 -0.7278
14866TIP3    H266014   1.776   4.973  10.517 -0.4735  2.7875 -0.9709
14867TIP3   OH266015   0.780   6.035  11.372  0.2975  0.1605 -0.3684
14867TIP3    H166016   0.789   6.120  11.415 -0.8433  0.9889 -1.7036
14867TIP3    H266017   0.870   6.007  11.356  0.7778 -0.7440  3.5671
14868TIP3   OH266018   3.594   4.512  11.826  0.1341 -0.0223  0.0062
14868TIP3    H166019   3.507   4.481  11.853  0.2679 -1.0933 -0.7631
14868TIP3    H266020   3.587   4.607  11.826 -0.8905 -0.0969  0.4655
14869TIP3   OH266021   3.880   2.107  16.283  0.7662 -0.6191  0.3390
14869TIP3    H166022   3.859   2.108  16.376  1.1393 -1.2064  0.4285
14869TIP3    H266023   3.973   2.127  16.279  0.1121  2.6475 -0.1090
14870TIP3   OH266024   6.138   1.327  12.356  0.8007 -0.0426 -0.5282
14870TIP3    H166025   6.206   1.383  12.319  0.1451  2.7634  2.3230
14870TIP3    H266026   6.178   1.287  12.433 -0.3466  0.6669  0.4609
14871TIP3   OH266027   0.711   0.503   6.702 -0.2581 -0.5558  0.2386
14871TIP3    H166028   0.694   0.422   6.654  1.1833  0.0320 -1.3100
14871TIP3    H266029   0.803   0.498   6.725 -0.5290 -0.0277  1.4861
14872TIP3   OH266030   6.242   1.135  16.719  0.5299 -0.1218 -0.6904
14872TIP3    H166031   6.308   1.068  16.740  1.5685  1.5080  1.3642
14872TIP3    H266032   6.293   1.208  16.683 -0.2726  0.7510 -0.0640
14873TIP3   OH266033   5.835   6.204  12.699  0.8137 -0.1137 -0.0272
14873TIP3    H166034   5.873   6.119  12.678  0.6476 -0.4984  1.1543
14873TIP3    H266035   5.805   6.239  12.615 -0.1524 -1.7316 -0.3856
14874TIP3   OH266036   5.550   4.707   1.392  0.5987  0.5005 -0.5121
14874TIP3    H166037   5.636   4.713   1.349  1.0593 -1.0520  0.1579
14874TIP3    H266038   5.533   4.796   1.423  1.9199  0.8552 -0.7584
14875TIP3   OH266039   5.725   3.995  13.501 -0.3748  0.0919 -0.0877
14875TIP3    H166040   5.730   3.978  13.407 -2.4440  0.4129 -0.2854
14875TIP3    H266041   5.723   3.908  13.541 -1.1373 -0.0598 -0.4490
14876TIP3   OH266042   1.407   2.523  12.475  0.0997 -0.0766 -0.1217
14876TIP3    H166043   1.400   2.428  12.481 -0.9463  0.0116  0.0186
14876TIP3    H266044   1.319   2.556  12.492 -0.0806  0.8049 -2.4896
14877TIP3   OH266045   3.606   3.332  11.024  0.2439  0.1361  0.4304
14877TIP3    H166046   3.595   3.237  11.026  2.6400 -0.1538  2.1841
14877TIP3    H266047   3.698   3.346  11.046 -0.3205  2.9139  1.2276
14878TIP3   OH266048   3.264   1.786  15.056 -0.3331  0.4259 -0.1462
14878TIP3    H166049   3.325   1.856  15.034  1.6664 -1.0715  0.4374
14878TIP3    H266050   3.285   1.715  14.995 -0.9363 -0.4192  0.6024
14879TIP3   OH266051   1.148   6.223  12.713  0.2534 -0.0631 -0.4202
14879TIP3    H166052   1.133   6.147  12.656 -2.4992  0.6756 -0.7266
14879TIP3    H266053   1.128   6.191  12.801 -1.7444  0.4813 -0.6438
14880TIP3   OH266054   4.555   0.583  15.344 -0.3528  0.3140 -0.0174
14880TIP3    H166055   4.610   0.661  15.334 -0.7015  0.6987  0.9565
14880TIP3    H266056   4.477   0.615  15.390 -0.3518 -0.6664  0.6857
14881TIP3   OH266057   4.035   3.211   4.749  0.5252  0.3900 -0.2002
14881TIP3    H166058   4.052   3.190   4.657 -0.1063  0.4159 -0.3242
14881TIP3    H266059   3.942   3.234   4.752  0.2615 -0.7466  0.6547
14882TIP3   OH266060   4.098   1.192   3.306 -0.3438 -0.0764  0.3905
14882TIP3    H166061   4.025   1.215   3.249  0.1960  0.3987 -0.1244
14882TIP3    H266062   4.136   1.114   3.266  0.3299  0.5346 -0.1888
14883TIP3   OH266063   5.490   3.600   2.033 -0.0906 -0.9006 -0.1455
14883TIP3    H166064   5.577   3.620   2.069 -0.7615  0.0146  1.0207
14883TIP3    H266065   5.492   3.638   1.944 -0.3421  1.9420  1.0017
14884TIP3   OH266066   6.457   1.162  15.406  0.2749 -0.1529  0.4940
14884TIP3    H166067   6.396   1.214  15.458 -0.6360 -0.6896 -0.0261
14884TIP3    H266068   6.458   1.076  15.448 -0.5803 -0.6352 -0.4417
14885TIP3   OH266069   4.868   2.616  11.060 -0.0458  0.2238  0.5308
14885TIP3    H166070   4.895   2.689  11.115 -0.4507  0.8694 -0.1270
14885TIP3    H266071   4.867   2.651  10.971 -0.9726 -0.3726  0.2961
14886TIP3   OH266072   5.535   6.339   3.825  0.8846 -0.0471  0.1084
14886TIP3    H166073   5.605   6.325   3.762 -0.1764 -0.3572 -1.0203
14886TIP3    H266074   5.523   6.254   3.867  0.3787 -0.3135 -0.5570
14887TIP3   OH266075   2.969   4.837   2.839  0.0512 -0.1711 -0.1643
14887TIP3    H166076   3.047   4.889   2.819  1.1832 -2.2334 -1.2978
14887TIP3    H266077   2.943   4.867   2.927  1.5109  1.2568 -0.1813
14888TIP3   OH266078   2.031   6.671  12.324  0.0786  0.1027  0.4873
14888TIP3    H166079   1.962   6.723  12.281  0.7196 -0.6575 -1.5271
14888TIP3    H266080   2.113   6.708  12.291  0.6068 -0.2672  1.3619
14889TIP3   OH266081   3.663   1.899  15.027 -0.1860 -0.1289  0.4673
14889TIP3    H166082   3.747   1.917  14.985 -0.9720 -0.3360 -1.2673
14889TIP3    H266083   3.667   1.945  15.110  1.3242  0.5574  0.0373
14890TIP3   OH266084   0.497   0.110  14.912 -0.3797  0.1426  0.2690
14890TIP3    H166085   0.507   0.188  14.967  2.2500  0.0007  0.0317
14890TIP3    H266086   0.579   0.062  14.922 -1.0482 -1.4159 -1.4254
14891TIP3   OH266087   0.808   0.828  14.556  0.6493 -0.0442 -0.1071
14891TIP3    H166088   0.901   0.809  14.546  0.6453 -1.1451  1.6139
14891TIP3    H266089   0.765   0.778  14.487  1.1785 -1.2679  0.4374
14892TIP3   OH266090   3.412   5.400   1.238 -0.2326  0.0277  0.0520
14892TIP3    H166091   3.468   5.460   1.288 -0.7191  1.2224 -0.8014
14892TIP3    H266092   3.467   5.372   1.164 -0.2150 -0.0748  0.1045
14893TIP3   OH266093   3.171   1.869   4.691  0.0805 -0.1961  0.3526
14893TIP3    H166094   3.111   1.943   4.705  2.2972  1.9906 -1.1672
14893TIP3    H266095   3.158   1.846   4.599  1.6001  0.3772 -0.0195
14894TIP3   OH266096   6.055   1.708   3.088 -0.1028  0.1524 -0.3199
14894TIP3    H166097   6.048   1.619   3.123  1.2919 -0.2396 -0.9848
14894TIP3    H266098   5.996   1.760   3.142 -1.0865 -1.2138 -0.0490
14895TIP3   OH266099   4.748   4.868  17.239 -0.2021  0.0008  0.4169
14895TIP3    H166100   4.783   4.918  17.313  1.4038 -1.3554  0.6039
14895TIP3    H266101   4.715   4.935  17.179  0.0962  1.1984  1.5504
14896TIP3   OH266102   1.750   2.522  14.525  0.4962 -0.7143 -0.4158
14896TIP3    H166103   1.782   2.597  14.475 -1.9116  0.3470 -0.4830
14896TIP3    H266104   1.747   2.450  14.462 -1.3533  0.2991 -1.5315
14897TIP3   OH266105   5.710   2.225   0.573  0.4692 -0.1961  0.0430
14897TIP3    H166106   5.629   2.174   0.567 -0.1400  0.8091 -0.6472
14897TIP3    H266107   5.756   2.190   0.649 -1.0206 -0.2337  0.9432
14898TIP3   OH266108   1.823   2.220   5.560  0.0278 -0.0775  0.6928
14898TIP3    H166109   1.865   2.238   5.476  0.9790 -3.9626  0.2729
14898TIP3    H266110   1.757   2.290   5.569  1.7710  2.0137 -1.9236
14899TIP3   OH266111   1.603   5.848  12.388  0.3709 -0.1600 -0.4240
14899TIP3    H166112   1.697   5.839  12.371  0.3898  0.3987 -0.6250
14899TIP3    H266113   1.568   5.759  12.379  0.6550 -0.1448 -1.7171
14900TIP3   OH266114   1.594   0.832  17.216 -0.2024  0.3290 -0.0994
14900TIP3    H166115   1.643   0.909  17.244  1.1152  0.0676 -1.5615
14900TIP3    H266116   1.508   0.865  17.192  0.6876  1.5543 -1.7292
14901TIP3   OH266117   2.980   5.304  15.637  0.8066 -0.0508  0.1397
14901TIP3    H166118   2.985   5.319  15.542  0.6541 -1.1460 -0.0467
14901TIP3    H266119   2.967   5.392  15.674  0.0841  0.3006 -0.9082
14902TIP3   OH266120   6.316   6.468   5.727 -0.1070  0.3986 -0.1075
14902TIP3    H166121   6.222   6.459   5.744 -0.5414  1.0268 -2.0518
14902TIP3    H266122   6.338   6.554   5.763 -0.4633  0.6052 -0.3729
14903TIP3   OH266123   3.302   4.024   2.504 -0.0035 -0.3552 -0.0738
14903TIP3    H166124   3.272   4.064   2.423 -1.2736  2.2571  1.6155
14903TIP3    H266125   3.223   4.018   2.559  1.1944 -0.1874  1.7239
14904TIP3   OH266126   4.070   3.461  16.716 -0.4410  0.3318 -0.1090
14904TIP3    H166127   4.114   3.420  16.792  0.1967  2.9709  0.9983
14904TIP3    H266128   3.981   3.428  16.720 -0.1150 -0.4589  1.1202
14905TIP3   OH266129   3.710   5.086   3.639  0.7195 -0.2258 -0.0901
14905TIP3    H166130   3.693   5.021   3.707  0.8378 -0.6773 -0.4950
14905TIP3    H266131   3.743   5.162   3.687  0.3991 -0.3945  0.4013
14906TIP3   OH266132   2.734   6.395  14.302 -0.0689  0.0781  0.0758
14906TIP3    H166133   2.665   6.459  14.317 -0.2325 -0.1479  0.2938
14906TIP3    H266134   2.760   6.408  14.210 -0.6065 -0.0374 -0.0902
14907TIP3   OH266135   1.805   3.025   2.974 -0.6808 -0.6033  0.4260
14907TIP3    H166136   1.710   3.015   2.980 -0.6862 -1.1476 -0.5029
14907TIP3    H266137   1.827   3.089   3.042 -1.7254 -0.3703  0.5482
14908TIP3   OH266138   4.860   0.468  16.692 -0.3362  0.0632 -0.1025
14908TIP3    H166139   4.897   0.511  16.615 -1.4271  0.5564 -0.3747
14908TIP3    H266140   4.875   0.530  16.764  1.1099 -0.6086  0.1814
14909TIP3   OH266141   3.784   0.217  12.630  0.2947  0.0936  0.1727
14909TIP3    H166142   3.802   0.151  12.563  1.8736  0.0832  0.5830
14909TIP3    H266143   3.764   0.168  12.709  1.6964  0.0801  0.5379
14910TIP3   OH266144   5.463   6.236   4.524 -0.5348  0.3521  0.3292
14910TIP3    H166145   5.526   6.214   4.454 -0.0533 -0.1067  0.9036
14910TIP3    H266146   5.436   6.326   4.504 -2.4727 -0.6985 -2.0133
14911TIP3   OH266147   1.729   0.836   3.190 -0.6903 -0.4731  0.9334
14911TIP3    H166148   1.669   0.772   3.151 -0.1147 -0.1083 -0.5492
14911TIP3    H266149   1.804   0.838   3.131 -0.1827  0.7164  1.6083
14912TIP3   OH266150   0.868   0.417  12.097 -0.0553  0.7192 -0.6960
14912TIP3    H166151   0.906   0.418  12.009  1.0378  1.3052 -0.2258
14912TIP3    H266152   0.942   0.433  12.156 -1.0754  2.1761  0.2285
14913TIP3   OH266153   5.880   5.626  11.628  0.7682 -0.0335 -0.9614
14913TIP3    H166154   5.814   5.563  11.599  1.5167 -0.7314 -1.1516
14913TIP3    H266155   5.889   5.610  11.722 -0.0085  0.7002 -0.7510
14914TIP3   OH266156   4.638   3.896  14.122  0.1729  0.6930  0.2714
14914TIP3    H166157   4.635   3.928  14.032 -1.1194 -0.9270 -0.2914
14914TIP3    H266158   4.678   3.809  14.114  1.3278  1.0958  1.4574
14915TIP3   OH266159   0.454   1.579  15.491 -0.7515  0.6403  0.1051
14915TIP3    H166160   0.414   1.649  15.543 -1.3367  0.9342 -0.7223
14915TIP3    H266161   0.541   1.612  15.470 -0.7454  0.7906  0.3641
14916TIP3   OH266162   4.884   6.746   0.679 -0.1700 -0.3719  0.1072
14916TIP3    H166163   4.938   6.752   0.601  4.0672  0.7957  2.9398
14916TIP3    H266164   4.895   6.656   0.709  1.4270  0.2351  1.4357
14917TIP3   OH266165   6.288   2.980  16.502 -0.0632  0.4736  0.0784
14917TIP3    H166166   6.304   2.888  16.482 -0.5720 -0.0476  1.9433
14917TIP3    H266167   6.366   3.009  16.549 -0.8464  0.3633  1.4624
14918TIP3   OH266168   4.278   4.112  13.520  0.5717 -0.3349  0.2027
14918TIP3    H166169   4.271   4.199  13.482  1.5163 -0.9427 -1.4241
14918TIP3    H266170   4.225   4.056  13.462 -0.3230 -0.7924  1.4318
14919TIP3   OH266171   4.481   0.175  16.151 -0.4386 -0.0185 -0.6101
14919TIP3    H166172   4.510   0.233  16.081  1.5132  1.3498  1.2797
14919TIP3    H266173   4.477   0.230  16.228 -2.7034 -1.4770  0.3726
14920TIP3   OH266174   5.119   0.600   1.461 -0.0500  0.7004 -0.3934
14920TIP3    H166175   5.204   0.563   1.436  0.2949  0.7887  0.6044
14920TIP3    H266176   5.081   0.534   1.519 -1.1566  0.1668 -1.7048
14921TIP3   OH266177   0.682   4.450  15.106 -0.5083  0.1837  0.9164
14921TIP3    H166178   0.636   4.375  15.143 -1.8593 -0.8412 -2.6429
14921TIP3    H266179   0.753   4.411  15.054  0.0113  1.4560  0.6518
14922TIP3   OH266180   3.076   3.766   5.163  0.0272 -0.0139  0.4009
14922TIP3    H166181   2.997   3.762   5.110 -0.6327  0.6813  1.3129
14922TIP3    H266182   3.119   3.847   5.135 -0.6290  0.6696  1.3359
14923TIP3   OH266183   6.705   3.700   1.094  0.7400 -0.8687 -0.4988
14923TIP3    H166184   6.666   3.780   1.127 -1.6615 -2.2830  0.2436
14923TIP3    H266185   6.692   3.703   0.999 -0.8362 -1.1222 -0.2995
14924TIP3   OH266186   0.383   3.943  12.127  0.0036  0.0833 -0.1916
14924TIP3    H166187   0.298   3.959  12.085 -0.8187 -1.6048  0.7585
14924TIP3    H266188   0.360   3.917  12.216  1.5892  0.7866  0.4236
14925TIP3   OH266189   5.218   3.961   0.030  0.2937  0.1529  0.4559
14925TIP3    H166190   5.264   3.990  -0.048 -3.9770  0.2184 -2.2159
14925TIP3    H266191   5.255   4.013   0.101  3.1353  1.2665 -1.7482
14926TIP3   OH266192   6.597   3.716  14.101  0.3712 -0.0379 -0.3255
14926TIP3    H166193   6.692   3.730  14.108  0.6833 -0.7941 -2.4353
14926TIP3    H266194   6.561   3.757  14.179  2.3281  1.4855 -0.1627
14927TIP3   OH266195   2.345   6.086   3.661  0.2397  0.2021  0.3065
14927TIP3    H166196   2.350   6.023   3.733  1.4648 -0.9342 -0.7636
14927TIP3    H266197   2.435   6.110   3.643 -0.0926  0.8244 -0.5700
14928TIP3   OH266198   5.933   4.665  10.729  0.5076 -0.6198 -0.1921
14928TIP3    H166199   5.917   4.597  10.663  0.6782  0.6745 -1.5852
14928TIP3    H266200   6.027   4.656  10.749  0.5426 -0.7549 -0.4096
14929TIP3   OH266201   4.914   5.387  10.310  0.1840  0.7947  0.4383
14929TIP3    H166202   4.974   5.320  10.277  0.7867  1.7700 -0.5066
14929TIP3    H266203   4.830   5.364  10.272  0.7159  1.4538 -1.2037
14930TIP3   OH266204   4.606   2.394   5.654  0.4492  0.1585  0.0583
14930TIP3    H166205   4.579   2.481   5.623 -1.2612 -0.6948 -0.9154
14930TIP3    H266206   4.649   2.355   5.578  0.5815 -0.1238  0.2796
14931TIP3   OH266207   3.265   5.210  11.645  0.0190  0.2472 -0.0831
14931TIP3    H166208   3.242   5.303  11.637  0.3148  0.3149 -0.1400
14931TIP3    H266209   3.224   5.182  11.727  1.3010  0.8365  0.7665
14932TIP3   OH266210   6.642   1.361  14.782 -0.0115  0.0309  0.2363
14932TIP3    H166211   6.617   1.391  14.695  0.8443  2.1533  0.7075
14932TIP3    H266212   6.561   1.323  14.818 -0.6229  0.0402 -1.0780
14933TIP3   OH266213   5.853   2.936  11.822 -0.0497  0.3823 -0.1294
14933TIP3    H166214   5.872   2.995  11.894 -0.4584 -0.4416  0.6722
14933TIP3    H266215   5.859   2.990  11.743  3.0434  0.7163  0.2896
14934TIP3   OH266216   1.888   3.316  14.450  0.2844 -0.0858  0.4454
14934TIP3    H166217   1.915   3.297  14.360 -1.1515 -1.2668  0.2382
14934TIP3    H266218   1.813   3.375  14.441 -0.6989 -1.2611  0.8064
14935TIP3   OH266219   1.651   1.945   4.009 -0.4241 -0.1603 -0.4935
14935TIP3    H166220   1.681   1.954   4.099  0.1370  1.1639 -0.7982
14935TIP3    H266221   1.608   2.028   3.989 -0.0588 -0.2326 -1.6276
14936TIP3   OH266222   2.498   5.314   2.933 -0.4062  0.1849  0.1462
14936TIP3    H166223   2.480   5.253   3.004 -0.1452  0.7695  0.7214
14936TIP3    H266224   2.585   5.349   2.952 -0.8471  1.2780  0.2276
14937TIP3   OH266225   6.092   5.375   4.414  0.3050  0.1208  0.4490
14937TIP3    H166226   6.174   5.416   4.443  0.5638 -0.6991  0.8785
14937TIP3    H266227   6.066   5.319   4.487 -0.6001  0.3177  0.2815
14938TIP3   OH266228   6.145   5.586   1.757 -0.2435  0.3388 -0.7753
14938TIP3    H166229   6.098   5.544   1.685 -0.5427  1.0526 -0.9963
14938TIP3    H266230   6.199   5.652   1.715  0.2391  0.1646 -0.4255
14939TIP3   OH266231   2.115   0.443   4.755  0.0742 -0.1760 -0.8994
14939TIP3    H166232   2.117   0.486   4.841 -1.8349 -0.7176 -0.5770
14939TIP3    H266233   2.194   0.389   4.754 -0.5326 -1.1507  1.0501
14940TIP3   OH266234   5.273   4.019   3.832  0.3640 -0.0035 -0.6472
14940TIP3    H166235   5.293   4.099   3.880  0.2513 -0.4913  0.2106
14940TIP3    H266236   5.181   4.002   3.852  0.6015 -0.7746 -0.2041
14941TIP3   OH266237   0.681   0.696   1.009 -0.0269 -0.1742 -0.1185
14941TIP3    H166238   0.634   0.666   0.932  0.7329  0.4630 -0.8330
14941TIP3    H266239   0.715   0.782   0.986  0.7729 -0.2583  0.6838
14942TIP3   OH266240   3.574   6.403   1.879 -0.0442  0.4305 -0.1453
14942TIP3    H166241   3.541   6.472   1.937  0.5099  1.3746 -0.9286
14942TIP3    H266242   3.598   6.449   1.799  0.0607 -0.7267 -0.7886
14943TIP3   OH266243   6.623   0.639  12.392 -0.5127  0.3560  0.6100
14943TIP3    H166244   6.700   0.583  12.406  0.2016  1.4126  0.9165
14943TIP3    H266245   6.557   0.605  12.453 -0.1035 -0.1899  0.7554
14944TIP3   OH266246   5.826   4.713   4.732  0.2199 -0.2397 -0.0176
14944TIP3    H166247   5.820   4.784   4.668 -1.0956  1.0266  1.4767
14944TIP3    H266248   5.840   4.634   4.679 -1.2103  0.7225 -1.8827
14945TIP3   OH266249   5.548   5.897   0.436  0.1867  0.2131  0.0517
14945TIP3    H166250   5.593   5.867   0.515 -0.7786 -1.1196  0.1084
14945TIP3    H266251   5.500   5.820   0.405  0.7694  0.6356 -1.9928
14946TIP3   OH266252   0.500   6.379   2.064  0.5750  0.4765 -0.7590
14946TIP3    H166253   0.424   6.325   2.043  0.1152  1.7623 -2.4225
14946TIP3    H266254   0.528   6.348   2.150 -1.2143 -0.6832 -0.5802
14947TIP3   OH266255   1.904   4.898  14.687  0.8007 -0.4622 -0.3205
14947TIP3    H166256   1.867   4.955  14.619 -0.1134  1.5995  1.8577
14947TIP3    H266257   1.999   4.900  14.671  0.6781  0.7407 -0.9538
14948TIP3   OH266258   3.409   6.572   3.337  0.2429  0.4150 -0.1982
14948TIP3    H166259   3.446   6.659   3.352  0.1268  0.1257  1.7802
14948TIP3    H266260   3.464   6.534   3.269  1.1874  1.4716 -0.0364
14949TIP3   OH266261   0.692   0.363  16.506 -0.8198  0.2402 -0.0483
14949TIP3    H166262   0.773   0.407  16.530 -0.6238 -0.1765  0.0497
14949TIP3    H266263   0.646   0.351  16.590 -0.3691 -0.7469  0.0647
14950TIP3   OH266264   6.003   2.207   5.901  0.2722 -0.0796  0.0213
14950TIP3    H166265   6.096   2.217   5.924 -0.3817 -2.1640  4.0555
14950TIP3    H266266   5.972   2.296   5.888  2.2372  0.8173  1.2079
14951TIP3   OH266267   2.247   6.707   5.056 -0.3553  0.1007 -0.2307
14951TIP3    H166268   2.335   6.740   5.073 -0.7152  0.9500  0.0531
14951TIP3    H266269   2.201   6.782   5.017 -1.1353 -0.1260  0.2370
14952TIP3   OH266270   1.457   2.766   6.344  0.0879  0.0948  0.3151
14952TIP3    H166271   1.520   2.834   6.369  0.6223 -0.6919  1.1532
14952TIP3    H266272   1.469   2.697   6.409 -0.4625 -0.7994 -0.5120
14953TIP3   OH266273   5.468   5.958  16.650  0.2731  0.3760 -0.2725
14953TIP3    H166274   5.505   5.956  16.562 -0.7857  0.7451 -0.7308
14953TIP3    H266275   5.442   5.867  16.667 -0.4506  0.4894 -0.7495
14954TIP3   OH266276   5.423   4.276   1.433  0.0343  0.0925  0.2804
14954TIP3    H166277   5.352   4.328   1.470  0.1749  1.5204 -1.4254
14954TIP3    H266278   5.404   4.270   1.340  0.5799 -2.0508  0.2821
14955TIP3   OH266279   5.193   0.390  12.302 -0.1607 -0.3421 -0.1943
14955TIP3    H166280   5.259   0.395  12.232  0.0751  2.0872  0.1572
14955TIP3    H266281   5.110   0.382  12.256  0.2119 -1.6512 -0.6769
14956TIP3   OH266282   6.033   4.179  13.784  0.0753 -0.2394  0.1387
14956TIP3    H166283   6.014   4.176  13.690  0.9875 -1.0130 -0.0259
14956TIP3    H266284   5.947   4.187  13.826 -0.3542 -0.1699 -0.7488
14957TIP3   OH266285   3.786   2.901  10.944  1.0136  0.2328  0.5392
14957TIP3    H166286   3.879   2.925  10.939  1.2543 -0.6977  0.4261
14957TIP3    H266287   3.761   2.885  10.853  0.9974 -0.4496  0.6625
14958TIP3   OH266288   5.312   5.668  13.857 -0.4020  0.7821  0.2304
14958TIP3    H166289   5.231   5.617  13.861 -0.1378  0.2933 -0.4172
14958TIP3    H266290   5.284   5.757  13.835 -0.8833  0.9765  1.6024
14959TIP3   OH266291   1.829   6.452   0.886  0.0684 -0.0792 -0.6224
14959TIP3    H166292   1.895   6.447   0.955 -0.8293  0.5677  0.3077
14959TIP3    H266293   1.808   6.361   0.865 -0.9331 -0.3114  1.2402
14960TIP3   OH266294   6.143   5.886   2.301 -0.6163  0.1096 -0.4394
14960TIP3    H166295   6.136   5.796   2.333 -0.8514  0.1455 -0.3883
14960TIP3    H266296   6.212   5.925   2.353 -0.9006  0.1256 -0.0757
14961TIP3   OH266297   4.229   5.006  16.184 -0.6085  0.3415 -0.8017
14961TIP3    H166298   4.210   5.100  16.184 -0.6625  0.3300 -1.2438
14961TIP3    H266299   4.236   4.982  16.091 -0.9035 -0.1525 -0.7035
14962TIP3   OH266300   3.415   5.024   1.086  0.4270  0.1017 -0.0347
14962TIP3    H166301   3.438   4.955   1.148 -0.5723 -2.9719 -2.9147
14962TIP3    H266302   3.349   5.076   1.131  1.8383 -0.2814  2.5344
14963TIP3   OH266303   4.234   3.176   5.982  0.0135 -0.3862  0.4071
14963TIP3    H166304   4.278   3.190   6.066 -0.6731 -0.6452  0.8152
14963TIP3    H266305   4.300   3.133   5.927  0.4311 -0.3130  0.8465
14964TIP3   OH266306   4.414   3.667   4.944 -0.2477  0.0950 -0.4508
14964TIP3    H166307   4.375   3.646   5.029 -0.3455 -0.7290 -0.6930
14964TIP3    H266308   4.344   3.712   4.896 -1.5488 -2.9508 -1.5364
14965TIP3   OH266309   1.335   5.395   2.729  0.1688 -0.1998 -0.0612
14965TIP3    H166310   1.376   5.481   2.730 -2.4829  1.3075 -4.5642
14965TIP3    H266311   1.255   5.407   2.780  0.0085 -0.1091 -0.3334
14966TIP3   OH266312   2.625   1.242  12.289  0.2587 -0.0113  0.2335
14966TIP3    H166313   2.570   1.170  12.257 -0.7172  1.1853 -0.8725
14966TIP3    H266314   2.676   1.269  12.212  3.7884 -2.2508  1.6545
14967TIP3   OH266315   4.427   2.892   2.886  0.5184  0.3694  0.2427
14967TIP3    H166316   4.492   2.934   2.829 -0.2861 -0.3901 -1.2636
14967TIP3    H266317   4.467   2.809   2.910  0.2901  0.1057 -0.3005
14968TIP3   OH266318   5.381   6.328  13.853 -0.6521  0.0056 -0.1080
14968TIP3    H166319   5.340   6.306  13.936  1.2578  0.6243  1.0097
14968TIP3    H266320   5.309   6.327  13.790 -2.4843  1.6317  1.8989
14969TIP3   OH266321   1.050   1.950  15.708 -0.3057 -0.5387 -0.0368
14969TIP3    H166322   1.023   1.996  15.788  0.1071  2.3372 -1.5135
14969TIP3    H266323   1.135   1.988  15.686 -0.3644 -1.3771 -1.8039
14970TIP3   OH266324   0.354   3.774   5.654 -0.0532 -0.0084 -0.2095
14970TIP3    H166325   0.398   3.706   5.705  2.2083 -0.4025 -2.6028
14970TIP3    H266326   0.264   3.743   5.646  0.4936 -1.8030  0.3164
14971TIP3   OH266327   5.616   5.140  11.124 -0.7179  0.1700 -0.1691
14971TIP3    H166328   5.666   5.072  11.169 -1.9747 -2.1056 -2.1043
14971TIP3    H266329   5.677   5.176  11.061  0.6457  2.4659  2.3539
14972TIP3   OH266330   4.815   3.162   2.771  0.2827  0.1326 -0.3188
14972TIP3    H166331   4.806   3.238   2.713  0.2304 -1.0800 -1.9285
14972TIP3    H266332   4.909   3.157   2.789  0.3611  0.2323 -0.6894
14973TIP3   OH266333   0.840   0.301  15.302  0.0146  0.6405  0.1779
14973TIP3    H166334   0.844   0.329  15.211 -0.9204 -0.1405 -0.1157
14973TIP3    H266335   0.750   0.322  15.330 -0.2380 -0.6746  0.3962
14974TIP3   OH266336   0.901   6.645   0.222 -0.2213  0.1912 -0.4742
14974TIP3    H166337   0.869   6.568   0.175 -2.2981  0.8884 -0.2937
14974TIP3    H266338   0.929   6.611   0.307  0.4631 -0.6017 -1.0087
14975TIP3   OH266339   5.531   4.521  13.804 -0.3472  0.1839 -0.0077
14975TIP3    H166340   5.496   4.589  13.861 -0.4635  0.2125 -0.1149
14975TIP3    H266341   5.626   4.535  13.806 -0.3752  0.3797 -0.0690
14976TIP3   OH266342   1.714   4.927   3.373  0.2701  0.3643  0.3724
14976TIP3    H166343   1.741   4.866   3.441 -0.5761 -0.0314  0.3568
14976TIP3    H266344   1.702   4.873   3.294 -1.5720  0.3464  0.6348
14977TIP3   OH266345   2.436   6.672   1.571  0.1329 -0.3710 -0.1327
14977TIP3    H166346   2.506   6.711   1.622 -3.7134  1.8870  3.8001
14977TIP3    H266347   2.397   6.607   1.630 -2.1298 -0.3241 -1.5120
14978TIP3   OH266348   2.218   4.428  15.196  0.4174  0.7236  0.1010
14978TIP3    H166349   2.151   4.493  15.217 -0.3776 -0.3715  1.0434
14978TIP3    H266350   2.168   4.354  15.161  1.0638 -0.3825  1.4874
14979TIP3   OH266351   5.446   5.069  12.688  0.2471  0.3195 -0.7034
14979TIP3    H166352   5.456   5.164  12.700 -3.7989  1.1440 -3.0650
14979TIP3    H266353   5.387   5.042  12.759 -0.2617 -0.0414 -1.2607
14980TIP3   OH266354   5.112   4.846   0.766  0.1888  0.0124 -0.7318
14980TIP3    H166355   5.160   4.787   0.825  2.4036  2.0149 -0.4280
14980TIP3    H266356   5.181   4.901   0.728 -1.5999  0.9915 -2.6055
14981TIP3   OH266357   4.067   0.174  12.318 -0.0364 -0.3551  0.2159
14981TIP3    H166358   4.063   0.250  12.260  0.8106  0.5168  1.2756
14981TIP3    H266359   4.053   0.210  12.405  2.9174 -1.0240  1.0176
14982TIP3   OH266360   0.808   0.659  17.151 -0.0981  0.2455  0.2651
14982TIP3    H166361   0.860   0.579  17.159 -1.5578 -0.7814 -0.3473
14982TIP3    H266362   0.721   0.629  17.123 -0.6228  2.0530 -0.1129
14983TIP3   OH266363   5.782   2.362   0.925 -0.1609  0.4334 -0.0550
14983TIP3    H166364   5.824   2.430   0.977 -0.4286  1.1767 -0.7891
14983TIP3    H266365   5.843   2.344   0.854  0.6791 -1.3402  1.0933
14984TIP3   OH266366   6.537   2.768   0.415  0.3389 -0.1552  0.4598
14984TIP3    H166367   6.599   2.831   0.380  0.5231 -0.4602  0.2355
14984TIP3    H266368   6.582   2.683   0.409 -0.0411 -0.3561  0.4330
14985TIP3   OH266369   2.940   3.353   0.120 -0.5956  0.1890 -0.6857
14985TIP3    H166370   2.912   3.419   0.184 -0.9636  0.2479 -0.9056
14985TIP3    H266371   2.869   3.350   0.056  0.6100  1.4636 -2.1143
14986TIP3   OH266372   1.917   2.019   2.731  0.1199  0.3030  0.1330
14986TIP3    H166373   1.891   2.079   2.660  0.0975 -0.1210 -0.2215
14986TIP3    H266374   1.925   1.934   2.688  0.7641  0.1715  0.5074
14987TIP3   OH266375   4.781   0.093   4.319  0.2545 -0.0616 -0.6402
14987TIP3    H166376   4.815   0.019   4.369  0.7856  0.5514 -0.0960
14987TIP3    H266377   4.708   0.126   4.371 -0.1084 -0.3234 -0.9803
14988TIP3   OH266378   2.221   0.017  17.076  0.1953 -0.0848  0.2532
14988TIP3    H166379   2.311   0.044  17.093  0.0068  0.1901  0.8338
14988TIP3    H266380   2.170   0.098  17.083 -0.2738 -0.4519  1.2661
14989TIP3   OH266381   3.904   1.800   0.852 -0.0855 -1.0370  0.2644
14989TIP3    H166382   3.903   1.779   0.945 -0.8851  1.2183  0.8037
14989TIP3    H266383   3.994   1.827   0.834 -0.3723  0.3292  0.8327
14990TIP3   OH266384   1.658   6.288   3.000  0.0463  0.3917  1.1094
14990TIP3    H166385   1.623   6.222   2.939  1.6549  0.7757 -0.2556
14990TIP3    H266386   1.582   6.343   3.021 -0.6278  0.0161 -0.2460
14991TIP3   OH266387   1.133   2.926   3.036  0.0119 -0.2523  0.9023
14991TIP3    H166388   1.202   2.930   3.102  2.7109 -2.0648 -1.6861
14991TIP3    H266389   1.145   3.006   2.983  1.2251 -1.3743 -0.5531
14992TIP3   OH266390   6.349   3.150   4.823  0.4627  0.1643 -0.6761
14992TIP3    H166391   6.277   3.199   4.863  1.8219  0.9086  0.9144
14992TIP3    H266392   6.315   3.061   4.815 -0.8925  0.6629 -0.6132
14993TIP3   OH266393   3.365   5.606  15.925  0.1546 -0.7248  0.5419
14993TIP3    H166394   3.325   5.647  16.001  0.1067 -1.0068  0.6692
14993TIP3    H266395   3.428   5.671  15.893 -0.4615 -0.2488  0.2865
14994TIP3   OH266396   0.950   4.728   2.635 -0.2748 -0.7213 -0.1053
14994TIP3    H166397   0.890   4.668   2.590  0.1331 -1.2084 -0.0006
14994TIP3    H266398   0.893   4.793   2.676 -0.6750 -0.4369 -1.0781
14995TIP3   OH266399   4.472   4.811  14.207  0.4211  0.6278 -0.8015
14995TIP3    H166400   4.479   4.749  14.280 -1.3491  2.1811  0.7241
14995TIP3    H266401   4.562   4.821  14.176  1.1534 -0.3813  0.9008
14996TIP3   OH266402   5.112   0.903  16.890  0.0860  0.6936 -0.2083
14996TIP3    H166403   5.184   0.844  16.913  0.5843  1.8372  1.2207
14996TIP3    H266404   5.067   0.858  16.818  1.3523 -0.7142 -0.1567
14997TIP3   OH266405   5.268   0.039   5.139  0.4360 -0.6433  0.1526
14997TIP3    H166406   5.360   0.057   5.119  0.5988 -2.2096 -0.5264
14997TIP3    H266407   5.264  -0.055   5.154 -1.3118 -0.8133 -1.1803
14998TIP3   OH266408   4.095   6.507   2.825  0.6182  0.2882 -0.4508
14998TIP3    H166409   4.045   6.587   2.844 -0.6791 -0.7376  0.5280
14998TIP3    H266410   4.101   6.462   2.909 -0.0450 -1.4149 -1.2896
14999TIP3   OH266411   4.158   4.569  11.281  0.0897 -0.6076 -0.3271
14999TIP3    H166412   4.190   4.501  11.221  0.7097 -1.1015  0.5605
14999TIP3    H266413   4.216   4.563  11.357 -2.7789 -2.3039  1.8379
15000TIP3   OH266414   6.713   1.134  14.378  0.6021  0.2310  0.2306
15000TIP3    H166415   6.796   1.165  14.341  0.1881  1.5747  0.3914
15000TIP3    H266416   6.646   1.169  14.319  0.0896  0.1560  0.7586
15001TIP3   OH266417   4.183   3.457  16.321 -0.1300  0.4438 -0.2042
15001TIP3    H166418   4.106   3.507  16.348 -0.6916 -0.5700  0.1025
15001TIP3    H266419   4.218   3.421  16.403  0.5299  0.6942 -0.3691
15002TIP3   OH266420   5.335   0.717  15.487 -0.2268 -0.0896  0.1473
15002TIP3    H166421   5.294   0.672  15.413  0.9193 -1.2216  0.1769
15002TIP3    H266422   5.422   0.677  15.493  1.7060  3.6088 -1.2212
15003TIP3   OH266423   3.423   2.599   1.336  0.0644 -0.1605 -0.1371
15003TIP3    H166424   3.346   2.582   1.391 -0.6847 -1.4912 -1.5334
15003TIP3    H266425   3.459   2.681   1.369 -2.9264  1.3803 -0.5229
15004TIP3   OH266426   1.547   2.477   3.134  0.1445 -0.4721 -0.1928
15004TIP3    H166427   1.458   2.507   3.150 -0.0274 -2.0797  2.1325
15004TIP3    H266428   1.559   2.485   3.040 -2.0923  0.7374 -0.4051
15005TIP3   OH266429   0.980   3.644  13.687  0.0299  0.6700  0.1617
15005TIP3    H166430   0.949   3.558  13.660 -1.0659  0.8232  0.9110
15005TIP3    H266431   1.076   3.637  13.686 -0.0564 -1.1260  2.0740
15006TIP3   OH266432   1.776   0.286   0.685 -0.5230 -0.0786 -0.4284
15006TIP3    H166433   1.735   0.206   0.653 -1.4537 -0.4534  1.6460
15006TIP3    H266434   1.826   0.259   0.762  0.4896  1.0613 -0.6516
15007TIP3   OH266435   0.877   6.035  16.680 -0.0844 -0.7988  0.1979
15007TIP3    H166436   0.785   6.014  16.692 -0.8142  1.5201 -1.0737
15007TIP3    H266437   0.883   6.071  16.592  1.5325  1.5959  1.2233
15008TIP3   OH266438   2.776   1.805  13.362  0.1239  0.2961 -0.2210
15008TIP3    H166439   2.816   1.765  13.440 -1.8264 -0.0270  0.6423
15008TIP3    H266440   2.712   1.740  13.332  1.4951  0.0076 -2.6929
15009TIP3   OH266441   1.791   1.351   0.453  0.4150 -0.0822 -0.0742
15009TIP3    H166442   1.819   1.338   0.543  1.2971  0.2285 -0.3005
15009TIP3    H266443   1.862   1.314   0.400 -0.2024 -0.4734 -0.6380
15010TIP3   OH266444   0.330   2.928   5.907 -0.2730  0.4228  0.1349
15010TIP3    H166445   0.391   2.873   5.957 -1.7496  0.3731  1.9471
15010TIP3    H266446   0.299   2.870   5.837 -0.5654 -0.5629  1.0528
15011TIP3   OH266447   2.641   0.752  14.932  0.4532 -0.0814  0.1079
15011TIP3    H166448   2.612   0.838  14.963  0.0081 -0.3987  0.5804
15011TIP3    H266449   2.730   0.743  14.966 -0.0801 -0.4867  1.4462
15012TIP3   OH266450   4.731   3.356  13.555 -0.2592  0.1789  0.4622
15012TIP3    H166451   4.640   3.326  13.559  0.1449 -1.1362  0.2836
15012TIP3    H266452   4.779   3.281  13.517  0.9212  0.7795  0.7339
15013TIP3   OH266453   1.024   6.213  14.071  0.1056  0.2928  0.0646
15013TIP3    H166454   0.983   6.156  14.136  0.8974 -0.0785  0.2447
15013TIP3    H266455   0.955   6.275  14.046 -0.6696 -0.5619  0.0749
15014TIP3   OH266456   1.778   6.089   3.776 -0.3328  0.3712 -0.2830
15014TIP3    H166457   1.753   6.084   3.869  1.1546 -0.1086  0.1198
15014TIP3    H266458   1.788   6.182   3.759  0.4772  0.4063  0.3549
15015TIP3   OH266459   3.587   4.181  16.312 -0.2706 -1.0415  0.2717
15015TIP3    H166460   3.528   4.256  16.318 -0.6094 -1.2271 -0.5808
15015TIP3    H266461   3.675   4.217  16.317 -0.4502 -0.6883  0.8572
15016TIP3   OH266462   2.039   6.404   2.495  0.3396  0.0575 -0.1447
15016TIP3    H166463   2.088   6.485   2.512 -1.0445  1.2290 -1.6123
15016TIP3    H266464   2.017   6.408   2.402 -0.4430 -1.6182 -0.0440
15017TIP3   OH266465   3.820   4.216   6.225 -0.1010  0.0203  0.5560
15017TIP3    H166466   3.834   4.125   6.197  1.2061  0.2382  0.4637
15017TIP3    H266467   3.860   4.221   6.312  1.0029  0.8292  0.0203
15018TIP3   OH266468   0.125   2.707   4.141 -0.2993  0.0295 -0.1079
15018TIP3    H166469   0.040   2.706   4.097 -0.1170 -0.6894 -0.4543
15018TIP3    H266470   0.188   2.728   4.072 -0.2202  0.7754  0.1920
15019TIP3   OH266471   5.659   1.266   4.488  0.3747  0.6678  1.1970
15019TIP3    H166472   5.666   1.193   4.549  0.5262  0.2268  0.6514
15019TIP3    H266473   5.750   1.287   4.465  0.2243 -2.8352 -3.2327
15020TIP3   OH266474   2.940   4.111  11.270 -0.7668  0.6232 -0.0137
15020TIP3    H166475   2.871   4.090  11.333 -0.2659 -0.1799  0.2862
15020TIP3    H266476   2.999   4.169  11.317 -0.9709  0.9151 -0.1119
15021TIP3   OH266477   0.421   4.246  16.361 -0.2943 -0.0846 -0.0475
15021TIP3    H166478   0.466   4.194  16.427 -1.3739 -0.5038  0.3723
15021TIP3    H266479   0.491   4.294  16.317  0.3928  0.5559  1.6950
15022TIP3   OH266480   0.888   2.029   4.972  0.1293 -0.0267  0.1866
15022TIP3    H166481   0.903   1.962   4.905 -2.3651 -0.3038 -0.1518
15022TIP3    H266482   0.796   2.017   4.997  0.2972  1.8075  1.7500
15023TIP3   OH266483   4.650   2.913  13.248  0.4802 -0.3811 -0.5264
15023TIP3    H166484   4.744   2.929  13.249  0.2869  0.7919  0.2801
15023TIP3    H266485   4.633   2.865  13.330  0.0885  1.2742  0.3937
15024TIP3   OH266486   2.570   2.273   0.518 -0.5492 -0.2263 -0.5218
15024TIP3    H166487   2.601   2.253   0.606  3.0982 -1.4623 -2.0297
15024TIP3    H266488   2.520   2.354   0.528  2.0767  1.1235  2.2626
15025TIP3   OH266489   6.064   3.742  12.779 -0.1959  0.7430  0.2509
15025TIP3    H166490   6.123   3.671  12.807  0.6434  1.8987  1.4559
15025TIP3    H266491   6.115   3.790  12.714 -0.8819  0.0688 -0.7964
15026TIP3   OH266492   4.360   0.141  16.768 -0.6086  0.5432  0.4349
15026TIP3    H166493   4.391   0.107  16.851  1.1933 -1.1048 -0.8627
15026TIP3    H266494   4.388   0.232  16.767 -1.1956  0.7560  1.8708
15027TIP3   OH266495   2.831   4.845   3.388 -0.3737 -0.2709 -0.8184
15027TIP3    H166496   2.794   4.860   3.475  0.2165  1.8300 -0.9168
15027TIP3    H266497   2.923   4.824   3.403 -0.7320 -1.9815 -0.8269
15028TIP3   OH266498   5.522   6.587  13.314 -0.6416 -0.8677 -0.3811
15028TIP3    H166499   5.597   6.641  13.338 -0.6022 -0.7304 -0.8019
15028TIP3    H266500   5.449   6.649  13.304 -0.7065 -0.9459 -0.3990
15029TIP3   OH266501   2.800   5.915   1.328  0.1938 -0.2314  0.3140
15029TIP3    H166502   2.765   5.904   1.416 -2.4712  1.0414 -0.5239
15029TIP3    H266503   2.767   5.840   1.279 -2.1537  1.3556 -0.6671
15030TIP3   OH266504   3.513   6.555  12.565 -0.0567 -0.3251  0.1466
15030TIP3    H166505   3.462   6.624  12.608 -2.2093 -0.7154 -1.6679
15030TIP3    H266506   3.456   6.524  12.494  1.7891 -2.4253 -0.4707
15031TIP3   OH266507   2.480   4.670   4.341 -0.4793 -0.6428 -0.5050
15031TIP3    H166508   2.566   4.642   4.308  0.7226  1.5484  0.5777
15031TIP3    H266509   2.487   4.766   4.346 -1.7306 -0.6390  2.9103
15032TIP3   OH266510   3.980   1.600  14.983  0.3155 -0.4977 -0.1446
15032TIP3    H166511   3.919   1.526  14.990 -0.2225 -0.1418 -0.9976
15032TIP3    H266512   4.044   1.585  15.053 -0.2580 -1.3340  0.2092
15033TIP3   OH266513   0.411   0.700   0.235 -0.0419  0.2905 -0.3967
15033TIP3    H166514   0.457   0.632   0.186 -1.6342 -2.1149  1.3047
15033TIP3    H266515   0.435   0.781   0.192  2.2496 -1.3034 -2.2661
15034TIP3   OH266516   6.253   2.481  13.774  0.3130  0.5963 -0.3997
15034TIP3    H166517   6.340   2.461  13.809  0.3129  2.2771  0.6053
15034TIP3    H266518   6.228   2.402  13.726  0.7183 -1.4159  2.5658
15035TIP3   OH266519   0.106   2.577   0.120  0.5472  0.6046 -0.3598
15035TIP3    H166520   0.034   2.513   0.112  1.4413 -0.3659 -0.7432
15035TIP3    H266521   0.102   2.605   0.212  0.3849 -0.2914 -0.0832
15036TIP3   OH266522   2.765   0.048  16.472  0.2036  0.6351 -0.1144
15036TIP3    H166523   2.837   0.104  16.501  1.1978 -1.2981  1.2803
15036TIP3    H266524   2.693   0.071  16.530  0.3283  1.1072 -0.1402
15037TIP3   OH266525   5.260   5.312  11.556  0.1481 -0.2688  0.2989
15037TIP3    H166526   5.222   5.249  11.496 -0.9107  0.8018 -0.1869
15037TIP3    H266527   5.354   5.295  11.553  0.2585  0.5432 -2.6023
15038TIP3   OH266528   1.987   3.541   1.551  0.1890 -0.2475 -0.2619
15038TIP3    H166529   1.997   3.472   1.485  1.0170 -2.4619  2.0535
15038TIP3    H266530   2.076   3.558   1.582 -0.3357 -0.5710  1.5066
15039TIP3   OH266531   1.149   2.110   1.153 -0.0816 -0.1696  0.6557
15039TIP3    H166532   1.153   2.180   1.088  0.0648 -0.4191  0.3942
15039TIP3    H266533   1.171   2.152   1.236  1.9032 -0.2755  0.2147
15040TIP3   OH266534   3.058   4.030  12.340 -0.2043  0.2426 -0.4335
15040TIP3    H166535   2.989   3.982  12.386 -0.3729  0.5607 -0.3523
15040TIP3    H266536   3.089   3.969  12.274 -0.3176 -0.0315 -0.2360
15041TIP3   OH266537   0.426   0.221  13.155  0.1973  0.1940 -0.0936
15041TIP3    H166538   0.472   0.152  13.204 -0.4099  0.9542  1.5980
15041TIP3    H266539   0.493   0.258  13.098  0.5581 -1.7271 -0.9597
15042TIP3   OH266540   2.977   0.211   3.747 -0.4460  0.3119  0.0446
15042TIP3    H166541   2.927   0.230   3.826  0.1953 -0.0740  0.5505
15042TIP3    H266542   3.068   0.229   3.770 -0.2694  0.3711 -0.6620
15043TIP3   OH266543   0.106   3.070   5.502  0.3273 -0.3457 -0.4188
15043TIP3    H166544   0.059   3.047   5.582 -0.8208 -1.3866 -1.3785
15043TIP3    H266545   0.040   3.107   5.444  1.0725  0.0186 -1.0592
15044TIP3   OH266546   5.996   2.798   1.643  0.3647 -0.1051  0.1972
15044TIP3    H166547   5.997   2.764   1.733  0.4071  0.2292  0.3226
15044TIP3    H266548   5.944   2.878   1.648 -1.2346 -1.0957 -0.4403
15045TIP3   OH266549   2.539   6.087  16.376  0.6864 -0.5024 -0.3038
15045TIP3    H166550   2.523   6.146  16.450 -2.3294 -1.3555 -0.1906
15045TIP3    H266551   2.452   6.052  16.354  2.0627 -3.1397 -1.8469
15046TIP3   OH266552   6.137   4.935   0.408 -0.0508 -0.3616  0.0143
15046TIP3    H166553   6.176   5.000   0.465 -0.4538  0.4606 -0.6384
15046TIP3    H266554   6.207   4.910   0.348  0.1370 -0.6202  0.3409
15047TIP3   OH266555   2.086   3.761   5.301  1.4516  0.3282 -0.9152
15047TIP3    H166556   2.066   3.844   5.257 -1.0588 -0.0155 -0.4484
15047TIP3    H266557   2.005   3.736   5.345  2.2174 -2.2863 -0.8865
15048TIP3   OH266558   3.814   2.247  14.896 -0.0140  0.6250  0.2397
15048TIP3    H166559   3.885   2.184  14.903  1.2465  1.8689 -1.0709
15048TIP3    H266560   3.776   2.230  14.809  1.2828  2.6004 -0.7519
15049TIP3   OH266561   0.557   2.254   1.462  0.0513 -0.6197  0.5727
15049TIP3    H166562   0.527   2.341   1.436  1.0037 -0.7727 -1.1158
15049TIP3    H266563   0.532   2.197   1.389  0.0643 -1.6359  1.3497
15050TIP3   OH266564   4.437   5.132  11.388  0.6877 -0.0368  0.3489
15050TIP3    H166565   4.463   5.040  11.394 -1.1766 -0.7111 -1.3658
15050TIP3    H266566   4.519   5.180  11.390  1.6989 -1.7445  1.0784
15051TIP3   OH266567   0.746   6.329   2.540  0.9514  0.4418  0.3250
15051TIP3    H166568   0.781   6.411   2.504 -0.0541  0.7015 -0.0614
15051TIP3    H266569   0.797   6.261   2.495  0.5756  0.8031 -0.6706
15052TIP3   OH266570   2.230   2.777   2.019 -0.2362  0.1478  0.3979
15052TIP3    H166571   2.263   2.690   2.040 -1.7560 -0.3731  0.6660
15052TIP3    H266572   2.295   2.836   2.058  1.3271 -0.8425 -0.6495
15053TIP3   OH266573   3.397   3.183  13.492 -0.5488 -0.0207  0.4172
15053TIP3    H166574   3.424   3.111  13.435 -0.5191  1.2523 -1.2181
15053TIP3    H266575   3.320   3.220  13.448 -1.1337  0.3636  1.7422
15054TIP3   OH266576   3.408   1.207   3.069  0.1288 -0.3918 -0.2747
15054TIP3    H166577   3.486   1.154   3.088  0.3800 -0.3984 -1.3121
15054TIP3    H266578   3.428   1.293   3.106  0.8680 -0.2327 -1.0224
15055TIP3   OH266579   2.236   2.746  14.870  0.1506 -0.3534 -0.2864
15055TIP3    H166580   2.216   2.795  14.790  1.6087  0.3055 -0.2683
15055TIP3    H266581   2.213   2.805  14.941  1.7235  0.2398 -0.2619
15056TIP3   OH266582   1.854   4.767  14.921  0.5414  0.5465 -0.0029
15056TIP3    H166583   1.837   4.811  14.838  0.2189 -0.7955 -0.6714
15056TIP3    H266584   1.809   4.820  14.986  1.2489  1.9114 -0.6065
15057TIP3   OH266585   2.726   5.079   3.224  0.6453 -0.0662 -0.3399
15057TIP3    H166586   2.742   5.022   3.299  0.3472 -1.6038 -1.4136
15057TIP3    H266587   2.788   5.049   3.157  1.4757  1.8145 -0.4548
15058TIP3   OH266588   4.751   2.460  13.121 -0.1898 -0.5494  0.3841
15058TIP3    H166589   4.674   2.507  13.154  0.8682  0.6244  1.2213
15058TIP3    H266590   4.742   2.464  13.026  0.5934  2.6139  0.3784
15059TIP3   OH266591   4.973   0.537   6.491 -0.0151 -0.0778 -0.3573
15059TIP3    H166592   5.063   0.510   6.509 -0.0235 -0.0658 -0.2962
15059TIP3    H266593   4.920   0.490   6.555  0.0848  0.9297  0.4673
15060TIP3   OH266594   1.720   5.447  12.339 -0.1782  0.5049 -0.1079
15060TIP3    H166595   1.793   5.447  12.276 -1.1187 -0.5898 -1.2277
15060TIP3    H266596   1.755   5.489  12.417  2.3494 -1.9048  0.1398
15061TIP3   OH266597   2.769   1.449  11.097 -0.3206  0.1753 -0.2133
15061TIP3    H166598   2.785   1.355  11.085 -1.6293 -0.3270  1.8085
15061TIP3    H266599   2.794   1.488  11.013 -0.3454 -2.0542 -1.2999
15062TIP3   OH266600   0.142   6.725   4.640  0.6768 -0.1157 -0.3544
15062TIP3    H166601   0.237   6.741   4.637  0.7889 -0.5989  0.4137
15062TIP3    H266602   0.134   6.631   4.622  0.2831  0.0871 -1.2439
15063TIP3   OH266603   6.691   5.875   4.882  0.2658  0.3646  0.1015
15063TIP3    H166604   6.761   5.903   4.942  0.0029  1.3196 -0.0207
15063TIP3    H266605   6.624   5.839   4.939  0.5758  0.0692  0.2790
15064TIP3   OH266606   0.384   3.733   2.751 -0.5149  0.5978  0.2068
15064TIP3    H166607   0.328   3.811   2.752 -1.1301  0.1718 -0.5778
15064TIP3    H266608   0.473   3.767   2.759 -0.6991  1.4600 -1.2650
15065TIP3   OH266609   1.993   4.295  15.322  0.0069 -0.1883 -0.2988
15065TIP3    H166610   1.985   4.384  15.286  0.6480 -0.4458 -1.1023
15065TIP3    H266611   2.087   4.284  15.338 -0.1108 -0.6015  0.1117
15066TIP3   OH266612   1.053   4.006   0.309  0.2344 -0.0214 -0.2700
15066TIP3    H166613   0.988   3.941   0.285  1.2813 -0.6218 -1.5362
15066TIP3    H266614   1.120   3.957   0.357  0.0463  0.4908  0.5372
15067TIP3   OH266615   0.488   1.510   2.024  0.6239 -0.0642  0.3012
15067TIP3    H166616   0.459   1.589   2.070  0.2711  0.2297 -0.4102
15067TIP3    H266617   0.466   1.438   2.083  0.3838  0.3262  0.6896
15068TIP3   OH266618   0.631   4.341   2.758 -0.2385 -0.0917  0.0520
15068TIP3    H166619   0.622   4.434   2.779 -0.1209 -0.0673 -0.0073
15068TIP3    H266620   0.563   4.298   2.811 -1.9877  0.2898 -1.8392
15069TIP3   OH266621   3.354   0.276   4.361  0.5845  0.2854  0.0331
15069TIP3    H166622   3.325   0.342   4.425 -0.2596  0.1675 -0.2267
15069TIP3    H266623   3.450   0.283   4.362  0.7163 -1.2698  2.9746
15070TIP3   OH266624   5.228   4.965   4.259  0.2581 -0.2844 -0.1812
15070TIP3    H166625   5.253   4.974   4.167  2.4058  2.3427  0.5804
15070TIP3    H266626   5.150   5.020   4.268  0.8485  0.5666 -0.1706
15071TIP3   OH266627   6.469   3.592  14.641  0.0296  0.2595 -0.3107
15071TIP3    H166628   6.405   3.654  14.676  1.6357  1.6213  0.3101
15071TIP3    H266629   6.445   3.508  14.679  0.5500  1.3395  2.5893
15072TIP3   OH266630   6.749   4.358  12.389 -0.4313 -0.8761  0.7665
15072TIP3    H166631   6.664   4.356  12.346  0.0583 -1.6529 -0.1927
15072TIP3    H266632   6.787   4.442  12.364 -1.5864  0.2243  2.5718
15073TIP3   OH266633   0.513   1.601   3.341 -0.3641 -0.2375  0.5263
15073TIP3    H166634   0.429   1.577   3.302 -0.2196 -0.0444  0.0840
15073TIP3    H266635   0.525   1.693   3.315  0.1667 -0.3829  0.2630
15074TIP3   OH266636   3.304   3.531   1.011 -0.1358  0.9169  0.0368
15074TIP3    H166637   3.348   3.596   0.956  3.2515  0.3702  1.9414
15074TIP3    H266638   3.225   3.576   1.041 -0.5993  2.2273 -2.9020
15075TIP3   OH266639   4.067   1.550   5.581 -0.6516 -0.0746 -0.9750
15075TIP3    H166640   4.132   1.579   5.645 -1.6353  3.2818 -1.3741
15075TIP3    H266641   3.993   1.520   5.634  0.2540 -1.6174 -0.5456
15076TIP3   OH266642   0.076   5.213   1.707  0.1155  0.0940  0.4011
15076TIP3    H166643  -0.003   5.203   1.653 -0.0715  0.3832  0.6187
15076TIP3    H266644   0.125   5.283   1.665  0.9822 -1.0806 -0.5941
15077TIP3   OH266645   0.684   5.050  13.028 -0.4005  0.0983  0.5388
15077TIP3    H166646   0.749   5.024  12.962 -0.6108  2.0377 -0.4699
15077TIP3    H266647   0.607   4.997  13.008  0.5281 -1.5441  1.1676
15078TIP3   OH266648   5.525   4.627  15.076  0.4925  0.1039  0.1245
15078TIP3    H166649   5.507   4.667  14.991  0.6393 -2.5782 -1.2496
15078TIP3    H266650   5.499   4.535  15.065  0.0645 -0.1905  3.1456
15079TIP3   OH266651   0.071   6.445  12.470 -0.9188 -0.6019 -0.2100
15079TIP3    H166652   0.055   6.392  12.548  0.4826 -1.4125 -0.4556
15079TIP3    H266653   0.134   6.511  12.499 -0.7470 -0.6192 -0.5393
15080TIP3   OH266654   4.898   1.881  15.680 -0.5258  0.0133  0.1946
15080TIP3    H166655   4.849   1.889  15.598  0.1540  0.9087 -0.1194
15080TIP3    H266656   4.898   1.969  15.717  1.3737  0.1599 -0.1041
15081TIP3   OH266657   1.098   4.100   3.536  0.0218 -0.8517  0.7505
15081TIP3    H166658   1.070   4.054   3.457  0.8732  0.9744 -0.6514
15081TIP3    H266659   1.032   4.168   3.550 -0.0873 -1.1223  1.5693
15082TIP3   OH266660   0.958   4.107   0.605 -0.4129  0.0581  0.0842
15082TIP3    H166661   1.051   4.129   0.609 -0.0343 -1.2030 -1.0383
15082TIP3    H266662   0.946   4.074   0.516 -2.4175  2.2278 -0.4885
15083TIP3   OH266663   4.082   2.213  14.696  0.1027  0.1522  0.8512
15083TIP3    H166664   4.096   2.121  14.715  0.5081 -0.0838 -0.5353
15083TIP3    H266665   4.163   2.256  14.724 -0.1373  0.1167  1.6189
15084TIP3   OH266666   2.966   0.584  16.182  0.0918 -0.3104 -0.8653
15084TIP3    H166667   2.996   0.518  16.244  0.5618 -0.1827 -0.9568
15084TIP3    H266668   2.958   0.538  16.098  0.4973 -0.2359 -0.9471
15085TIP3   OH266669   5.477   5.646   0.260 -0.8168 -0.1054 -0.4138
15085TIP3    H166670   5.550   5.663   0.199 -1.4962  1.3656 -0.8404
15085TIP3    H266671   5.399   5.662   0.208 -1.5553 -4.0402 -0.6704
15086TIP3   OH266672   0.915   0.057  11.616 -0.1403 -0.0655 -0.5549
15086TIP3    H166673   0.872  -0.020  11.655 -0.6857 -0.7624 -2.4998
15086TIP3    H266674   0.849   0.126  11.621 -1.0562 -0.7773 -2.3125
15087TIP3   OH266675   3.194   0.200  14.125 -0.4324  0.1659 -0.2804
15087TIP3    H166676   3.231   0.140  14.060  0.2324 -0.3146  0.5385
15087TIP3    H266677   3.229   0.286  14.101  1.1252 -0.2574  0.3940
15088TIP3   OH266678   0.637   4.830  11.948  0.0755  0.3862 -0.0824
15088TIP3    H166679   0.721   4.784  11.942  0.3966  0.8303  0.9583
15088TIP3    H266680   0.644   4.882  12.027 -1.2128  0.3897  0.0354
15089TIP3   OH266681   0.274   4.969  11.169 -0.3767  0.4811  0.3160
15089TIP3    H166682   0.318   5.042  11.211  0.5716 -0.0145  0.1954
15089TIP3    H266683   0.263   4.996  11.078  2.2222 -0.5042 -0.3293
15090TIP3   OH266684   5.578   4.626   2.382 -0.0015  0.0579  0.4171
15090TIP3    H166685   5.505   4.688   2.384 -1.5288 -1.6856 -0.0863
15090TIP3    H266686   5.636   4.655   2.453 -1.6959  0.8466  1.4983
15091TIP3   OH266687   4.638   1.562   1.600 -0.1350 -1.1224 -0.0325
15091TIP3    H166688   4.576   1.586   1.669 -0.7914  0.6774 -1.2163
15091TIP3    H266689   4.717   1.536   1.647 -0.5078  0.2565  1.4071
15092TIP3   OH266690   0.460   4.795  14.505  0.5933 -0.0033  0.2175
15092TIP3    H166691   0.489   4.881  14.533 -1.6238  1.0160 -0.4992
15092TIP3    H266692   0.540   4.750  14.479  2.0542  0.9818  2.8159
15093TIP3   OH266693   4.672   2.403   0.996 -0.0371  0.8569  0.1063
15093TIP3    H166694   4.695   2.314   0.971 -0.2820  0.9578 -0.4793
15093TIP3    H266695   4.741   2.457   0.957 -1.6136  1.2373 -2.2680
15094TIP3   OH266696   3.274   5.334   5.426  0.0362 -0.3382  0.1900
15094TIP3    H166697   3.258   5.396   5.356 -3.5678 -2.0682 -0.6320
15094TIP3    H266698   3.284   5.387   5.504 -0.7630  1.3891 -0.8615
15095TIP3   OH266699   1.030   3.719  15.907 -0.5183  0.5084 -0.4625
15095TIP3    H166700   0.980   3.768  15.973  0.5325  0.1739  0.6003
15095TIP3    H266701   1.007   3.761  15.824 -3.5012 -0.3911 -0.1539
15096TIP3   OH266702   2.555   3.974   5.311 -0.3953  0.1874  0.0643
15096TIP3    H166703   2.531   3.890   5.272 -0.4240  0.4570 -0.4994
15096TIP3    H266704   2.649   3.967   5.328 -1.0649 -1.3800  3.5196
15097TIP3   OH266705   4.485   5.622  11.111 -0.2369 -0.6562 -0.3617
15097TIP3    H166706   4.526   5.681  11.174 -1.8581 -0.2722  0.3516
15097TIP3    H266707   4.403   5.595  11.153 -0.9682 -1.0032 -1.9764
15098TIP3   OH266708   1.863   2.520  12.709  0.2756  0.2600 -0.6762
15098TIP3    H166709   1.950   2.510  12.671  0.0092 -1.5627 -0.8468
15098TIP3    H266710   1.809   2.555  12.638  1.1048  2.4471 -0.2532
15099TIP3   OH266711   4.182   2.582  14.080  0.0703  0.6797 -0.7497
15099TIP3    H166712   4.264   2.563  14.125 -0.6203 -0.9590 -0.1431
15099TIP3    H266713   4.131   2.632  14.143 -0.8133 -1.4351  0.2606
15100TIP3   OH266714   1.145   2.191  11.196 -1.0474  0.3242 -0.6057
15100TIP3    H166715   1.079   2.142  11.146 -0.2363  0.5854 -1.9414
15100TIP3    H266716   1.215   2.208  11.134  1.5054 -2.1488  1.4167
15101TIP3   OH266717   1.769   5.365  13.429  0.4367  0.1668  0.4245
15101TIP3    H166718   1.818   5.424  13.372 -1.7153  0.4462 -1.1765
15101TIP3    H266719   1.765   5.283  13.381 -2.3683  0.7314 -0.4286
15102TIP3   OH266720   6.399   5.024  10.693 -0.1924 -0.1527  0.2038
15102TIP3    H166721   6.342   4.966  10.744 -0.1104  1.1091  1.7650
15102TIP3    H266722   6.341   5.093  10.662 -0.1539 -0.6816 -1.0688
15103TIP3   OH266723   3.852   6.722  14.676  0.6290  0.5764  0.3717
15103TIP3    H166724   3.854   6.812  14.645 -0.1622  0.6773  0.5939
15103TIP3    H266725   3.759   6.700  14.680  0.8561 -0.8004 -1.2414
15104TIP3   OH266726   0.617   2.033  13.781 -0.7899  0.0098 -0.5580
15104TIP3    H166727   0.599   1.940  13.768 -2.0792 -0.4043  3.3372
15104TIP3    H266728   0.548   2.078  13.731 -0.4059 -1.1109 -2.1195
15105TIP3   OH266729   0.937   4.588  15.163 -0.1299  0.4016  0.3171
15105TIP3    H166730   0.909   4.678  15.146  0.7246  0.0389 -3.6258
15105TIP3    H266731   0.856   4.538  15.163 -0.2853  0.5773 -2.2060
15106TIP3   OH266732   6.146   1.338   2.132 -0.1822 -0.0871  0.1581
15106TIP3    H166733   6.059   1.300   2.123 -0.0077 -0.3487 -0.4711
15106TIP3    H266734   6.203   1.264   2.155  0.1253 -0.1845 -0.8828
15107TIP3   OH266735   4.271   4.756   0.285 -0.1996  0.3682  0.1013
15107TIP3    H166736   4.243   4.666   0.265  0.1471  0.6488 -1.7443
15107TIP3    H266737   4.364   4.747   0.308 -0.2971  0.1884  0.4300
15108TIP3   OH266738   4.030   6.159  11.388 -0.5040  0.6259 -0.1562
15108TIP3    H166739   3.993   6.165  11.300 -0.5965  2.4972 -0.0226
15108TIP3    H266740   4.124   6.146  11.374 -0.8508 -1.6963 -0.5014
15109TIP3   OH266741   4.428   2.220   4.050  0.1759 -0.1040 -0.3814
15109TIP3    H166742   4.487   2.287   4.016  1.4169 -0.4087  1.0812
15109TIP3    H266743   4.452   2.140   4.003  1.0770 -0.2695  0.3479
15110TIP3   OH266744   6.729   2.411  14.566  0.4526  0.0018 -0.2288
15110TIP3    H166745   6.703   2.439  14.654 -3.1473  0.7727 -1.4703
15110TIP3    H266746   6.698   2.321  14.559 -0.3176  0.3209 -1.0826
15111TIP3   OH266747   2.757   3.348   2.654 -0.2932 -0.4594 -0.0556
15111TIP3    H166748   2.826   3.293   2.690 -0.5757  0.0657  1.3344
15111TIP3    H266749   2.743   3.416   2.720 -1.3629  0.0901 -0.8195
15112TIP3   OH266750   6.581   0.071   5.371 -0.1509 -0.5048 -0.6604
15112TIP3    H166751   6.518   0.002   5.353 -0.0818 -0.8981  0.5144
15112TIP3    H266752   6.545   0.117   5.447  1.5829 -1.5299  0.8155
15113TIP3   OH266753   4.630   0.832  14.718  0.5266 -0.1303 -0.6837
15113TIP3    H166754   4.652   0.853  14.628  1.4983 -2.0470 -0.9141
15113TIP3    H266755   4.563   0.764  14.711 -1.1373  1.3912  0.0417
15114TIP3   OH266756   6.775   3.660  15.275  0.1683  0.5342 -0.2363
15114TIP3    H166757   6.782   3.634  15.183  1.2471  1.1696 -0.3466
15114TIP3    H266758   6.683   3.648  15.296 -0.1918  0.8692 -1.5520
15115TIP3   OH266759   6.295   0.586   1.501  0.1413 -0.2630  0.3109
15115TIP3    H166760   6.300   0.617   1.410  0.1056  0.7783  0.6563
15115TIP3    H266761   6.213   0.537   1.505 -0.5456  0.8577  0.1241
15116TIP3   OH266762   3.674   0.132   4.611  0.7435  0.2380 -0.5367
15116TIP3    H166763   3.735   0.153   4.540  3.7686 -0.6409  1.7234
15116TIP3    H266764   3.689   0.039   4.628  0.9858  0.7229  2.0655
15117TIP3   OH266765   3.166   0.310   3.031  0.0723  0.2379  0.1224
15117TIP3    H166766   3.085   0.357   3.011 -0.3350  0.0209  1.2260
15117TIP3    H266767   3.199   0.352   3.110 -0.5512 -1.6063  1.4033
15118TIP3   OH266768   3.334   5.944  15.248 -0.2550  0.5498 -0.4955
15118TIP3    H166769   3.351   5.969  15.339  0.1033  2.2804 -1.0283
15118TIP3    H266770   3.247   5.978  15.229 -0.3858  0.0703 -0.7798
15119TIP3   OH266771   1.287   6.079  11.881  0.3898 -0.2540 -0.6163
15119TIP3    H166772   1.251   6.008  11.827 -1.4337  0.0201  0.1820
15119TIP3    H266773   1.366   6.042  11.921 -1.2436 -2.3044  0.8149
15120TIP3   OH266774   0.051   4.565  11.303  0.5015  0.6761 -0.0103
15120TIP3    H166775   0.021   4.634  11.362  1.6990  0.5312  0.7827
15120TIP3    H266776   0.102   4.610  11.236  0.1148  0.7099 -0.2858
15121TIP3   OH266777   1.039   5.583   0.895 -0.0869 -0.7227  0.2833
15121TIP3    H166778   1.091   5.642   0.950 -1.0130 -1.2704  1.7860
15121TIP3    H266779   0.964   5.636   0.869 -0.5250 -0.9829  0.9939
15122TIP3   OH266780   1.139   5.202   6.517  0.3394 -0.3000  0.1545
15122TIP3    H166781   1.179   5.131   6.466 -0.0922 -1.8252  1.8696
15122TIP3    H266782   1.199   5.276   6.508  2.8184 -2.0623  1.4219
15123TIP3   OH266783   3.773   1.674  15.447 -0.2234 -0.2524  0.4927
15123TIP3    H166784   3.773   1.754  15.395  0.9246 -0.2036  0.5459
15123TIP3    H266785   3.708   1.618  15.405 -2.4453  1.4293  1.6061
15124TIP3   OH266786   2.515   1.801   2.136  0.3152  0.4094  0.3482
15124TIP3    H166787   2.511   1.712   2.100  0.2899 -0.5433  2.6174
15124TIP3    H266788   2.606   1.812   2.165  0.9026  1.9930 -1.9832
15125TIP3   OH266789   6.748   5.326   3.378  0.6127 -0.4290 -0.1213
15125TIP3    H166790   6.737   5.386   3.452 -0.7550  0.9809 -1.4306
15125TIP3    H266791   6.714   5.242   3.409  1.7262 -0.3343  1.4352
15126TIP3   OH266792   5.805   0.543  16.550 -0.1805 -0.7781  0.1324
15126TIP3    H166793   5.719   0.577  16.573 -0.3940 -1.2867  0.1015
15126TIP3    H266794   5.788   0.476  16.483  0.0203 -2.5108  1.7723
15127TIP3   OH266795   4.377   2.605  17.015 -0.2827  0.2011  0.3465
15127TIP3    H166796   4.331   2.645  16.941 -1.8472 -0.0597  1.1667
15127TIP3    H266797   4.344   2.650  17.092  0.5477 -0.2691  0.9916
15128TIP3   OH266798   2.083   3.163   2.212  0.2711 -0.3470 -0.2041
15128TIP3    H166799   2.157   3.168   2.274  0.2433 -0.2474 -0.1790
15128TIP3    H266800   2.048   3.252   2.210 -0.0995 -0.4841  0.0910
15129TIP3   OH266801   2.432   3.323   4.560  0.0742  0.2137 -0.0816
15129TIP3    H166802   2.520   3.347   4.589 -0.8865 -0.8012  3.8551
15129TIP3    H266803   2.436   3.229   4.544 -0.0356  0.3667 -1.0870
15130TIP3   OH266804   4.848   3.588  13.463 -0.0893  0.0321 -0.5373
15130TIP3    H166805   4.793   3.544  13.528 -0.8268 -0.7834 -1.6984
15130TIP3    H266806   4.937   3.572  13.492 -0.3868 -1.1768 -0.2541
15131TIP3   OH266807   4.823   5.693   0.089 -0.0562  0.2226  0.4698
15131TIP3    H166808   4.794   5.689  -0.002  1.7087 -1.8083 -0.0630
15131TIP3    H266809   4.882   5.768   0.092 -0.6124  0.6732  0.0764
15132TIP3   OH266810   6.305   4.049  13.472  0.4851 -0.3414  0.6938
15132TIP3    H166811   6.230   3.989  13.467 -0.0102  0.3854 -1.3752
15132TIP3    H266812   6.265   4.136  13.478  1.1345  0.0825 -0.8338
15133TIP3   OH266813   2.844   5.720   2.988  0.4892  0.4785 -0.1245
15133TIP3    H166814   2.777   5.716   3.056  2.2474 -1.2541  1.5275
15133TIP3    H266815   2.920   5.676   3.025  3.4118  4.4445 -1.0403
15134TIP3   OH266816   1.767   1.179  11.956  0.1589 -0.3560  0.4289
15134TIP3    H166817   1.737   1.131  11.879 -2.4149  1.5041  0.2151
15134TIP3    H266818   1.745   1.121  12.030 -1.3956 -0.2733  0.0562
15135TIP3   OH266819   5.635   5.731  12.214  0.5561 -0.3608  0.0774
15135TIP3    H166820   5.567   5.753  12.278 -0.3815  0.2206 -1.0996
15135TIP3    H266821   5.658   5.640  12.235  0.0354 -0.2855  1.0337
15136TIP3   OH266822   3.017   1.271  12.291  0.4306  0.1320  0.3020
15136TIP3    H166823   2.948   1.246  12.229 -1.6278  1.3494  2.0350
15136TIP3    H266824   3.024   1.366  12.283  2.8669 -0.0987 -0.7743
15137TIP3   OH266825   6.696   5.330  10.526 -0.4702 -0.2631 -0.4485
15137TIP3    H166826   6.660   5.418  10.529  2.2012  0.8173  1.3332
15137TIP3    H266827   6.754   5.330  10.450  2.0500  0.5680  1.4313
15138TIP3   OH266828   6.292   6.786   2.931  0.1146 -0.1749 -0.2365
15138TIP3    H166829   6.342   6.838   2.993 -0.8429 -0.4405  0.7717
15138TIP3    H266830   6.287   6.699   2.971  1.4930 -0.9963 -1.7881
15139TIP3   OH266831   2.954   3.860  12.709 -0.2880 -0.3228  0.2070
15139TIP3    H166832   2.985   3.846  12.798  1.4436 -0.7801 -0.4575
15139TIP3    H266833   2.935   3.954  12.705 -0.5141 -0.3238  1.0820
15140TIP3   OH266834   4.200   4.255   1.506 -0.4542 -0.3561 -0.0312
15140TIP3    H166835   4.234   4.232   1.419  1.0094 -0.5389  0.5720
15140TIP3    H266836   4.169   4.172   1.542 -1.3160 -0.2327 -0.4853
15141TIP3   OH266837   2.669   1.457  15.495 -0.0524 -0.2590 -0.1211
15141TIP3    H166838   2.591   1.473  15.548 -1.8031 -1.0348 -2.4069
15141TIP3    H266839   2.712   1.542  15.491 -1.8046  0.6453 -0.4148
15142TIP3   OH266840   1.511   3.882  13.055  0.0103 -0.4647 -0.3160
15142TIP3    H166841   1.542   3.945  12.990  1.5842 -0.2665  0.5961
15142TIP3    H266842   1.564   3.901  13.133 -1.1497 -1.3619  0.6983
15143TIP3   OH266843   2.634   1.569  13.311 -0.1742 -0.7218 -0.3424
15143TIP3    H166844   2.549   1.567  13.267  0.8773 -1.5209 -2.3867
15143TIP3    H266845   2.680   1.493  13.277  1.2432 -0.4965  1.0260
15144TIP3   OH266846   2.925   0.262  12.236  0.1359  0.2549 -0.5970
15144TIP3    H166847   2.876   0.233  12.159 -0.4962 -0.0165 -0.0869
15144TIP3    H266848   2.931   0.357  12.226 -0.7548  0.3205 -0.5024
15145TIP3   OH266849   3.972   5.437   2.495  0.1732  0.2027 -0.2681
15145TIP3    H166850   3.931   5.368   2.443 -1.0287 -0.9879  2.1508
15145TIP3    H266851   3.958   5.409   2.586  1.8650  2.3919  0.6953
15146TIP3   OH266852   1.211   4.849  17.092 -0.2358 -0.0982 -0.1353
15146TIP3    H166853   1.268   4.853  17.168 -0.2766 -1.7815 -0.0037
15146TIP3    H266854   1.130   4.808  17.123  0.6918 -3.2114 -1.5895
15147TIP3   OH266855   0.681   1.241   4.886  0.0432  0.5814 -0.7478
15147TIP3    H166856   0.677   1.150   4.858  1.4445  0.2419  0.1237
15147TIP3    H266857   0.721   1.287   4.812  0.8759  0.2094 -0.5286
15148TIP3   OH266858   1.878   4.924  11.825  0.1119  0.0085  0.3562
15148TIP3    H166859   1.969   4.912  11.797 -0.3884  1.9938 -2.3336
15148TIP3    H266860   1.834   4.844  11.795  0.7018 -0.3911  0.5345
15149TIP3   OH266861   5.482   5.789  16.023  0.5840  0.4664  0.3192
15149TIP3    H166862   5.525   5.705  16.032 -0.3990  0.1213  2.1692
15149TIP3    H266863   5.390   5.771  16.043  0.1180  1.7333 -0.6010
15150TIP3   OH266864   6.618   6.450   5.349  0.4802 -0.1614 -0.6533
15150TIP3    H166865   6.673   6.524   5.322  0.4796  0.2717  0.5146
15150TIP3    H266866   6.534   6.489   5.372  0.2578 -0.6155 -0.6862
15151TIP3   OH266867   1.824   2.237   2.564  0.4323 -0.0534  0.3791
15151TIP3    H166868   1.815   2.292   2.642  0.9944  0.3109  0.1929
15151TIP3    H266869   1.746   2.257   2.512 -0.0845 -0.5026  0.9698
15152TIP3   OH266870   5.733   2.238  16.844 -0.4360  0.5010 -0.2790
15152TIP3    H166871   5.679   2.308  16.882 -0.3100  0.3983  0.0969
15152TIP3    H266872   5.773   2.278  16.767 -1.2327  0.5032 -0.6943
15153TIP3   OH266873   3.238   1.748  16.866 -0.6819  0.5934 -0.0685
15153TIP3    H166874   3.156   1.791  16.889 -0.5920  0.5946  0.2437
15153TIP3    H266875   3.295   1.819  16.837 -0.7286  0.6155 -0.1057
15154TIP3   OH266876   1.917   2.673   3.881 -0.0072 -0.7976 -0.2400
15154TIP3    H166877   1.923   2.757   3.927  0.4884  0.0053 -1.7421
15154TIP3    H266878   1.823   2.657   3.874 -0.0934 -1.1400  1.4058
15155TIP3   OH266879   6.239   6.263  14.859 -0.3295 -0.0299 -0.1921
15155TIP3    H166880   6.281   6.178  14.854 -3.0654 -1.3422 -1.8063
15155TIP3    H266881   6.197   6.264  14.945 -2.1852 -1.2553 -1.0668
15156TIP3   OH266882   0.430   4.865  12.956 -0.1401 -0.1433 -0.1660
15156TIP3    H166883   0.401   4.862  13.047  0.0710 -0.9042 -0.1230
15156TIP3    H266884   0.351   4.848  12.905 -0.2188  0.0842 -0.1225
15157TIP3   OH266885   2.516   1.876   6.015 -0.3575 -0.2371 -0.2477
15157TIP3    H166886   2.463   1.804   6.050 -1.6607  1.5902  1.6214
15157TIP3    H266887   2.569   1.905   6.090  0.9098  0.0923 -1.2597
15158TIP3   OH266888   2.406   2.748  11.707  0.0014 -0.2275  0.5677
15158TIP3    H166889   2.437   2.668  11.751 -2.0714 -0.8410  0.9474
15158TIP3    H266890   2.377   2.805  11.778  0.6373  0.5122  0.2381
15159TIP3   OH266891   3.680   2.027   1.228 -0.4324  0.3084 -0.2463
15159TIP3    H166892   3.623   2.042   1.303  0.7883  0.7868  0.6106
15159TIP3    H266893   3.760   1.990   1.266 -0.4081 -0.9616 -1.4934
15160TIP3   OH266894   1.459   1.116   0.046  0.3208  0.6343 -0.2634
15160TIP3    H166895   1.384   1.114   0.107  0.3629  0.2979 -0.2235
15160TIP3    H266896   1.534   1.136   0.102  0.6441 -1.4680  0.0866
15161TIP3   OH266897   3.156   2.052  12.009  0.2529 -0.5015  0.2251
15161TIP3    H166898   3.104   2.112  12.061  1.2641  0.7315 -0.1494
15161TIP3    H266899   3.127   1.965  12.036 -1.1021  0.1472  0.9038
15162TIP3   OH266900   5.241   3.487   5.986  0.2188 -0.4103 -0.4735
15162TIP3    H166901   5.268   3.574   5.955 -0.8826  0.3411  0.6756
15162TIP3    H266902   5.259   3.488   6.080  0.2982 -1.4654 -0.4761
15163TIP3   OH266903   4.489   0.853  16.840  0.0551  0.3907  0.0566
15163TIP3    H166904   4.528   0.784  16.787  0.0962 -0.9183  1.7467
15163TIP3    H266905   4.397   0.828  16.850 -0.3363  1.4685 -0.7134
15164TIP3   OH266906   3.827   4.539  12.969 -0.3263  0.4116  0.4345
15164TIP3    H166907   3.823   4.634  12.980  0.5061  0.4822  0.1284
15164TIP3    H266908   3.847   4.526  12.876  1.3471 -0.0294  0.8515
15165TIP3   OH266909   1.724   5.358   0.344 -0.6365 -0.1679  0.2874
15165TIP3    H166910   1.711   5.338   0.437 -0.0926  0.8558  0.5924
15165TIP3    H266911   1.661   5.301   0.298 -1.1663 -0.4102  1.2954
15166TIP3   OH266912   3.346   1.349   2.098  0.3676 -0.3647  0.4912
15166TIP3    H166913   3.394   1.420   2.056  0.7617 -0.3457  0.9654
15166TIP3    H266914   3.254   1.373   2.088  0.4975  0.1866  0.5947
15167TIP3   OH266915   3.955   1.477  11.565  0.0714 -0.6790  0.3979
15167TIP3    H166916   3.918   1.430  11.640 -0.1858  1.5962  1.7542
15167TIP3    H266917   4.048   1.454  11.567  0.0229 -0.8374  1.2810
15168TIP3   OH266918   2.016   0.685   5.070  0.4598 -0.0680 -1.0395
15168TIP3    H166919   1.948   0.636   5.116  1.8489  0.0240  1.1780
15168TIP3    H266920   1.975   0.769   5.050 -0.6247 -0.6364 -1.2460
15169TIP3   OH266921   3.838   1.708   1.107 -0.6291 -0.2530 -0.6586
15169TIP3    H166922   3.902   1.638   1.119 -1.0606 -0.7660 -1.2703
15169TIP3    H266923   3.771   1.692   1.173  0.0524  0.5077  0.2356
15170TIP3   OH266924   0.124   2.294  15.422  0.2149  0.1346 -0.1491
15170TIP3    H166925   0.208   2.323  15.460  1.6107 -2.0791 -1.4563
15170TIP3    H266926   0.128   2.199  15.426 -1.4998 -0.0238 -1.8895
15171TIP3   OH266927   6.679   4.996   5.410 -0.5053  0.7193 -0.3397
15171TIP3    H166928   6.602   4.981   5.465 -0.5044 -0.4753 -0.6497
15171TIP3    H266929   6.752   5.001   5.472 -0.9696  2.9387  0.0395
15172TIP3   OH266930   6.646   3.173   2.581 -0.5347 -0.0614  0.4708
15172TIP3    H166931   6.648   3.257   2.534  0.3368  0.1561  0.8905
15172TIP3    H266932   6.609   3.194   2.666 -0.5777 -0.1521  0.4741
15173TIP3   OH266933   2.298   5.615   6.656  0.3014  0.0614  0.3872
15173TIP3    H166934   2.286   5.708   6.679 -0.5243 -0.1337  0.7823
15173TIP3    H266935   2.320   5.616   6.563 -2.6473  0.5081 -0.3698
15174TIP3   OH266936   2.388   4.038   0.653 -0.4221  0.3346  0.2230
15174TIP3    H166937   2.355   3.973   0.715 -0.3427 -0.3485 -0.4460
15174TIP3    H266938   2.483   4.025   0.652 -0.5267 -0.3628 -0.8308
15175TIP3   OH266939   0.031   4.930   4.188  0.3984 -0.0465  0.7686
15175TIP3    H166940  -0.022   4.956   4.264 -0.4438 -0.3248  0.2737
15175TIP3    H266941   0.121   4.928   4.222  0.3159  2.0316  1.1996
15176TIP3   OH266942   5.014   6.124   4.310  0.1034 -0.1545 -0.0189
15176TIP3    H166943   5.018   6.092   4.220 -0.0917 -0.4714  0.0860
15176TIP3    H266944   4.925   6.105   4.339 -0.7710  2.5785 -0.7358
15177TIP3   OH266945   2.012   1.619  14.580  0.0484 -0.0918  0.6036
15177TIP3    H166946   1.989   1.705  14.616 -1.8541 -0.6448  0.7910
15177TIP3    H266947   1.928   1.573  14.572  0.9018 -1.4828 -0.6713
15178TIP3   OH266948   4.265   3.729  15.722 -0.0953 -0.4191 -0.2852
15178TIP3    H166949   4.359   3.737  15.734 -0.1187  0.2278 -0.5300
15178TIP3    H266950   4.252   3.637  15.699  0.6985 -0.1037 -2.1531
15179TIP3   OH266951   0.999   0.298   5.601 -0.1820 -0.3877  0.7489
15179TIP3    H166952   0.992   0.233   5.671  1.5156 -0.3883  0.9389
15179TIP3    H266953   1.022   0.248   5.523  1.8403  0.0588  1.0509
15180TIP3   OH266954   2.659   1.427   3.305 -0.5812  0.4442  0.1672
15180TIP3    H166955   2.716   1.360   3.343  1.2041  0.8181 -1.7313
15180TIP3    H266956   2.659   1.408   3.211 -0.3516  2.8311 -0.3547
15181TIP3   OH266957   2.063   5.806   2.646  0.1800 -0.3470  0.0053
15181TIP3    H166958   2.001   5.739   2.676 -0.7593  0.9903  1.1030
15181TIP3    H266959   2.147   5.760   2.638 -0.0649 -1.2585  2.4282
15182TIP3   OH266960   5.595   1.209  17.006  0.0604  0.0462  0.1315
15182TIP3    H166961   5.671   1.153  17.024  0.2443  0.4422  0.6021
15182TIP3    H266962   5.633   1.294  16.982 -0.1763 -0.4781 -2.2039
15183TIP3   OH266963   1.608   3.729  14.201  0.2884  0.6215 -0.0822
15183TIP3    H166964   1.659   3.778  14.137  0.0346  0.3923 -0.4634
15183TIP3    H266965   1.517   3.754  14.184  0.0611 -0.7455 -0.9550
15184TIP3   OH266966   4.399   0.515  16.128  0.2672 -0.1343  0.2074
15184TIP3    H166967   4.407   0.457  16.204 -0.7655 -0.4067  0.1284
15184TIP3    H266968   4.322   0.568  16.147 -0.0234 -0.2356 -0.6687
15185TIP3   OH266969   2.988   6.371  15.468 -0.0470  0.0447 -0.0953
15185TIP3    H166970   3.022   6.405  15.385  0.6334  1.1167  0.6119
15185TIP3    H266971   2.990   6.447  15.527 -0.4687 -0.7284  0.9169
15186TIP3   OH266972   2.361   2.127  13.333 -0.4412 -0.1649  0.2835
15186TIP3    H166973   2.317   2.186  13.395 -0.8774  1.1261 -1.2350
15186TIP3    H266974   2.453   2.153  13.336 -0.8009  1.3930 -1.2108
15187TIP3   OH266975   6.323   3.877   1.817  0.0618 -0.2390 -0.1103
15187TIP3    H166976   6.398   3.865   1.759  1.1415 -1.0640  1.4157
15187TIP3    H266977   6.358   3.926   1.892 -1.0779 -0.0373  0.3067
15188TIP3   OH266978   1.412   3.685  11.654  0.7685 -0.1604 -0.2767
15188TIP3    H166979   1.376   3.699  11.566  0.7572  0.0622 -0.2366
15188TIP3    H266980   1.455   3.767  11.676  2.6082 -0.9293 -0.9364
15189TIP3   OH266981   3.787   0.731  14.217 -0.1968  0.2502  0.2203
15189TIP3    H166982   3.870   0.700  14.252 -0.0191  0.9273  0.4170
15189TIP3    H266983   3.807   0.756  14.127 -0.6760 -1.5837 -0.4129
15190TIP3   OH266984   5.038   2.120   1.638 -1.1553  0.4945 -0.0272
15190TIP3    H166985   4.988   2.201   1.646 -0.3594  0.8672  1.4021
15190TIP3    H266986   5.020   2.072   1.718  0.1472  0.2903  0.1602
15191TIP3   OH266987   1.780   4.691   2.552 -0.3479  0.0221  0.7791
15191TIP3    H166988   1.802   4.598   2.563  0.0614 -0.1002 -0.9482
15191TIP3    H266989   1.687   4.691   2.531 -0.4261  0.0371  1.1161
15192TIP3   OH266990   1.099   4.918  12.673 -0.2713 -0.1186  0.1715
15192TIP3    H166991   1.017   4.931  12.626 -0.2079 -1.5242 -0.3367
15192TIP3    H266992   1.078   4.934  12.764 -0.8363  0.6723 -0.0902
15193TIP3   OH266993   3.342   2.781  17.222 -0.5371 -0.0692 -0.4380
15193TIP3    H166994   3.334   2.833  17.302 -0.3384  1.3243 -1.3109
15193TIP3    H266995   3.416   2.722  17.239 -0.4672  0.2566  0.3841
15194TIP3   OH266996   2.513   6.089  16.992  0.1829  0.1791  0.0401
15194TIP3    H166997   2.609   6.094  16.987  0.2253 -0.6563  0.0264
15194TIP3    H266998   2.496   6.007  17.039 -0.5315  0.2429 -0.1126
15195TIP3   OH266999   4.889   3.249   0.630 -0.1589  0.1408  0.3370
15195TIP3    H167000   4.912   3.171   0.681 -1.2505 -0.9278 -0.7773
15195TIP3    H267001   4.806   3.278   0.666 -0.6763 -0.3140 -0.4635
15196TIP3   OH267002   0.968   1.331  16.435  0.8433 -1.1238  0.2684
15196TIP3    H167003   0.876   1.310  16.448  0.6061 -0.6345 -0.6047
15196TIP3    H267004   1.004   1.336  16.524 -0.1690 -0.3886  0.6473
15197TIP3   OH267005   2.722   0.684   3.120 -0.2306 -0.5991  0.4252
15197TIP3    H167006   2.660   0.720   3.184 -2.1927  0.7830 -2.1542
15197TIP3    H267007   2.802   0.735   3.132 -0.7270 -0.0616  1.4825
15198TIP3   OH267008   1.739   6.344   3.681  0.8675 -0.8530 -0.6340
15198TIP3    H167009   1.809   6.345   3.616  2.8755  1.3071  1.4605
15198TIP3    H267010   1.658   6.339   3.630  2.4087  0.1961 -3.2602
15199TIP3   OH267011   2.701   2.840   1.011 -0.1733  0.5714 -0.2552
15199TIP3    H167012   2.742   2.924   1.032  0.1729  0.1140  0.9080
15199TIP3    H267013   2.634   2.828   1.078  1.9969 -1.6414  1.5937
15200TIP3   OH267014   3.888   1.132   1.361 -0.4565 -0.4801  0.2714
15200TIP3    H167015   3.819   1.122   1.296  0.4146 -0.3037 -0.6860
15200TIP3    H267016   3.907   1.226   1.362 -3.0192  0.0990  3.4451
15201TIP3   OH267017   1.466   0.223   0.165 -0.1311  0.2518  0.2961
15201TIP3    H167018   1.452   0.132   0.192 -1.5673  0.2422 -0.4226
15201TIP3    H267019   1.544   0.219   0.109 -0.4715 -0.6278 -0.1400
15202TIP3   OH267020   5.420   3.654   1.202  0.8010  0.3483  0.5331
15202TIP3    H167021   5.430   3.708   1.281  1.6038  0.1907  0.5410
15202TIP3    H267022   5.345   3.692   1.157  0.9087  1.0141  0.9094
15203TIP3   OH267023   1.617   3.196   2.742  0.3547 -0.0704 -0.5241
15203TIP3    H167024   1.548   3.196   2.677 -0.2582 -1.4475  0.1097
15203TIP3    H267025   1.591   3.128   2.805  2.1573 -0.4440 -0.1570
15204TIP3   OH267026   1.732   5.969   5.937  0.0370  0.2588 -0.3399
15204TIP3    H167027   1.762   5.907   6.003 -1.4348 -0.2282 -0.1248
15204TIP3    H267028   1.803   5.972   5.874 -0.6780 -3.1856 -1.4213
15205TIP3   OH267029   0.909   2.278  12.622  0.1181  0.1616  0.5541
15205TIP3    H167030   0.866   2.300  12.539 -1.2468 -0.1287  1.1610
15205TIP3    H267031   0.837   2.258  12.682  1.0595  1.0871  2.0341
15206TIP3   OH267032   0.963   3.408  14.975 -0.6744 -0.3605  0.5271
15206TIP3    H167033   0.921   3.473  15.031 -0.2713 -0.0569  0.4805
15206TIP3    H267034   0.994   3.341  15.036 -0.3337 -0.0843  0.6658
15207TIP3   OH267035   5.515   3.289  17.018  0.0128  0.0071 -0.0700
15207TIP3    H167036   5.492   3.199  17.041  1.4192 -0.2024  0.5492
15207TIP3    H267037   5.436   3.340  17.038 -0.3157 -0.8769  0.9044
15208TIP3   OH267038   2.139   4.563   1.864  0.0764 -0.4274  0.5780
15208TIP3    H167039   2.049   4.535   1.875  0.1097 -0.4845  0.6980
15208TIP3    H267040   2.138   4.616   1.784  0.1708 -1.4307 -0.0881
15209TIP3   OH267041   4.156   6.184   1.542  0.0666 -0.0588  0.0753
15209TIP3    H167042   4.107   6.146   1.469 -0.0105  1.4536 -0.6866
15209TIP3    H267043   4.091   6.235   1.591  0.6447  1.0848 -0.3312
15210TIP3   OH267044   6.661   3.356  11.329 -0.0343 -0.0757 -0.0629
15210TIP3    H167045   6.720   3.429  11.308  0.6434 -0.7063 -0.3533
15210TIP3    H267046   6.644   3.314  11.245 -0.4543 -0.2388  0.1023
15211TIP3   OH267047   3.796   5.231  14.756 -0.3432  0.2073 -0.0526
15211TIP3    H167048   3.890   5.218  14.742 -0.6893 -0.8207 -1.6141
15211TIP3    H267049   3.772   5.161  14.817 -0.2118  0.0770 -0.1493
15212TIP3   OH267050   3.606   3.635  11.203 -0.6510  0.0372 -0.1855
15212TIP3    H167051   3.590   3.719  11.247 -2.4768  0.2539 -1.2130
15212TIP3    H267052   3.557   3.571  11.254 -1.2755 -0.0011 -0.8200
15213TIP3   OH267053   2.472   1.311   3.721 -0.8666 -0.5570 -0.1693
15213TIP3    H167054   2.433   1.368   3.654 -2.1170  0.1792  1.1606
15213TIP3    H267055   2.408   1.242   3.734  0.4299 -2.0499 -1.4162
15214TIP3   OH267056   3.409   3.769   5.023 -0.3663 -0.3481 -0.0455
15214TIP3    H167057   3.334   3.823   4.997  0.6835  0.5262 -1.2912
15214TIP3    H267058   3.402   3.763   5.119 -2.2311 -0.5914 -0.1782
15215TIP3   OH267059   6.082   3.679  13.948  0.4754 -0.2154 -0.2339
15215TIP3    H167060   6.117   3.753  13.898  0.1918 -0.6553 -1.0909
15215TIP3    H267061   5.997   3.711  13.979  0.2508 -0.2502 -0.7945
15216TIP3   OH267062   4.633   0.361  14.346 -0.0053 -0.2950 -0.6033
15216TIP3    H167063   4.649   0.284  14.292  2.5777 -1.4379  1.7239
15216TIP3    H267064   4.719   0.398  14.362 -0.8396  0.7497  1.6982
15217TIP3   OH267065   1.126   2.570  14.392  0.3355  0.1103 -0.3497
15217TIP3    H167066   1.145   2.513  14.467  0.3554 -0.6162 -0.9022
15217TIP3    H267067   1.032   2.588  14.399  0.5177  0.8183  0.3798
15218TIP3   OH267068   0.140   5.023  13.828 -0.1137 -0.0902  0.4416
15218TIP3    H167069   0.212   5.017  13.891 -0.7174  0.3071  1.1783
15218TIP3    H267070   0.169   5.090  13.765  1.8397 -2.6712 -1.5112
15219TIP3   OH267071   3.896   2.699   1.318  0.0109  0.5182  0.2853
15219TIP3    H167072   3.822   2.662   1.270  0.3962 -0.3647  0.3733
15219TIP3    H267073   3.922   2.631   1.379  0.7823  0.8970  0.3903
15220TIP3   OH267074   6.274   5.633   4.945  0.4532  0.0837 -0.4246
15220TIP3    H167075   6.181   5.656   4.933  0.7084  0.0302 -2.8249
15220TIP3    H267076   6.272   5.540   4.967 -0.0969  0.1970  0.0281
15221TIP3   OH267077   3.777   1.585  16.736  0.0556  0.5000 -0.0938
15221TIP3    H167078   3.689   1.551  16.748 -0.4903  0.8851 -2.6046
15221TIP3    H267079   3.833   1.508  16.732 -0.5543  0.1031 -1.1420
15222TIP3   OH267080   1.991   5.267  12.233 -0.5524  0.2495  0.1397
15222TIP3    H167081   1.929   5.277  12.160  0.2210  1.0706 -0.4122
15222TIP3    H267082   2.018   5.357  12.254  2.3058 -0.2364 -1.2235
15223TIP3   OH267083   1.246   1.391   2.329  0.4094 -0.5935  0.8332
15223TIP3    H167084   1.310   1.401   2.259 -1.2410 -1.3805 -0.8286
15223TIP3    H267085   1.298   1.396   2.410  2.5806 -1.3773 -0.4623
15224TIP3   OH267086   1.497   3.293  12.315 -0.2670 -0.8052  0.0352
15224TIP3    H167087   1.476   3.382  12.288 -1.1571 -1.1849 -0.5193
15224TIP3    H267088   1.480   3.292  12.409 -4.3732 -1.5506 -0.6262
15225TIP3   OH267089   5.632   4.982   3.392  0.3597 -0.6241  0.5651
15225TIP3    H167090   5.688   4.931   3.451  0.2875 -2.1799 -0.6675
15225TIP3    H267091   5.679   5.064   3.379  1.8457 -1.4931  0.3901
15226TIP3   OH267092   4.422   6.277   5.844  0.1227  0.6457  0.4696
15226TIP3    H167093   4.443   6.369   5.860  0.8440  0.9461 -1.9617
15226TIP3    H267094   4.341   6.279   5.794 -0.4906 -0.1026  1.4227
15227TIP3   OH267095   2.798   6.037  13.723 -0.5132 -0.2339 -0.4327
15227TIP3    H167096   2.874   6.047  13.665 -0.8992 -1.6181 -1.1895
15227TIP3    H267097   2.794   5.944  13.742 -2.8109 -0.4022 -1.4967
15228TIP3   OH267098   0.178   1.306   3.885 -0.0590 -0.0350 -0.4905
15228TIP3    H167099   0.171   1.393   3.847 -0.3182 -0.7067 -1.9947
15228TIP3    H267100   0.263   1.306   3.929  0.3175  0.6807 -1.2213
15229TIP3   OH267101   0.898   4.594  13.948  0.5014 -0.3304  0.1104
15229TIP3    H167102   0.913   4.565  13.858  0.3302 -0.5867  0.1631
15229TIP3    H267103   0.804   4.582  13.962  0.0461  2.2777 -0.5675
15230TIP3   OH267104   1.204   6.472  16.024  0.3120 -0.4211 -0.4395
15230TIP3    H167105   1.194   6.508  16.112 -1.7780  0.3862 -0.9716
15230TIP3    H267106   1.283   6.512  15.990 -1.0072  2.3829 -0.3656
15231TIP3   OH267107   4.109   5.136  14.054  0.4096 -0.6213 -0.8103
15231TIP3    H167108   4.201   5.109  14.050  0.1917 -1.4288 -0.5263
15231TIP3    H267109   4.084   5.150  13.962  1.0950  0.5896 -0.8227
15232TIP3   OH267110   2.385   2.217  16.881  0.1080 -0.4390 -0.2487
15232TIP3    H167111   2.422   2.257  16.960  1.1498 -1.9023  0.0181
15232TIP3    H267112   2.457   2.165  16.844 -1.6933 -3.4291  0.3295
15233TIP3   OH267113   5.928   4.154  10.907 -0.0633 -0.0335 -0.1740
15233TIP3    H167114   5.981   4.103  10.846 -2.2101 -1.0260 -1.2451
15233TIP3    H267115   5.948   4.118  10.993  1.1095 -0.2772 -0.5391
15234TIP3   OH267116   1.091   0.679   1.802  0.4564 -1.0370  0.0560
15234TIP3    H167117   1.043   0.645   1.878 -0.1401 -1.5012 -0.5212
15234TIP3    H267118   1.076   0.773   1.803  3.1931 -0.5490  2.4373
15235TIP3   OH267119   6.071   1.540   0.356 -0.0551  0.3048  0.4745
15235TIP3    H167120   6.109   1.462   0.317  0.4669 -0.2578  2.0355
15235TIP3    H267121   6.086   1.609   0.292  0.7847 -0.5788 -0.2928
15236TIP3   OH267122   2.814   2.432   6.042  0.6441  0.2686 -0.1498
15236TIP3    H167123   2.725   2.404   6.064  0.2291  1.4276 -0.3247
15236TIP3    H267124   2.835   2.500   6.106  1.6904 -0.5163  0.3535
15237TIP3   OH267125   6.379   6.549   4.540 -0.2212  0.5459  0.0178
15237TIP3    H167126   6.427   6.597   4.608  2.0025 -1.4444 -0.0855
15237TIP3    H267127   6.438   6.548   4.465 -0.8411 -1.0517 -0.4724
15238TIP3   OH267128   1.164   6.648  15.152  0.4599  0.5717 -0.4906
15238TIP3    H167129   1.168   6.661  15.057  1.3768  0.5556 -0.4559
15238TIP3    H267130   1.184   6.555  15.163  0.8268  0.6793 -0.2507
15239TIP3   OH267131   1.262   4.024  10.837 -0.2471 -0.3542  0.0045
15239TIP3    H167132   1.326   4.087  10.805 -1.0447  0.7982  0.6717
15239TIP3    H267133   1.224   4.064  10.915 -1.4284 -1.2280 -0.0976
15240TIP3   OH267134   4.669   1.546   3.524  0.4835 -0.1683  0.4911
15240TIP3    H167135   4.752   1.573   3.484  1.2141 -1.3419  1.1928
15240TIP3    H267136   4.663   1.600   3.603  1.7478 -1.7268  1.6823
15241TIP3   OH267137   3.326   0.507   3.702  0.0519 -0.1817  0.0721
15241TIP3    H167138   3.263   0.554   3.649  0.0488  0.0886  0.3146
15241TIP3    H267139   3.399   0.488   3.643  0.0048  0.0288 -0.0509
15242TIP3   OH267140   0.971   3.097   5.040 -0.2445  0.5462  0.2815
15242TIP3    H167141   1.058   3.109   5.000 -0.0154  0.6310  0.8015
15242TIP3    H267142   0.939   3.186   5.053 -0.2124  0.5230  0.5177
15243TIP3   OH267143   4.029   3.237  12.733  0.8840  0.1966  0.2358
15243TIP3    H167144   4.043   3.143  12.747  0.0792  0.2700  1.5955
15243TIP3    H267145   3.943   3.254  12.770  0.8712  1.4164 -0.3327
15244TIP3   OH267146   4.762   1.827   3.200 -0.3467 -0.8295  0.2018
15244TIP3    H167147   4.706   1.754   3.223  0.3665 -0.9914  1.4971
15244TIP3    H267148   4.850   1.789   3.194 -0.4156 -0.6516 -2.1557
15245TIP3   OH267149   0.430   5.491  15.669 -0.2881 -0.5398 -0.5498
15245TIP3    H167150   0.358   5.545  15.701  0.4576  0.4929 -0.6071
15245TIP3    H267151   0.478   5.466  15.747 -1.5485 -2.4767 -0.3536
15246TIP3   OH267152   3.255   2.088   3.986 -0.1614 -0.0861 -0.4178
15246TIP3    H167153   3.305   2.167   3.970  2.9961 -1.7836  0.6907
15246TIP3    H267154   3.166   2.110   3.958  0.7556  3.6207 -0.6533
15247TIP3   OH267155   4.777   5.655  15.771 -0.7365 -0.0576 -0.4818
15247TIP3    H167156   4.857   5.705  15.753 -0.1928 -0.4951  0.6734
15247TIP3    H267157   4.715   5.720  15.804  0.0829 -0.1811  1.3527
15248TIP3   OH267158   0.603   1.380  14.294 -0.2915 -0.5490  0.2895
15248TIP3    H167159   0.684   1.427  14.316  0.0673 -0.5792 -0.9183
15248TIP3    H267160   0.552   1.381  14.375 -0.0745  1.4849  0.4265
15249TIP3   OH267161   4.245   3.656   1.787  0.0772  0.1248  0.3235
15249TIP3    H167162   4.218   3.727   1.844  1.3796 -0.0359  1.1765
15249TIP3    H267163   4.275   3.587   1.847 -1.6087 -1.3437 -0.4705
15250TIP3   OH267164   2.058   3.555  15.699  0.1116  0.0287  0.1822
15250TIP3    H167165   2.099   3.559  15.786 -0.7496 -2.7169  0.7442
15250TIP3    H267166   1.969   3.587  15.712  0.2202  0.3452  0.1507
15251TIP3   OH267167   3.382   6.364   2.147 -0.4872 -0.4540  0.0926
15251TIP3    H167168   3.371   6.302   2.219  0.0491 -1.3162 -0.5672
15251TIP3    H267169   3.296   6.405   2.137 -0.4216  0.0744  1.5955
15252TIP3   OH267170   1.919   4.263  13.755 -0.3993 -0.2036  0.0397
15252TIP3    H167171   1.923   4.170  13.778 -0.4181 -0.5859 -1.4633
15252TIP3    H267172   1.833   4.291  13.785 -0.1359 -0.5123  1.0936
15253TIP3   OH267173   2.878   6.249   5.625  0.0056 -0.6703 -0.3510
15253TIP3    H167174   2.904   6.165   5.661 -1.3242 -1.2320 -0.6655
15253TIP3    H267175   2.865   6.305   5.701  0.7733 -0.7909 -0.1360
15254TIP3   OH267176   0.876   1.050   3.768  0.4895 -0.1036 -0.0471
15254TIP3    H167177   0.825   1.058   3.688  1.4368 -1.0118 -0.7539
15254TIP3    H267178   0.964   1.078   3.744  0.9747 -1.1580  0.4562
15255TIP3   OH267179   1.807   5.334  12.024 -0.4952 -0.1295  0.2768
15255TIP3    H167180   1.774   5.418  12.055  1.4943  1.4524 -1.8067
15255TIP3    H267181   1.728   5.287  11.996 -1.3948  1.9991 -0.8703
15256TIP3   OH267182   3.469   6.647   2.805 -0.5857 -0.4198 -0.5848
15256TIP3    H167183   3.535   6.603   2.860  0.7992 -1.3580 -2.9300
15256TIP3    H267184   3.466   6.736   2.839  0.7823 -0.7818  0.5531
15257TIP3   OH267185   6.653   5.805   2.569 -0.0263  0.7288 -0.0516
15257TIP3    H167186   6.658   5.709   2.575 -0.9094  0.7361  0.8790
15257TIP3    H267187   6.593   5.821   2.495  0.3983  0.5685 -0.4322
15258TIP3   OH267188   3.668   6.032  11.703 -0.2568 -0.3084 -0.4413
15258TIP3    H167189   3.694   5.974  11.775  1.0578  0.6969 -0.0874
15258TIP3    H267190   3.722   6.003  11.629  0.4827  0.5170 -0.2353
15259TIP3   OH267191   4.974   2.274   2.896  0.2655  0.0979  0.4897
15259TIP3    H167192   4.989   2.354   2.947 -0.6727  1.0526 -0.7262
15259TIP3    H267193   4.998   2.297   2.806 -3.6376  0.1956 -0.6136
15260TIP3   OH267194   4.579   2.505  14.735  0.6745 -0.1723 -0.2450
15260TIP3    H167195   4.577   2.541  14.823  0.0211  0.9810 -0.7264
15260TIP3    H267196   4.490   2.473  14.720  0.1670  1.6576 -1.3047
15261TIP3   OH267197   2.808   5.672   6.079 -0.2639  0.4241  0.0132
15261TIP3    H167198   2.807   5.767   6.065 -0.6962  0.3940 -0.1783
15261TIP3    H267199   2.762   5.659   6.162  0.3207  0.4275  0.3395
15262TIP3   OH267200   3.934   4.025   4.638 -0.1561  0.0638  0.1543
15262TIP3    H167201   3.919   4.107   4.684  2.7653 -0.5317  2.3364
15262TIP3    H267202   3.913   3.957   4.703  0.8812 -0.8382 -0.4338
15263TIP3   OH267203   0.222   0.890  10.992 -0.8412  0.1563  0.1647
15263TIP3    H167204   0.246   0.894  10.899  1.2285  1.5903  0.7081
15263TIP3    H267205   0.135   0.929  10.996 -0.4998  1.0946 -1.0500
15264TIP3   OH267206   2.947   0.421   2.908 -0.5257 -0.6911 -0.2352
15264TIP3    H167207   2.871   0.364   2.911 -0.8643 -0.3626 -2.1337
15264TIP3    H267208   2.920   0.495   2.853 -0.4799  1.8872  3.0310
15265TIP3   OH267209   4.365   4.565  13.575  1.1341  0.2289 -0.2120
15265TIP3    H167210   4.456   4.586  13.599  1.5761  1.4753 -2.7831
15265TIP3    H267211   4.357   4.594  13.484 -2.0426  0.7196  0.1593
15266TIP3   OH267212   1.280   5.456   4.496  0.2345  0.5249 -0.9686
15266TIP3    H167213   1.300   5.550   4.499 -1.3315  0.9050 -2.0868
15266TIP3    H267214   1.284   5.434   4.403 -0.0451 -0.3936 -0.7638
15267TIP3   OH267215   3.978   3.406   0.541  0.2705 -0.2867 -0.3217
15267TIP3    H167216   4.005   3.418   0.450 -0.5849  2.3560 -0.2682
15267TIP3    H267217   4.049   3.444   0.593 -0.0070 -0.2711  0.0552
15268TIP3   OH267218   1.247   5.286  12.693  0.4814 -0.6210 -0.4264
15268TIP3    H167219   1.237   5.230  12.617  0.9717  1.0809 -1.7682
15268TIP3    H267220   1.158   5.315  12.714  0.5907  0.9129 -1.9295
15269TIP3   OH267221   4.980   1.995  13.631 -0.5433 -0.0606  0.4172
15269TIP3    H167222   4.909   2.015  13.570  0.3490  1.5632 -0.1125
15269TIP3    H267223   4.937   1.952  13.705 -1.9270 -0.0129 -0.3449
15270TIP3   OH267224   6.778   5.040   0.593 -0.2885 -0.1954 -0.3232
15270TIP3    H167225   6.719   5.049   0.668 -1.9755 -0.0652 -1.6185
15270TIP3    H267226   6.865   5.061   0.628 -1.2323  1.2401  1.2853
15271TIP3   OH267227   5.812   2.726   6.612  0.2327 -0.2247 -0.3889
15271TIP3    H167228   5.722   2.755   6.598 -0.2327 -1.0593  0.8076
15271TIP3    H267229   5.815   2.637   6.578  0.4641 -0.3885  0.0514
15272TIP3   OH267230   4.921   2.923  12.991  0.6210 -0.3507 -0.1770
15272TIP3    H167231   4.985   2.859  12.960  0.1739 -0.6345 -0.5242
15272TIP3    H267232   4.899   2.895  13.080  1.7852  0.3712  0.3617
15273TIP3   OH267233   1.806   3.958   4.040 -0.3021  0.1921 -0.5712
15273TIP3    H167234   1.896   3.954   4.072  0.2425 -0.3000 -2.0941
15273TIP3    H267235   1.782   3.867   4.022 -1.3088  0.2614  0.3525
15274TIP3   OH267236   0.068   1.574   5.274 -0.2836 -0.0850  0.1401
15274TIP3    H167237   0.001   1.624   5.227 -0.4799  0.9051  1.4479
15274TIP3    H267238   0.055   1.596   5.366  2.3463  0.7534  0.3609
15275TIP3   OH267239   5.553   2.253   2.469 -0.0366 -0.1260  0.3426
15275TIP3    H167240   5.563   2.188   2.538  0.1485 -0.1901  0.2563
15275TIP3    H267241   5.628   2.239   2.412  0.4297  0.6683  0.7483
15276TIP3   OH267242   0.955   4.763  10.232 -0.5961 -0.7964 -0.9149
15276TIP3    H167243   1.044   4.766  10.197 -0.3061 -0.3107 -0.1621
15276TIP3    H267244   0.946   4.675  10.268 -0.5635 -0.9795 -1.3536
15277TIP3   OH267245   6.060   3.292   2.193  0.7210  0.4350 -0.0795
15277TIP3    H167246   6.018   3.260   2.113 -0.1289  0.8093  0.2188
15277TIP3    H267247   6.152   3.302   2.169  1.4328 -4.0668  0.3112
15278TIP3   OH267248   2.111   0.172  11.914  0.2031  0.8854 -0.6899
15278TIP3    H167249   2.142   0.257  11.881 -1.5548  1.7732 -0.1307
15278TIP3    H267250   2.153   0.163  11.999  0.0991  1.3947 -0.5815
15279TIP3   OH267251   0.267   5.056   2.958 -0.3231 -0.9858 -0.5032
15279TIP3    H167252   0.281   5.143   2.995 -0.2530 -1.6314  1.0342
15279TIP3    H267253   0.189   5.066   2.903 -0.4656 -0.0006 -0.1355
15280TIP3   OH267254   5.619   1.070   4.093  0.3223 -0.4751  0.1502
15280TIP3    H167255   5.604   1.165   4.094  2.0310 -0.1814 -0.9379
15280TIP3    H267256   5.585   1.041   4.009  1.4812 -0.5324 -0.3064
15281TIP3   OH267257   1.098   0.722  15.041 -0.2015  0.3731 -0.6562
15281TIP3    H167258   1.089   0.640  15.090  0.7899  1.0563  0.6959
15281TIP3    H267259   1.034   0.715  14.971 -2.9508  0.1449  1.7974
15282TIP3   OH267260   6.517   3.628   5.467 -0.0875  0.0845 -0.4467
15282TIP3    H167261   6.468   3.657   5.389 -0.6771 -1.1988 -0.5561
15282TIP3    H267262   6.608   3.654   5.448 -0.4905  1.2650 -0.8343
15283TIP3   OH267263   2.848   6.473  13.537  0.2132  0.1339 -0.9715
15283TIP3    H167264   2.915   6.537  13.563 -0.9803  1.0964 -0.1968
15283TIP3    H267265   2.784   6.476  13.608 -1.0851 -0.1414 -2.1200
15284TIP3   OH267266   0.754   6.452  15.001  0.3790  0.6097 -0.7144
15284TIP3    H167267   0.777   6.413  14.917  0.3583  0.2730 -0.5617
15284TIP3    H267268   0.806   6.404  15.066  0.9592  1.3574 -0.6054
15285TIP3   OH267269   0.518   2.390  11.325  0.1142 -0.1629  0.1728
15285TIP3    H167270   0.471   2.316  11.285  1.3619 -0.2903 -1.1121
15285TIP3    H267271   0.529   2.365  11.416 -0.7803 -0.8946  0.0948
15286TIP3   OH267272   6.237   0.263   3.658 -0.0887  0.0697 -0.0152
15286TIP3    H167273   6.189   0.275   3.577  0.0736 -0.6318 -0.2174
15286TIP3    H267274   6.312   0.209   3.634 -0.8830 -1.4588  0.9016
15287TIP3   OH267275   4.673   3.644   1.881 -0.0489 -0.3502  0.6652
15287TIP3    H167276   4.639   3.560   1.852 -2.2489  0.5621  0.5018
15287TIP3    H267277   4.698   3.630   1.973 -2.2525 -0.6968  1.2438
15288TIP3   OH267278   6.436   3.536   3.372 -0.2138 -0.8521  0.1361
15288TIP3    H167279   6.353   3.488   3.370 -0.8623  0.2644 -0.3049
15288TIP3    H267280   6.500   3.474   3.339 -1.3024 -0.9007 -1.9429
15289TIP3   OH267281   3.347   2.295  17.133 -0.1757  0.4043 -0.1877
15289TIP3    H167282   3.368   2.276  17.225 -1.6929 -1.5059 -0.1978
15289TIP3    H267283   3.299   2.378  17.136  2.0240  1.6957  0.4461
15290TIP3   OH267284   5.699   3.435   5.881  0.1194  0.4544  0.3066
15290TIP3    H167285   5.772   3.492   5.902 -0.0231  0.1475  1.6648
15290TIP3    H267286   5.705   3.421   5.786  1.1046  1.3902  0.2342
15291TIP3   OH267287   0.661   5.940   2.419  0.4237  0.1251  0.0539
15291TIP3    H167288   0.631   5.984   2.499  0.4660  0.1873  0.0358
15291TIP3    H267289   0.633   5.849   2.430 -1.5186  0.5976 -0.8612
15292TIP3   OH267290   3.479   1.589   4.430 -0.7254 -0.4479 -0.2027
15292TIP3    H167291   3.439   1.590   4.517 -0.2051 -1.3089  0.0483
15292TIP3    H267292   3.431   1.520   4.383 -1.0597  0.0694 -0.6292
15293TIP3   OH267293   1.793   3.194   3.651  0.2366  0.4205 -0.3757
15293TIP3    H167294   1.785   3.210   3.745  0.5659 -2.6000  0.1933
15293TIP3    H267295   1.711   3.227   3.614 -1.5716 -1.8187  1.4812
15294TIP3   OH267296   1.264   6.226  14.211  0.2046 -0.5420 -0.4746
15294TIP3    H167297   1.263   6.304  14.266  2.5920 -0.8739  0.0686
15294TIP3    H267298   1.184   6.233  14.158 -0.5497  1.3155  0.8642
15295TIP3   OH267299   3.526   6.461   1.157  0.2595 -0.0968  0.4709
15295TIP3    H167300   3.585   6.516   1.105  0.3129  1.0851  1.7551
15295TIP3    H267301   3.572   6.378   1.166 -0.4426 -0.8968 -2.7297
15296TIP3   OH267302   0.124   5.894   4.138  0.0995  0.3238 -0.2858
15296TIP3    H167303   0.072   5.922   4.213  1.3266  0.3644  0.5675
15296TIP3    H267304   0.066   5.838   4.087 -0.8819  0.6566  0.4557
15297TIP3   OH267305   5.638   6.776   2.071 -0.1739  0.2773  0.3228
15297TIP3    H167306   5.586   6.727   2.135 -0.8620 -0.3477 -0.6994
15297TIP3    H267307   5.729   6.764   2.100 -0.4720 -0.1107  1.1045
15298TIP3   OH267308   1.138   5.021   4.626  0.4429 -0.9781  0.7336
15298TIP3    H167309   1.117   4.928   4.633 -0.0263 -0.9027  0.3227
15298TIP3    H267310   1.154   5.036   4.533 -0.2188 -0.4889  0.6939
15299TIP3   OH267311   0.990   5.802  13.181 -0.0633 -0.2004  0.1245
15299TIP3    H167312   0.963   5.858  13.108 -0.6753 -0.0162  0.4915
15299TIP3    H267313   1.061   5.749  13.145 -0.6469 -0.4087 -0.7349
15300TIP3   OH267314   5.503   1.551   4.357  0.0590 -0.0204 -0.0872
15300TIP3    H167315   5.408   1.549   4.350  0.0502  0.3432 -0.1138
15300TIP3    H267316   5.521   1.519   4.446 -0.1529  0.9929  0.3276
15301TIP3   OH267317   0.408   0.761  15.371 -0.0325  0.1777 -0.1608
15301TIP3    H167318   0.374   0.673  15.387  0.1340  0.0945 -0.2682
15301TIP3    H267319   0.411   0.801  15.458  0.2551 -0.0541 -0.0644
15302TIP3   OH267320   2.115   5.541  16.676 -0.0646  0.2487  0.1274
15302TIP3    H167321   2.157   5.613  16.630 -1.2051  1.1748  0.5225
15302TIP3    H267322   2.114   5.568  16.768 -0.1911 -0.4199  0.3271
15303TIP3   OH267323   4.690   2.248   3.470  0.5452 -0.4578 -0.0592
15303TIP3    H167324   4.704   2.156   3.450 -0.5296 -0.1784 -2.1944
15303TIP3    H267325   4.646   2.284   3.393  0.5591  1.7496  0.9034
15304TIP3   OH267326   0.823   1.140  11.193 -0.0164 -0.0732  0.1563
15304TIP3    H167327   0.847   1.140  11.101  0.9894 -2.0156  0.3865
15304TIP3    H267328   0.794   1.050  11.211  3.1100 -0.7182  2.5193
15305TIP3   OH267329   3.300   1.587  16.343 -1.0410  0.3047 -0.2783
15305TIP3    H167330   3.351   1.555  16.269  0.3667  0.3569  0.6454
15305TIP3    H267331   3.212   1.552  16.329 -0.7880  0.2925 -1.9407
15306TIP3   OH267332   5.502   3.674  17.233  0.2703 -0.0467  0.0742
15306TIP3    H167333   5.453   3.734  17.176  3.5297  1.8285 -0.8574
15306TIP3    H267334   5.507   3.592  17.183 -1.0978  0.0321 -0.2138
15307TIP3   OH267335   5.710   3.801   3.238 -0.0402 -0.0113 -0.2697
15307TIP3    H167336   5.629   3.831   3.280 -0.8996 -1.9259 -0.5059
15307TIP3    H267337   5.706   3.839   3.150 -0.9355 -0.4931 -0.4436
15308TIP3   OH267338   2.037   4.519  16.049  0.4268  0.3346  0.0381
15308TIP3    H167339   1.962   4.517  15.990  0.3245  0.5684  0.1626
15308TIP3    H267340   2.042   4.609  16.080  0.0130  0.0376  0.9832
15309TIP3   OH267341   5.098   4.778  15.209  0.1417 -0.0407 -0.1515
15309TIP3    H167342   5.153   4.711  15.167 -0.1866 -0.5536  0.2293
15309TIP3    H267343   5.063   4.735  15.287 -0.8825  0.2381 -0.4407
15310TIP3   OH267344   0.414   1.211   1.439  0.4739 -0.2460  0.1853
15310TIP3    H167345   0.483   1.218   1.373  0.8721  0.6043  0.6836
15310TIP3    H267346   0.369   1.129   1.418  1.0477 -0.3400 -0.7052
15311TIP3   OH267347   3.448   5.020  11.594 -0.1631 -0.3254  0.5450
15311TIP3    H167348   3.376   5.082  11.605  0.0191 -0.2756  1.4310
15311TIP3    H267349   3.406   4.939  11.564 -0.3517  0.3649 -1.1160
15312TIP3   OH267350   2.705   3.518  12.573 -0.0895  0.2011  0.0885
15312TIP3    H167351   2.699   3.422  12.573 -3.7526  0.3551  0.4360
15312TIP3    H267352   2.752   3.539  12.492 -2.0550 -1.7875 -1.6387
15313TIP3   OH267353   3.350   1.834   3.016  0.0518  0.9094  0.4463
15313TIP3    H167354   3.359   1.831   2.921  0.5154  1.0754  0.4837
15313TIP3    H267355   3.433   1.800   3.050 -0.9249 -1.2135  0.7958
15314TIP3   OH267356   0.888   4.485   4.332  0.1674 -0.1140  0.2280
15314TIP3    H167357   0.836   4.531   4.397 -0.8997  0.8498 -1.2910
15314TIP3    H267358   0.974   4.473   4.374 -0.7519 -0.3001  2.1288
15315TIP3   OH267359   1.052   3.735   5.755  0.2550  0.3958 -0.2459
15315TIP3    H167360   0.980   3.741   5.819 -1.1230  1.4656 -1.8649
15315TIP3    H267361   1.056   3.822   5.716  0.6511 -0.4441 -2.0958
15316TIP3   OH267362   6.200   0.097  12.543  1.0377 -0.4519 -0.1378
15316TIP3    H167363   6.115   0.053  12.543  1.1102 -0.5891  0.5975
15316TIP3    H267364   6.234   0.083  12.454 -0.7323  1.5827 -1.1937
15317TIP3   OH267365   3.174   3.703   4.050 -0.7008 -0.0305  0.2540
15317TIP3    H167366   3.137   3.761   3.984  0.2250  0.1446 -0.1174
15317TIP3    H267367   3.260   3.740   4.069  0.6352 -2.2275 -1.2448
15318TIP3   OH267368   0.989   4.913  15.832 -0.1018  0.2458  0.2071
15318TIP3    H167369   1.056   4.889  15.768 -0.5669  0.0420 -0.2087
15318TIP3    H267370   0.962   5.001  15.807 -0.4591  0.0694 -0.0230
15319TIP3   OH267371   0.958   2.285  13.551  0.4174  0.0959 -0.1565
15319TIP3    H167372   0.949   2.299  13.457  1.3215  0.7749 -0.1454
15319TIP3    H267373   0.873   2.308  13.588 -0.4443 -1.6717 -0.9702
15320TIP3   OH267374   4.600   0.139  12.235  0.9336 -0.4004  0.7428
15320TIP3    H167375   4.520   0.113  12.280  0.4144 -0.7283 -0.3538
15320TIP3    H267376   4.650   0.188  12.301 -0.4563  0.3636  1.2424
15321TIP3   OH267377   0.474   6.016  11.373 -0.6399 -0.0820 -0.4190
15321TIP3    H167378   0.433   5.932  11.351  0.3281 -0.6775  0.0094
15321TIP3    H267379   0.568   5.998  11.369 -0.4259  0.5558  1.2601
15322TIP3   OH267380   4.467   5.324   0.604 -0.1165 -0.0062  0.1896
15322TIP3    H167381   4.557   5.340   0.633  0.2918 -0.0213 -1.0551
15322TIP3    H267382   4.453   5.231   0.618 -0.1500  0.1103  0.9561
15323TIP3   OH267383   6.312   1.776   0.394 -0.1397 -0.0796 -0.0578
15323TIP3    H167384   6.359   1.853   0.425  0.5460  0.1731 -1.6660
15323TIP3    H267385   6.236   1.811   0.348 -1.4073 -0.4635  1.6862
15324TIP3   OH267386   6.346   0.141   2.385  0.1404 -0.3555  0.0291
15324TIP3    H167387   6.405   0.212   2.358  0.5269 -0.3001  1.0130
15324TIP3    H267388   6.349   0.142   2.480 -2.6357  0.6210  0.1403
15325TIP3   OH267389   0.951   0.187   1.572 -1.0940  0.0787 -0.2948
15325TIP3    H167390   0.968   0.150   1.658  1.0824  1.0665 -0.2809
15325TIP3    H267391   0.884   0.254   1.588  0.1451  1.0786  0.8439
15326TIP3   OH267392   0.532   6.627   3.085  0.3255 -0.2030  0.3078
15326TIP3    H167393   0.595   6.567   3.126  0.6603 -0.6262 -0.7951
15326TIP3    H267394   0.454   6.623   3.141  1.1085 -0.0183  1.4391
15327TIP3   OH267395   6.134   3.605   3.423  0.4559  0.1750  0.6526
15327TIP3    H167396   6.099   3.516   3.429 -1.7943  1.0047  0.4914
15327TIP3    H267397   6.147   3.632   3.514 -1.4093  0.6153  0.8084
15328TIP3   OH267398   6.269   5.401   2.920  0.0309 -0.0054 -0.5299
15328TIP3    H167399   6.320   5.336   2.872 -0.0902 -0.3780 -0.1565
15328TIP3    H267400   6.333   5.468   2.945  0.2542 -0.2377 -0.4684
15329TIP3   OH267401   6.484   0.934   0.453  0.1140  0.0712 -0.3154
15329TIP3    H167402   6.575   0.954   0.432 -0.3173 -0.6036 -2.9946
15329TIP3    H267403   6.451   1.013   0.496  0.9049  1.7873 -2.7612
15330TIP3   OH267404   1.053   3.565   5.511  0.1778 -0.7266 -0.0973
15330TIP3    H167405   0.988   3.497   5.530 -2.3679  1.2096 -1.5366
15330TIP3    H267406   1.045   3.627   5.584 -1.1352  0.5835 -1.3164
15331TIP3   OH267407   1.134   6.222   3.995 -0.5829 -0.2502 -0.1530
15331TIP3    H167408   1.208   6.187   3.945  1.0268  0.5903  1.6124
15331TIP3    H267409   1.128   6.314   3.969 -0.7425 -0.2058  0.0373
15332TIP3   OH267410   3.471   3.389  11.306  0.3131  0.6241  0.1511
15332TIP3    H167411   3.392   3.413  11.259  0.7762  1.0670 -0.3949
15332TIP3    H267412   3.515   3.326  11.249 -0.1336 -0.3850  0.8958
15333TIP3   OH267413   3.018   2.358   2.837 -0.2005  0.0211 -0.3252
15333TIP3    H167414   3.000   2.350   2.931  0.4383 -0.2240 -0.2261
15333TIP3    H267415   3.066   2.441   2.829  0.7147 -0.5111 -0.3039
15334TIP3   OH267416   1.158   5.198  14.869  0.6041  0.6299 -0.1335
15334TIP3    H167417   1.124   5.117  14.907 -1.0531  0.9098 -0.9880
15334TIP3    H267418   1.080   5.246  14.841  1.5898  2.4076  0.1178
15335TIP3   OH267419   3.950   4.874   1.911 -0.0444  0.0932 -0.0782
15335TIP3    H167420   4.006   4.797   1.902  2.0457  1.6848 -1.2476
15335TIP3    H267421   3.871   4.853   1.861 -1.2956 -2.8483  2.9773
15336TIP3   OH267422   4.655   0.831  13.620 -0.1950 -0.3938 -0.0040
15336TIP3    H167423   4.656   0.879  13.703 -1.3782 -0.0440 -0.1828
15336TIP3    H267424   4.600   0.884  13.562  1.5414 -0.0637 -1.3655
15337TIP3   OH267425   4.364   6.560   1.365  0.8574 -0.0295  0.4242
15337TIP3    H167426   4.430   6.522   1.307 -0.3016 -1.2889 -0.1327
15337TIP3    H267427   4.368   6.507   1.445 -0.9350 -1.5682 -0.4482
15338TIP3   OH267428   6.567   4.718  16.007 -0.2389 -0.7630 -0.2004
15338TIP3    H167429   6.659   4.742  15.993 -0.2939  0.3773  1.3953
15338TIP3    H267430   6.552   4.648  15.943  0.9643  0.8665 -2.3346
15339TIP3   OH267431   6.201   4.565  11.478 -0.1052 -0.7418  0.1841
15339TIP3    H167432   6.290   4.599  11.475 -0.1757 -0.5416  0.3480
15339TIP3    H267433   6.162   4.593  11.395  0.0086 -0.8987  0.0772
15340TIP3   OH267434   4.914   5.791   5.680 -0.6725 -0.2244 -0.5346
15340TIP3    H167435   5.006   5.817   5.689 -1.3337  2.0815 -0.0396
15340TIP3    H267436   4.906   5.711   5.732  0.8736 -0.0196  0.0368
15341TIP3   OH267437   3.627   3.891  11.366 -0.3070  0.1776  0.5097
15341TIP3    H167438   3.696   3.941  11.322 -1.4510  2.1988  0.9273
15341TIP3    H267439   3.645   3.903  11.459 -1.6397  1.3939  0.6373
15342TIP3   OH267440   4.360   2.203  16.829  0.4864  0.6045  0.3111
15342TIP3    H167441   4.272   2.241  16.833 -0.8469 -2.3612  1.0662
15342TIP3    H267442   4.413   2.259  16.885 -1.5293  1.0338  1.8676
15343TIP3   OH267443   4.424   5.668  12.857 -0.0197 -0.2158  0.1012
15343TIP3    H167444   4.499   5.714  12.894 -0.1970  0.3358 -0.2326
15343TIP3    H267445   4.351   5.728  12.868 -0.7228 -1.3084  1.7318
15344TIP3   OH267446   0.527   1.741  14.249 -0.2720  0.1507 -0.1626
15344TIP3    H167447   0.538   1.704  14.161 -0.9818 -2.6839  0.8754
15344TIP3    H267448   0.432   1.752  14.259 -0.0781  2.3872 -0.4534
15345TIP3   OH267449   0.915   0.983  13.231  0.2771 -0.2354  0.1018
15345TIP3    H167450   0.906   1.004  13.324 -2.3775  2.4691 -0.6988
15345TIP3    H267451   0.998   1.024  13.206  1.2669 -1.4145  1.3359
15346TIP3   OH267452   0.750   2.575   4.950  0.0523  0.0298  0.6436
15346TIP3    H167453   0.795   2.631   5.014  0.5560 -0.7771  0.9998
15346TIP3    H267454   0.692   2.520   5.003 -2.5213  2.0980  0.0718
15347TIP3   OH267455   3.875   4.298  13.358  0.0986  0.3366 -0.3942
15347TIP3    H167456   3.804   4.270  13.300 -1.5879  1.8461  0.8907
15347TIP3    H267457   3.934   4.348  13.301 -1.1696  1.1951 -0.9785
15348TIP3   OH267458   5.111   5.740   1.438 -0.1717  0.8219  0.0453
15348TIP3    H167459   5.018   5.726   1.457 -0.2166 -0.1624 -0.7867
15348TIP3    H267460   5.114   5.751   1.343  0.6225  0.2609 -0.0024
15349TIP3   OH267461   3.004   2.458  14.323  0.2330 -0.3488  0.1469
15349TIP3    H167462   3.076   2.415  14.277  0.3264 -1.2957  1.1360
15349TIP3    H267463   3.000   2.413  14.408 -1.1767  0.0470  0.3092
15350TIP3   OH267464   4.113   0.038   2.080 -0.5505 -0.1021  0.1082
15350TIP3    H167465   4.127  -0.048   2.042 -1.0696 -0.0435 -0.2292
15350TIP3    H267466   4.193   0.087   2.061 -0.4638 -0.3452 -0.1503
15351TIP3   OH267467   1.201   4.490   3.478 -0.2197 -0.2260 -0.0975
15351TIP3    H167468   1.184   4.430   3.551  2.7063  1.1384  1.7810
15351TIP3    H267469   1.163   4.573   3.506  0.2905  0.1253 -0.4379
15352TIP3   OH267470   5.308   6.424  11.106  0.1696  0.4598  0.2840
15352TIP3    H167471   5.225   6.471  11.115 -0.9716 -1.3813 -0.2992
15352TIP3    H267472   5.373   6.483  11.144 -1.5647  1.4746  1.7734
15353TIP3   OH267473   5.604   1.449  12.456 -0.3960  0.0799 -0.0439
15353TIP3    H167474   5.620   1.418  12.545 -1.5898 -0.4247  0.0093
15353TIP3    H267475   5.629   1.376  12.400 -0.9752 -0.1136 -0.0483
15354TIP3   OH267476   3.757   4.828   1.742 -0.1007 -0.3767  0.1776
15354TIP3    H167477   3.835   4.786   1.705  0.2121 -1.0277  1.5025
15354TIP3    H267478   3.727   4.888   1.675  1.1866 -0.5834 -0.6008
15355TIP3   OH267479   2.900   4.486   5.643  0.4334  0.7541  0.2543
15355TIP3    H167480   2.841   4.415   5.671  1.2602 -0.2915 -0.6443
15355TIP3    H267481   2.968   4.488   5.710  0.4480  0.6631  0.2425
15356TIP3   OH267482   3.976   3.135  11.617  0.6664  0.3787  0.0214
15356TIP3    H167483   4.002   3.204  11.555 -0.4829  0.7463 -0.0688
15356TIP3    H267484   3.930   3.182  11.687  0.2976 -0.2407  0.1991
15357TIP3   OH267485   3.753   4.965  16.616  0.0809 -0.2346  0.2216
15357TIP3    H167486   3.733   5.037  16.676 -1.6312 -0.8888  0.4795
15357TIP3    H267487   3.811   4.907  16.666  1.2051  0.7898  0.1263
15358TIP3   OH267488   1.232   5.266  11.623 -0.4737  0.5050 -0.0325
15358TIP3    H167489   1.269   5.248  11.709  0.3742  0.8063 -0.3301
15358TIP3    H267490   1.290   5.332  11.585 -0.9795  0.5493 -0.7345
15359TIP3   OH267491   5.370   1.989   2.692  0.4784 -0.6347 -0.7014
15359TIP3    H167492   5.295   2.024   2.644  0.3148  0.8410  0.6065
15359TIP3    H267493   5.435   2.059   2.690  0.2718 -0.3306  1.6494
15360TIP3   OH267494   2.589   5.911   1.552  0.6178  0.2528 -0.0457
15360TIP3    H167495   2.636   5.994   1.564 -0.4670  0.7364  1.0293
15360TIP3    H267496   2.567   5.884   1.641 -1.1772  0.0718 -0.5251
15361TIP3   OH267497   4.774   5.830  16.602  0.1155  0.3581  0.0327
15361TIP3    H167498   4.859   5.799  16.634  1.0370  1.4699 -1.2582
15361TIP3    H267499   4.768   5.920  16.634 -0.6444  0.2207  0.2674
15362TIP3   OH267500   1.982   1.022  16.861 -0.3432  0.2085  0.0425
15362TIP3    H167501   2.068   1.059  16.883  0.2287 -0.0776 -1.5809
15362TIP3    H267502   1.941   1.090  16.807 -1.1974  0.3848  0.9011
15363TIP3   OH267503   3.700   4.085  10.681 -0.1707 -0.8083 -0.3200
15363TIP3    H167504   3.678   4.176  10.701 -0.0427 -0.6819 -0.7278
15363TIP3    H267505   3.621   4.049  10.640  0.0016 -0.6776 -0.7773
15364TIP3   OH267506   5.398   0.313   0.506 -0.3897  0.1413 -0.5823
15364TIP3    H167507   5.458   0.246   0.474  0.4097  0.5898 -0.0519
15364TIP3    H267508   5.408   0.386   0.445  1.3949  1.1309  0.8294
15365TIP3   OH267509   5.295   6.568  12.744  0.1980 -0.2246  0.8158
15365TIP3    H167510   5.352   6.641  12.720 -0.1264 -0.3273 -0.2813
15365TIP3    H267511   5.238   6.556  12.669 -0.1646 -1.2118  1.2389
15366TIP3   OH267512   5.266   0.076  12.134  0.3476  0.4964 -0.0285
15366TIP3    H167513   5.339   0.127  12.169  2.4478 -1.8051 -0.9669
15366TIP3    H267514   5.254   0.108  12.044 -1.9109  3.0439  1.1025
15367TIP3   OH267515   2.492   3.517   2.983 -0.3604 -0.5179  0.3322
15367TIP3    H167516   2.441   3.532   3.063 -0.7575 -0.5613  0.0901
15367TIP3    H267517   2.465   3.587   2.924  1.4024  0.6946  0.9353
15368TIP3   OH267518   4.717   6.413   1.718 -0.0397 -0.1718 -0.0342
15368TIP3    H167519   4.702   6.393   1.810 -1.5542 -1.2028 -0.4931
15368TIP3    H267520   4.810   6.437   1.713  0.4615 -1.7493  1.4686
15369TIP3   OH267521   3.407   1.658  14.835 -0.3492 -0.8888 -0.4299
15369TIP3    H167522   3.494   1.669  14.874  0.1830 -0.6837 -1.6677
15369TIP3    H267523   3.421   1.599  14.761 -1.0626  0.0217 -1.3080
15370TIP3   OH267524   0.708   4.822  11.528 -0.0383 -0.2991  0.6633
15370TIP3    H167525   0.781   4.859  11.479 -2.6246  2.2138 -1.4838
15370TIP3    H267526   0.744   4.803  11.615  3.3442  0.0007 -0.5884
15371TIP3   OH267527   5.520   4.596   5.192 -0.5459  0.6402  0.2921
15371TIP3    H167528   5.601   4.618   5.145 -1.7360  0.1724 -1.9968
15371TIP3    H267529   5.509   4.667   5.255  1.3471  0.9846  0.2721
15372TIP3   OH267530   1.481   3.825   3.103 -0.5099 -0.1140 -0.7776
15372TIP3    H167531   1.518   3.824   3.192  0.5081 -0.8165 -1.2074
15372TIP3    H267532   1.394   3.788   3.114 -0.6971  0.5402  0.0629
15373TIP3   OH267533   5.550   5.515   3.138 -0.1817 -0.4027  0.4251
15373TIP3    H167534   5.548   5.555   3.051 -0.9253 -1.5161 -0.0759
15373TIP3    H267535   5.564   5.588   3.198  0.5354  0.3443 -0.6479
15374TIP3   OH267536   1.807   0.905   6.780  0.4282 -0.3721  0.8493
15374TIP3    H167537   1.831   0.867   6.864 -3.4298  0.1518  2.2744
15374TIP3    H267538   1.730   0.857   6.752 -0.9666  2.3716 -0.2424
15375TIP3   OH267539   6.406   5.563   0.730  0.3766 -0.4965  0.0012
15375TIP3    H167540   6.360   5.574   0.814  0.6794  0.6576  0.0192
15375TIP3    H267541   6.494   5.536   0.755  0.1884 -1.1017  0.0193
15376TIP3   OH267542   4.058   4.231  11.997  0.1846 -0.1476 -0.2928
15376TIP3    H167543   4.087   4.271  12.079 -2.8232  1.7394 -0.0347
15376TIP3    H267544   4.109   4.275  11.929 -0.6153  1.7413  0.2720
15377TIP3   OH267545   5.898   4.174   2.629  0.3765  0.0675 -0.1695
15377TIP3    H167546   5.817   4.153   2.676  1.4031  0.8856  2.0100
15377TIP3    H267547   5.879   4.153   2.537 -2.0835 -0.3494  0.4184
15378TIP3   OH267548   6.080   3.882  13.446 -0.2739 -0.4789  0.4015
15378TIP3    H167549   6.108   3.822  13.377 -0.0403 -0.8396  0.8033
15378TIP3    H267550   5.988   3.900  13.427  0.2321  0.7603 -0.9657
15379TIP3   OH267551   5.837   0.090   3.636 -0.4380 -0.7328 -0.2768
15379TIP3    H167552   5.925   0.121   3.616 -0.2555 -0.3617  1.0430
15379TIP3    H267553   5.781   0.166   3.622 -0.5523 -0.9753 -1.1390
15380TIP3   OH267554   1.493   3.657   1.715 -0.1485 -0.0366  0.2588
15380TIP3    H167555   1.416   3.666   1.773  0.6966  0.6804  1.3000
15380TIP3    H267556   1.532   3.573   1.739  0.1117  0.1873  0.6228
15381TIP3   OH267557   3.199   4.518  13.188  0.0779  0.7056 -0.1814
15381TIP3    H167558   3.272   4.462  13.162  0.9582  2.7375 -2.3075
15381TIP3    H267559   3.166   4.555  13.105 -3.6418 -0.4688  0.6808
15382TIP3   OH267560   4.900   5.818   3.273  0.0146 -0.5327  0.2405
15382TIP3    H167561   4.990   5.791   3.255  0.1686  1.6349 -2.5494
15382TIP3    H267562   4.865   5.843   3.188 -2.7012  0.3018  1.5438
15383TIP3   OH267563   0.586   1.083   2.166  0.5779  0.6462  0.3595
15383TIP3    H167564   0.581   1.078   2.071 -0.2011 -1.4525  0.4690
15383TIP3    H267565   0.504   1.124   2.192  0.3149  0.2421  0.1762
15384TIP3   OH267566   5.464   2.723   3.190 -0.3674  0.2329 -0.3651
15384TIP3    H167567   5.472   2.758   3.279 -2.2009 -1.1565  0.3779
15384TIP3    H267568   5.423   2.637   3.202  0.0097 -0.2673 -2.5116
15385TIP3   OH267569   4.478   4.275   6.399  0.0607 -0.1548  0.0048
15385TIP3    H167570   4.549   4.245   6.342  0.0767 -0.4829  0.1988
15385TIP3    H267571   4.480   4.215   6.473 -0.8724 -0.5753 -0.3147
15386TIP3   OH267572   6.601   6.356   2.890  0.7108  0.7095 -0.2973
15386TIP3    H167573   6.561   6.442   2.881  0.1909  0.5433  0.3806
15386TIP3    H267574   6.611   6.324   2.800  0.2940  1.2018 -0.5184
15387TIP3   OH267575   0.637   3.080   1.222 -0.0235  0.1081  0.4218
15387TIP3    H167576   0.591   3.118   1.147 -0.1278 -0.4315  0.2157
15387TIP3    H267577   0.688   3.008   1.186  2.1358  1.5974  0.3988
15388TIP3   OH267578   2.314   6.098  13.642  0.5375 -0.0288  0.5051
15388TIP3    H167579   2.220   6.111  13.634  0.5234 -1.0359 -1.1356
15388TIP3    H267580   2.325   6.050  13.724 -0.3586  0.3141  0.8299
15389TIP3   OH267581   0.700   6.077   1.309  0.1161  0.3257  0.1341
15389TIP3    H167582   0.735   5.988   1.307 -1.1183 -0.1827  0.4643
15389TIP3    H267583   0.740   6.118   1.385 -1.5046 -0.8928  1.6835
15390TIP3   OH267584   4.691   1.334  10.735  0.0775  0.3128 -0.0732
15390TIP3    H167585   4.691   1.389  10.656  0.5254 -0.3873 -0.5610
15390TIP3    H267586   4.697   1.245  10.703 -1.0582 -0.0615  0.7154
15391TIP3   OH267587   3.566   2.534   5.800  0.3146  0.6638 -1.0284
15391TIP3    H167588   3.487   2.549   5.852  0.3779 -2.5523  0.0940
15391TIP3    H267589   3.562   2.600   5.731 -1.3859  3.0037  1.1964
15392TIP3   OH267590   0.778   2.890   3.240  0.4753 -0.5514 -0.2490
15392TIP3    H167591   0.845   2.889   3.309  0.7305  0.2996 -0.4829
15392TIP3    H267592   0.695   2.884   3.288  0.7126 -1.8669  0.0303
15393TIP3   OH267593   1.656   1.089   5.461 -0.0155  0.0242  0.7262
15393TIP3    H167594   1.643   1.000   5.427  0.5651 -0.1827  1.0367
15393TIP3    H267595   1.599   1.144   5.407  0.2228 -0.4273  0.0131
15394TIP3   OH267596   1.285   0.247  14.566 -0.3814 -0.0569 -0.0042
15394TIP3    H167597   1.300   0.270  14.474  1.4518 -1.0652  0.0251
15394TIP3    H267598   1.351   0.181  14.585 -2.4070 -1.7691  1.3029
15395TIP3   OH267599   1.832   4.029  12.930 -0.1318 -0.0219  0.4032
15395TIP3    H167600   1.744   4.063  12.946 -0.0362  0.1898  0.4844
15395TIP3    H267601   1.845   3.961  12.996 -0.6723 -0.8515 -0.3357
15396TIP3   OH267602   5.044   2.389   4.607 -0.1970 -0.8527  0.2459
15396TIP3    H167603   4.986   2.358   4.677 -1.6537  0.9009 -0.1424
15396TIP3    H267604   5.040   2.485   4.613 -1.6877 -0.6213 -3.2605
15397TIP3   OH267605   5.585   2.378  12.637 -0.0027  0.2129 -0.1336
15397TIP3    H167606   5.673   2.397  12.669 -0.0762 -0.1362  0.2852
15397TIP3    H267607   5.581   2.419  12.550 -0.0375  1.7904  0.5878
15398TIP3   OH267608   5.216   5.003  15.076  0.6007 -0.6271  0.2672
15398TIP3    H167609   5.187   4.914  15.097  0.5883 -0.4890  0.8466
15398TIP3    H267610   5.296   5.014  15.127 -0.4365  0.3841  1.7166
15399TIP3   OH267611   1.209   2.279   6.718  0.4441 -0.2186  0.2521
15399TIP3    H167612   1.171   2.350   6.769  0.8138  0.3831 -0.3080
15399TIP3    H267613   1.138   2.216   6.706  0.2412 -0.1616  1.1358
15400TIP3   OH267614   4.441   6.282  17.112 -0.0262  0.3599  0.6583
15400TIP3    H167615   4.490   6.309  17.033 -0.1039 -0.0487  0.4695
15400TIP3    H267616   4.487   6.326  17.184 -0.9635  2.1066  0.2229
15401TIP3   OH267617   3.795   3.451  14.417 -0.3136  0.1200  0.2448
15401TIP3    H167618   3.888   3.471  14.406 -0.5752  1.5917  0.5602
15401TIP3    H267619   3.786   3.360  14.388  0.9575  0.4415 -1.2277
15402TIP3   OH267620   2.423   1.771  16.003 -0.1683  0.5225  0.3828
15402TIP3    H167621   2.443   1.818  15.921 -0.3095 -0.1387 -0.0328
15402TIP3    H267622   2.384   1.689  15.974  0.4301 -0.0189  1.1004
15403TIP3   OH267623   0.619   3.160  15.971 -0.9924  0.2725  0.0110
15403TIP3    H167624   0.604   3.244  16.014  0.3709 -0.0516  1.1547
15403TIP3    H267625   0.661   3.182  15.888 -1.6722  0.7806 -0.2030
15404TIP3   OH267626   3.539   1.444  16.388  0.6306  0.7831  0.3363
15404TIP3    H167627   3.465   1.496  16.420  0.0339  1.3580 -1.8409
15404TIP3    H267628   3.614   1.476  16.437 -0.3279  1.1592  1.6040
15405TIP3   OH267629   3.684   5.658  12.945 -0.3649  0.6718 -0.2471
15405TIP3    H167630   3.673   5.580  12.999 -2.0835  1.3653  0.4433
15405TIP3    H267631   3.764   5.642  12.895  0.7706 -0.3696  1.8492
15406TIP3   OH267632   6.012   4.745   5.806  0.0917 -0.1492 -0.5831
15406TIP3    H167633   6.020   4.735   5.901 -1.8082 -1.5362 -0.5395
15406TIP3    H267634   6.096   4.714   5.772 -0.0046 -1.7029  0.5282
15407TIP3   OH267635   0.591   0.229   5.583 -0.1335 -0.3041  0.3514
15407TIP3    H167636   0.527   0.184   5.638  0.7826 -0.7101  1.0999
15407TIP3    H267637   0.644   0.280   5.644  0.5869 -0.3824 -0.1930
15408TIP3   OH267638   2.161   0.637   2.493  0.4798  0.7864  0.8477
15408TIP3    H167639   2.246   0.598   2.470 -0.2073  0.7616 -1.7191
15408TIP3    H267640   2.105   0.562   2.511  0.6406  0.7693  1.2942
15409TIP3   OH267641   0.701   1.488   5.718  0.6362  0.1880  0.4663
15409TIP3    H167642   0.778   1.483   5.661  1.3623 -0.7168  1.4845
15409TIP3    H267643   0.650   1.410   5.695 -0.7155  1.5381 -1.2088
15410TIP3   OH267644   0.294   3.476   0.329  0.1620 -0.4892 -0.1826
15410TIP3    H167645   0.256   3.388   0.325 -0.2579 -0.4062  1.5719
15410TIP3    H267646   0.218   3.535   0.328  0.4667 -0.0966 -2.1354
15411TIP3   OH267647   1.458   5.852   5.052  0.6322  0.3153 -0.0994
15411TIP3    H167648   1.431   5.792   5.122  1.5639 -1.8786 -1.5416
15411TIP3    H267649   1.521   5.911   5.093  0.3490 -0.2461  1.1596
15412TIP3   OH267650   3.727   5.603   1.204  0.7872  0.1368 -0.1798
15412TIP3    H167651   3.727   5.512   1.236  3.6630 -0.4826 -1.7253
15412TIP3    H267652   3.698   5.596   1.113  1.8742  0.6280 -0.5727
15413TIP3   OH267653   5.120   2.495   1.800 -0.2007  0.3909 -0.1122
15413TIP3    H167654   5.177   2.560   1.842  1.0529 -1.2133  0.7493
15413TIP3    H267655   5.047   2.546   1.765  0.5454  2.2131  0.8954
15414TIP3   OH267656   1.123   5.713   5.763 -0.6621 -0.1101 -0.4141
15414TIP3    H167657   1.084   5.798   5.742 -1.7256 -0.4925 -0.0267
15414TIP3    H267658   1.217   5.731   5.770 -0.8868  1.0470 -0.2518
15415TIP3   OH267659   3.286   0.801  16.065 -0.4330 -0.3185 -0.2364
15415TIP3    H167660   3.328   0.882  16.091 -0.2813 -0.2988 -0.5317
15415TIP3    H267661   3.286   0.746  16.143  0.4843 -0.4591 -0.3346
15416TIP3   OH267662   0.479   1.328  13.219 -0.1728  0.0547 -0.1089
15416TIP3    H167663   0.414   1.288  13.162 -1.1981 -0.7138  1.5449
15416TIP3    H267664   0.510   1.256  13.274  0.4145  0.8593  0.6384
15417TIP3   OH267665   2.354   5.965   5.296  0.0612  0.2752  1.0535
15417TIP3    H167666   2.279   5.912   5.270 -0.4455  0.7598  1.5134
15417TIP3    H267667   2.318   6.052   5.314  1.1091  1.2623 -1.2910
15418TIP3   OH267668   5.120   4.950   2.874 -0.0980 -0.2953 -0.5537
15418TIP3    H167669   5.055   4.925   2.808 -0.5044 -1.0492  0.1227
15418TIP3    H267670   5.203   4.955   2.826 -0.3954 -0.8144 -1.1204
15419TIP3   OH267671   5.997   5.257  15.371 -0.3451 -0.0013 -0.3849
15419TIP3    H167672   5.924   5.248  15.310 -0.8454  0.3843  0.1437
15419TIP3    H267673   6.052   5.325  15.333 -0.1631 -0.4283 -0.8816
15420TIP3   OH267674   6.216   0.075   4.263 -0.2787 -0.3048  0.0905
15420TIP3    H167675   6.260   0.109   4.341 -2.5636 -0.6618  1.6113
15420TIP3    H267676   6.138   0.031   4.298 -0.1012 -2.5815 -2.2145
15421TIP3   OH267677   5.710   2.047   5.483  0.8962  0.0847  0.8879
15421TIP3    H167678   5.676   1.989   5.552 -0.6895 -1.8368 -1.4316
15421TIP3    H267679   5.787   2.003   5.449  0.0520 -0.4083 -0.4510
15422TIP3   OH267680   2.006   6.767   3.867 -0.1060 -0.5755 -0.4673
15422TIP3    H167681   1.969   6.680   3.881  1.5032 -1.4675 -1.5516
15422TIP3    H267682   1.997   6.811   3.952 -0.1069 -2.1169  0.3518
15423TIP3   OH267683   2.351   0.387   5.622  0.1644  0.5451  0.0167
15423TIP3    H167684   2.288   0.429   5.565 -1.1416 -1.3876 -0.0278
15423TIP3    H267685   2.317   0.298   5.635  2.8795 -0.5732 -0.0403
15424TIP3   OH267686   6.141   5.752   2.990 -0.4016  0.2187 -0.5075
15424TIP3    H167687   6.186   5.810   3.051 -0.1023 -0.3627 -0.1672
15424TIP3    H267688   6.100   5.686   3.045 -0.9462  0.2441 -0.8746
15425TIP3   OH267689   0.797   5.802   5.090  0.2086  0.5866 -0.8422
15425TIP3    H167690   0.741   5.867   5.048  0.0796 -0.6465 -2.6817
15425TIP3    H267691   0.742   5.724   5.097  0.7613  0.2764  0.1024
15426TIP3   OH267692   4.266   5.738   3.456  0.3887  0.1475  0.1885
15426TIP3    H167693   4.270   5.676   3.529  0.4380 -1.3685 -1.0804
15426TIP3    H267694   4.199   5.802   3.483 -0.4688 -1.0781  1.0479
15427TIP3   OH267695   1.986   3.458   5.929 -0.2780 -0.5101  0.2113
15427TIP3    H167696   2.034   3.527   5.974 -0.5640  0.2922 -0.7156
15427TIP3    H267697   1.896   3.467   5.960 -0.2121 -0.8061  0.4926
15428TIP3   OH267698   1.837   4.035  12.639  0.0429  0.1506 -0.2226
15428TIP3    H167699   1.841   4.044  12.734 -0.0440 -0.1652 -0.1902
15428TIP3    H267700   1.923   4.064  12.609  0.9605 -2.0757  0.1334
15429TIP3   OH267701   4.891   0.968  11.981  0.1294 -0.4850  0.0308
15429TIP3    H167702   4.955   1.035  11.955 -0.4984  0.5808  1.1791
15429TIP3    H267703   4.828   1.015  12.035 -0.9142 -1.8009 -0.0157
15430TIP3   OH267704   3.782   4.371  11.991  0.0347  0.1271  0.0303
15430TIP3    H167705   3.743   4.406  11.912  2.0650 -0.1980 -1.1527
15430TIP3    H267706   3.818   4.286  11.965 -0.2090 -0.4646  1.5555
15431TIP3   OH267707   5.626   5.404  16.312  0.0726  0.3027 -0.3179
15431TIP3    H167708   5.596   5.314  16.323 -1.3668  0.4868 -2.4814
15431TIP3    H267709   5.699   5.398  16.250 -1.0750  0.7666 -1.7471
15432TIP3   OH267710   5.823   6.595   2.679  0.0050 -0.1598  0.1295
15432TIP3    H167711   5.808   6.643   2.761  0.5113  0.6441 -0.2440
15432TIP3    H267712   5.915   6.609   2.659 -0.2567  0.1524 -0.9000
15433TIP3   OH267713   0.247   3.761   4.850 -0.1168  0.7653  0.0779
15433TIP3    H167714   0.327   3.724   4.887  0.4327  1.6968 -0.1575
15433TIP3    H267715   0.278   3.820   4.781 -1.1539 -1.8234 -2.7084
15434TIP3   OH267716   4.077   6.421  16.554 -0.6283  0.2759  0.1413
15434TIP3    H167717   4.100   6.478  16.628  0.9943 -1.0448  0.6939
15434TIP3    H267718   4.105   6.334  16.582 -0.6539 -0.3519 -1.7505
15435TIP3   OH267719   5.276   0.223  10.451 -0.2455  0.6094 -0.9328
15435TIP3    H167720   5.245   0.304  10.411  1.1598  1.8046  0.3534
15435TIP3    H267721   5.273   0.159  10.380 -3.4111  1.2308 -1.4189
15436TIP3   OH267722   6.711   1.459  12.150  0.3777  0.3152 -0.5236
15436TIP3    H167723   6.760   1.395  12.098 -1.3755 -1.0551 -0.5742
15436TIP3    H267724   6.716   1.426  12.240 -0.5860  0.0320 -0.5595
15437TIP3   OH267725   0.231   5.990  15.093  0.6441 -0.1199  0.7405
15437TIP3    H167726   0.270   5.946  15.018  0.5026 -0.5012  0.8857
15437TIP3    H267727   0.175   6.058  15.056 -0.7385 -1.3876  0.4333
15438TIP3   OH267728   3.818   2.845  17.100  0.5044 -0.0306 -0.1541
15438TIP3    H167729   3.909   2.819  17.083  0.3103 -1.1200  0.3911
15438TIP3    H267730   3.804   2.826  17.193 -0.0046  1.0106 -0.0113
15439TIP3   OH267731   5.970   2.358  14.906 -0.3674  0.4259  0.2776
15439TIP3    H167732   5.956   2.439  14.955 -0.6936  0.2241  0.5248
15439TIP3    H267733   6.037   2.310  14.957  2.0633  1.8577 -1.4570
15440TIP3   OH267734   2.014   1.722   1.713 -0.2104 -0.0879 -0.1967
15440TIP3    H167735   1.962   1.787   1.667 -0.1963  0.4501  0.5434
15440TIP3    H267736   1.985   1.727   1.804  0.3587 -0.5463  0.0198
15441TIP3   OH267737   5.518   3.001   6.041  0.5340  0.2756 -0.1237
15441TIP3    H167738   5.578   3.070   6.070 -0.3496  1.3237 -0.7618
15441TIP3    H267739   5.575   2.927   6.020  1.4238  0.4518  1.5212
15442TIP3   OH267740   0.046   2.069   1.019 -0.4559  0.3238  0.2990
15442TIP3    H167741   0.081   2.024   1.097 -1.3331 -1.4321 -0.2845
15442TIP3    H267742  -0.047   2.048   1.019 -0.5283  0.6094 -1.0343
15443TIP3   OH267743   2.852   5.777   0.412 -0.0617  0.0159 -0.0938
15443TIP3    H167744   2.839   5.776   0.317 -1.2918  0.4586  0.0629
15443TIP3    H267745   2.847   5.869   0.436 -0.3352 -0.1483  0.4864
15444TIP3   OH267746   6.204   4.575  13.031  0.4730 -0.7650  0.4176
15444TIP3    H167747   6.281   4.625  13.000  0.1206 -0.7887 -0.5259
15444TIP3    H267748   6.133   4.603  12.973 -0.4119 -0.2038  1.7505
15445TIP3   OH267749   1.245   2.814   0.519  0.4113 -0.0034 -0.4755
15445TIP3    H167750   1.317   2.871   0.492  1.1565 -1.0304 -0.7049
15445TIP3    H267751   1.222   2.766   0.440 -0.9022  0.7125 -0.5330
15446TIP3   OH267752   0.922   3.118   0.891  0.0555 -0.0476  0.3339
15446TIP3    H167753   0.937   3.118   0.797 -1.0479 -0.0863  0.1528
15446TIP3    H267754   0.885   3.204   0.910  0.5822  0.0862  0.7928
15447TIP3   OH267755   5.732   3.221   1.097  0.1919 -0.4249 -0.9465
15447TIP3    H167756   5.778   3.190   1.175 -0.5455 -0.1435 -0.3909
15447TIP3    H267757   5.690   3.302   1.124 -0.4326 -0.5510 -1.5072
15448TIP3   OH267758   5.874   5.027  15.431 -0.4342  0.3561  0.2777
15448TIP3    H167759   5.821   5.101  15.403 -0.1439  0.3072 -0.4070
15448TIP3    H267760   5.965   5.057  15.421 -0.2939 -0.5808 -1.3623
15449TIP3   OH267761   0.638   3.384  12.692 -0.3113 -0.0368 -0.1800
15449TIP3    H167762   0.600   3.374  12.604  0.1840 -0.5520 -0.3382
15449TIP3    H267763   0.579   3.334  12.749 -0.4239 -0.0094 -0.2693
15450TIP3   OH267764   0.071   5.216  16.152 -0.3897 -0.0242  0.0376
15450TIP3    H167765   0.011   5.219  16.078 -2.5385  0.5262  1.7574
15450TIP3    H267766   0.029   5.158  16.216  1.8936 -1.2826  0.4600
15451TIP3   OH267767   0.788   3.808   3.618 -0.0156 -0.4159 -0.5233
15451TIP3    H167768   0.709   3.785   3.669 -1.1821  2.3000 -1.0390
15451TIP3    H267769   0.848   3.845   3.683 -0.2831  0.1779 -0.6183
15452TIP3   OH267770   1.108   1.549  13.282 -0.6191 -0.2104  0.0939
15452TIP3    H167771   1.192   1.590  13.300 -0.6290 -1.0093  2.0100
15452TIP3    H267772   1.064   1.609  13.222  0.9890  0.5861 -0.3086
15453TIP3   OH267773   1.255   4.343  11.692  0.1956  0.1387 -0.1410
15453TIP3    H167774   1.169   4.372  11.721  1.0995  3.2635 -0.4281
15453TIP3    H267775   1.244   4.325  11.599 -0.1182  0.7642 -0.2314
15454TIP3   OH267776   1.608   1.541  11.486 -0.0631  0.0991  0.4518
15454TIP3    H167777   1.666   1.500  11.550 -0.9733 -1.4102  0.3552
15454TIP3    H267778   1.656   1.537  11.403  0.5099  0.6854  0.7576
15455TIP3   OH267779   5.986   6.014  11.692 -0.3518  0.5639  0.0975
15455TIP3    H167780   5.892   6.031  11.702 -0.4121  1.1846 -1.4853
15455TIP3    H267781   6.015   5.990  11.780 -2.0691 -0.0018  0.5288
15456TIP3   OH267782   2.410   6.632  16.296 -0.8107 -0.1023  0.0636
15456TIP3    H167783   2.336   6.630  16.356  1.1145  0.1589  2.5406
15456TIP3    H267784   2.407   6.548  16.250 -2.2193 -0.3786  0.6386
15457TIP3   OH267785   3.522   5.513  15.289  0.5194 -0.5598 -0.0884
15457TIP3    H167786   3.573   5.589  15.315  0.3367  0.4837 -2.5654
15457TIP3    H267787   3.431   5.540  15.301  0.4507 -0.2939 -1.1131
15458TIP3   OH267788   0.311   5.406   4.659  0.1525 -0.0885  0.1845
15458TIP3    H167789   0.288   5.420   4.568 -1.6640  1.3678  0.8429
15458TIP3    H267790   0.233   5.365   4.698  0.7890 -0.4190  1.1480
15459TIP3   OH267791   3.039   4.964  14.665 -0.0726  0.0580 -0.4274
15459TIP3    H167792   3.077   4.954  14.752  0.3012  2.0507 -0.3325
15459TIP3    H267793   2.955   4.918  14.670  1.1581 -2.2024  0.1300
15460TIP3   OH267794   0.376   1.452   6.313  0.9070 -0.0144 -0.3541
15460TIP3    H167795   0.401   1.532   6.267 -1.4735  2.0506  1.7621
15460TIP3    H267796   0.435   1.449   6.389  0.2292  0.4197  0.2032
15461TIP3   OH267797   5.761   3.876  16.663 -0.0086 -0.3020  0.1690
15461TIP3    H167798   5.781   3.921  16.580  0.1072 -0.5611  0.0535
15461TIP3    H267799   5.845   3.873  16.709 -0.4991  1.7576  1.2530
15462TIP3   OH267800   0.257   4.160   1.058  0.2142  0.1361  0.2004
15462TIP3    H167801   0.210   4.115   0.988  1.9273  0.2977 -1.0921
15462TIP3    H267802   0.300   4.234   1.014  1.2638  0.2639  1.4349
15463TIP3   OH267803   2.942   3.744  13.195  0.0199 -0.7524  0.0126
15463TIP3    H167804   2.935   3.794  13.114 -0.8320  0.2994  0.7284
15463TIP3    H267805   2.922   3.806  13.265  0.5134 -1.7015  1.0246
15464TIP3   OH267806   3.301   2.293   3.082 -0.6530  0.1931  0.4375
15464TIP3    H167807   3.261   2.320   3.165  0.8150 -2.6270  2.1530
15464TIP3    H267808   3.268   2.204   3.068  1.0223 -0.2565 -0.7444
15465TIP3   OH267809   4.290   0.430   2.231  0.1025 -0.0004 -0.3307
15465TIP3    H167810   4.362   0.493   2.227  0.3020 -0.1666  0.5014
15465TIP3    H267811   4.300   0.387   2.316  1.6843 -3.1974 -2.0192
15466TIP3   OH267812   3.340   0.195  13.370 -0.0929  0.2485  0.3916
15466TIP3    H167813   3.251   0.184  13.335 -0.1107 -1.9014  1.0705
15466TIP3    H267814   3.328   0.200  13.465  0.5283 -0.2446  0.4979
15467TIP3   OH267815   3.453   1.923  15.977  0.1356 -0.1391 -0.1461
15467TIP3    H167816   3.391   1.865  15.934 -0.8183  0.6691  0.1136
15467TIP3    H267817   3.534   1.873  15.983 -0.7693 -1.5490  0.3887
15468TIP3   OH267818   6.532   0.990   5.178 -0.5457  0.2040  0.7707
15468TIP3    H167819   6.507   0.936   5.254  1.6912 -0.1440  1.2736
15468TIP3    H267820   6.569   0.927   5.116  0.1750  0.8942  0.5102
15469TIP3   OH267821   3.187   3.299   2.404  0.1543  0.0690  0.2642
15469TIP3    H167822   3.216   3.240   2.474 -1.1396 -0.3436  0.4622
15469TIP3    H267823   3.092   3.303   2.414  0.0910  1.0548 -0.6549
15470TIP3   OH267824   1.237   3.243   4.891 -0.4525 -0.4266  0.5086
15470TIP3    H167825   1.247   3.338   4.877 -1.7467 -0.1740  1.1768
15470TIP3    H267826   1.314   3.218   4.941  1.2346 -0.2282 -1.9091
15471TIP3   OH267827   5.264   3.645  15.767  0.1918  0.0094  0.8176
15471TIP3    H167828   5.183   3.682  15.732  0.2316  0.1342  0.8577
15471TIP3    H267829   5.320   3.721  15.784 -0.3705  0.0512  2.5664
15472TIP3   OH267830   0.394   1.674  12.484 -0.2068 -0.0124  0.4037
15472TIP3    H167831   0.307   1.635  12.471 -0.6543  0.5949  1.4519
15472TIP3    H267832   0.400   1.742  12.416 -0.8337  0.3907  0.7452
15473TIP3   OH267833   3.254   4.562   2.275 -0.2179 -0.2502 -0.0022
15473TIP3    H167834   3.251   4.640   2.331  0.8146 -0.5024  0.4195
15473TIP3    H267835   3.311   4.587   2.202  1.4981 -1.1541  1.0038
15474TIP3   OH267836   5.758   3.794  11.115  0.4840 -0.1133  0.8847
15474TIP3    H167837   5.735   3.800  11.208 -0.0080  1.1012  0.6889
15474TIP3    H267838   5.780   3.702  11.102  0.6041 -0.2829  2.2177
15475TIP3   OH267839   1.718   4.520  15.090 -0.3501 -0.3959  0.2067
15475TIP3    H167840   1.805   4.538  15.127 -1.4598  0.5549  2.4366
15475TIP3    H267841   1.681   4.607  15.073 -1.0308 -0.7943 -0.3601
15476TIP3   OH267842   3.671   1.150   2.095 -0.1943  0.2155  0.4336
15476TIP3    H167843   3.749   1.203   2.076  0.8243 -2.0254 -1.9308
15476TIP3    H267844   3.696   1.098   2.172 -0.1777  1.1160  1.0439
15477TIP3   OH267845   3.407   0.853   0.241  0.1748  0.3991 -0.4654
15477TIP3    H167846   3.433   0.919   0.176 -0.0876 -0.2772 -1.2608
15477TIP3    H267847   3.385   0.775   0.190  1.0390 -0.4997  0.4969
15478TIP3   OH267848   2.804   6.132  12.563 -0.9378  0.0005  0.0031
15478TIP3    H167849   2.762   6.048  12.546  2.6306 -2.0181  0.7235
15478TIP3    H267850   2.827   6.130  12.656 -1.1293  1.9481  0.1260
15479TIP3   OH267851   5.949   0.492  12.991 -0.3203  0.2189  0.1371
15479TIP3    H167852   5.873   0.461  13.040  1.4269 -0.6821  2.4258
15479TIP3    H267853   6.000   0.412  12.974  0.8549  0.9733  0.0428
15480TIP3   OH267854   3.207   0.204  12.081 -0.0660  0.1587  0.5272
15480TIP3    H167855   3.202   0.187  12.175 -3.0510  0.8748  0.5575
15480TIP3    H267856   3.250   0.126  12.044  1.6636  0.1363  2.5198
15481TIP3   OH267857   6.072   3.735  14.865  0.5992  0.5422  0.4392
15481TIP3    H167858   5.996   3.735  14.806  1.6563  0.7971 -0.9396
15481TIP3    H267859   6.053   3.806  14.927 -0.6763  0.0595  0.6281
15482TIP3   OH267860   2.127   5.502   2.457 -0.0805 -0.3087 -0.0065
15482TIP3    H167861   2.057   5.504   2.522 -1.0597 -1.2312 -1.0095
15482TIP3    H267862   2.122   5.414   2.419  0.2489  0.3287 -1.5629
15483TIP3   OH267863   5.288   5.725   5.055  0.2975  0.3689  0.0028
15483TIP3    H167864   5.291   5.748   5.148 -0.1621  0.1533  0.0699
15483TIP3    H267865   5.236   5.645   5.051  1.4123 -0.3570 -0.3010
15484TIP3   OH267866   5.059   6.500  15.307  0.5253 -0.1562 -0.4278
15484TIP3    H167867   4.981   6.549  15.279 -0.1108 -1.6775 -1.4877
15484TIP3    H267868   5.118   6.565  15.343 -1.4383  0.9817  0.8020
15485TIP3   OH267869   2.597   6.483  13.676  0.5027  0.4462 -0.1067
15485TIP3    H167870   2.616   6.572  13.704 -0.1979  0.2793  0.9334
15485TIP3    H267871   2.600   6.431  13.757  0.7477 -0.4462 -0.6789
15486TIP3   OH267872   5.517   3.736   1.802 -0.3254  0.4938 -0.6878
15486TIP3    H167873   5.446   3.800   1.801 -1.4914 -0.7788 -2.5370
15486TIP3    H267874   5.566   3.753   1.722  0.3864  0.1789 -0.3253
15487TIP3   OH267875   0.979   4.671  11.598  0.4614 -0.1115 -0.0496
15487TIP3    H167876   0.962   4.686  11.504  0.0952 -1.5700 -0.2261
15487TIP3    H267877   1.054   4.612  11.600  0.7256  0.2428  0.5919
15488TIP3   OH267878   0.419   5.800  15.582  0.2530  0.3848  0.4963
15488TIP3    H167879   0.344   5.812  15.524  1.1578  0.6942 -0.6268
15488TIP3    H267880   0.442   5.889  15.609 -0.1433  0.2452  1.3219
15489TIP3   OH267881   1.272   1.728  13.073  0.1832  0.9231 -0.2303
15489TIP3    H167882   1.327   1.803  13.051  1.6458  0.6156  2.0861
15489TIP3    H267883   1.314   1.691  13.151 -0.1021 -2.6910 -1.7068
15490TIP3   OH267884   6.489   1.230  10.876  0.0655  0.2037 -0.2185
15490TIP3    H167885   6.404   1.205  10.839 -0.3620 -0.1295  0.9390
15490TIP3    H267886   6.551   1.166  10.842 -0.0951  0.6292 -1.3123
15491TIP3   OH267887   6.071   3.292  15.914 -0.2384 -0.2270  0.3083
15491TIP3    H167888   5.991   3.276  15.964 -0.2102  0.0342  0.4373
15491TIP3    H267889   6.116   3.207  15.913 -1.1231 -0.7096 -0.8422
15492TIP3   OH267890   0.682   5.715   0.175 -0.0817  0.0883 -0.0792
15492TIP3    H167891   0.682   5.776   0.101 -0.3373  0.2040  0.0184
15492TIP3    H267892   0.647   5.633   0.138  0.3104 -0.0179 -0.2229
15493TIP3   OH267893   2.552   2.156  11.843 -0.0894 -0.2913 -0.0068
15493TIP3    H167894   2.496   2.121  11.774 -0.8955  1.5245 -0.3151
15493TIP3    H267895   2.623   2.200  11.796  1.3183 -2.1090  0.3761
15494TIP3   OH267896   3.162   0.616   5.288  0.4607  0.3511 -0.1185
15494TIP3    H167897   3.080   0.664   5.279  0.5846  0.4608 -0.7106
15494TIP3    H267898   3.140   0.538   5.339 -0.1063  0.1354 -0.6860
15495TIP3   OH267899   3.959   1.416   1.289 -0.4002 -0.7328  0.0651
15495TIP3    H167900   3.990   1.492   1.339  1.0353 -1.3055  0.0635
15495TIP3    H267901   3.961   1.445   1.198 -3.5854  0.5119  0.3276
15496TIP3   OH267902   4.170   3.490  13.248  0.3265 -0.0943  0.2911
15496TIP3    H167903   4.115   3.418  13.278 -0.1856 -0.2906 -1.0798
15496TIP3    H267904   4.192   3.467  13.158  0.4427  1.2871 -0.0459
15497TIP3   OH267905   5.851   5.895  16.154  0.5830 -0.5105  0.4891
15497TIP3    H167906   5.807   5.820  16.114  0.7645 -0.2994 -0.1146
15497TIP3    H267907   5.800   5.971  16.126  0.8320 -0.3413  0.4903
15498TIP3   OH267908   1.249   4.090   0.564  0.1792  0.2423 -1.1730
15498TIP3    H167909   1.283   4.008   0.600 -0.6405  0.9632  1.3577
15498TIP3    H267910   1.318   4.120   0.505  1.0164 -1.6573 -1.2082
15499TIP3   OH267911   0.217   3.052  14.827  0.3982  0.6765 -0.0992
15499TIP3    H167912   0.222   3.132  14.774 -0.4971  0.0697 -1.1226
15499TIP3    H267913   0.309   3.029  14.843  0.6734  1.2263 -0.8396
15500TIP3   OH267914   4.915   4.778  16.783  0.2394 -0.2002 -0.6250
15500TIP3    H167915   5.004   4.751  16.764  0.6230  1.6497 -1.5697
15500TIP3    H267916   4.912   4.871  16.759 -1.9155 -0.2176 -0.5571
15501TIP3   OH267917   0.591   0.557  17.083 -0.1043 -0.1724 -0.2817
15501TIP3    H167918   0.505   0.589  17.109  0.3804  1.2291 -0.3911
15501TIP3    H267919   0.574   0.511  17.000 -0.3516  2.4663 -1.7692
15502TIP3   OH267920   6.747   5.394  15.095 -0.7051  0.7137  0.1781
15502TIP3    H167921   6.759   5.352  15.009 -2.1655 -0.5330  0.5471
15502TIP3    H267922   6.836   5.404  15.129 -0.3016 -2.3640  0.1733
15503TIP3   OH267923   0.969   6.286   3.629 -0.3572  0.1660  0.1992
15503TIP3    H167924   0.967   6.378   3.603  0.9500 -0.5267 -2.4588
15503TIP3    H267925   1.057   6.257   3.609 -0.9939 -1.8931  0.2954
15504TIP3   OH267926   0.533   0.346   6.376  0.2876  0.3028  0.0819
15504TIP3    H167927   0.469   0.407   6.413 -0.8880 -2.1129  2.1698
15504TIP3    H267928   0.584   0.317   6.451  0.5146 -1.6205 -0.7853
15505TIP3   OH267929   2.962   4.079   5.105 -0.1391  0.3160  0.5910
15505TIP3    H167930   2.999   4.107   5.189  0.9301 -1.4297  0.7286
15505TIP3    H267931   3.033   4.090   5.042 -0.5158  0.3556  0.1732
15506TIP3   OH267932   4.701   2.410   3.213 -0.3523  0.4773  0.2219
15506TIP3    H167933   4.704   2.503   3.191  0.7747  0.6772  1.1607
15506TIP3    H267934   4.649   2.370   3.143 -0.8718  1.8110 -0.1700
15507TIP3   OH267935   5.313   4.441  11.547 -0.5196  0.2290 -0.1589
15507TIP3    H167936   5.284   4.350  11.544  0.9769 -0.2456 -0.3289
15507TIP3    H267937   5.243   4.486  11.595 -1.8898 -0.7489 -1.1960
15508TIP3   OH267938   3.233   1.809   2.558  0.2957 -0.0980  0.7016
15508TIP3    H167939   3.299   1.843   2.619 -0.1579 -1.8933  2.2203
15508TIP3    H267940   3.170   1.763   2.613  0.2490 -2.3757 -1.1767
15509TIP3   OH267941   3.230   4.856  12.492  0.2369 -0.1450  0.6543
15509TIP3    H167942   3.171   4.892  12.426 -0.1445  1.6286  1.9453
15509TIP3    H267943   3.288   4.928  12.515  1.5061 -1.2533  0.9944
15510TIP3   OH267944   2.915   0.757   5.334 -0.3542 -0.4115 -0.0272
15510TIP3    H167945   2.851   0.711   5.388  0.1844 -0.1020  0.8987
15510TIP3    H267946   2.869   0.779   5.254 -1.4145 -0.1769  0.6439
15511TIP3   OH267947   3.151   5.773  15.665  0.2909 -0.1267  0.2753
15511TIP3    H167948   3.198   5.846  15.623  3.5339 -2.0714  0.3171
15511TIP3    H267949   3.080   5.752  15.605 -0.3248  2.6755 -0.0261
15512TIP3   OH267950   6.642   1.622  16.230  0.8660 -0.6805  0.6927
15512TIP3    H167951   6.613   1.686  16.164 -1.9041 -1.4965  1.0716
15512TIP3    H267952   6.680   1.676  16.300 -0.5666  0.5078  0.5848
15513TIP3   OH267953   0.353   1.799   3.937  0.2533 -0.0334  0.0372
15513TIP3    H167954   0.401   1.808   3.855  0.6350 -0.4942  0.2102
15513TIP3    H267955   0.407   1.844   4.001 -0.1285  0.4767  0.0113
15514TIP3   OH267956   0.583   5.381  16.549  0.2975  0.8097 -0.2188
15514TIP3    H167957   0.661   5.364  16.496 -0.9661  1.0095 -2.1871
15514TIP3    H267958   0.521   5.421  16.488 -0.9196  1.7785  1.6084
15515TIP3   OH267959   4.231   0.943  11.226  0.3123 -0.8542 -0.0173
15515TIP3    H167960   4.315   0.969  11.262 -0.8851 -0.4461  2.6196
15515TIP3    H267961   4.212   0.859  11.268 -0.5841 -0.9711 -0.6334
15516TIP3   OH267962   0.556   3.041  11.759 -0.1332  0.9113  0.1710
15516TIP3    H167963   0.516   3.032  11.673 -1.6048  2.5461  0.6538
15516TIP3    H267964   0.580   2.952  11.785 -0.2868  0.3434 -1.6304
15517TIP3   OH267965   2.200   1.809  10.890  0.4001  0.3394  0.3491
15517TIP3    H167966   2.120   1.773  10.852  0.5424  0.1020  0.2702
15517TIP3    H267967   2.173   1.842  10.975  0.3811 -0.4831  0.6676
15518TIP3   OH267968   0.282   4.654   6.523  0.2636  0.3696  0.2984
15518TIP3    H167969   0.348   4.586   6.537 -0.6836 -0.9407 -1.3863
15518TIP3    H267970   0.270   4.694   6.609  3.6019  0.9716  0.5400
15519TIP3   OH267971   4.629   0.820   0.679  0.0757 -0.8572 -0.3534
15519TIP3    H167972   4.617   0.732   0.643  2.5825 -0.2121 -2.9720
15519TIP3    H267973   4.611   0.878   0.605  2.2823  0.6653  0.2588
15520TIP3   OH267974   3.817   2.673  12.989 -0.2303  0.0966 -0.3503
15520TIP3    H167975   3.838   2.650  12.898 -0.5940  0.5910 -0.5594
15520TIP3    H267976   3.863   2.607  13.041 -0.9631 -0.8924 -0.9272
15521TIP3   OH267977   5.591   3.078   4.035  0.5733 -0.1721 -0.1557
15521TIP3    H167978   5.646   3.156   4.044 -0.8172  0.7627  0.5406
15521TIP3    H267979   5.503   3.113   4.019 -0.0609 -1.6034  0.1336
15522TIP3   OH267980   5.966   0.752  12.609  0.7533  0.1473  0.2846
15522TIP3    H167981   5.988   0.834  12.566  2.2087 -0.9338 -1.0690
15522TIP3    H267982   5.915   0.704  12.544 -0.4899  0.1464  1.2358
15523TIP3   OH267983   4.040   1.264   1.694  0.4931 -0.1547  0.2077
15523TIP3    H167984   3.948   1.242   1.709  0.4183 -1.7522 -2.2698
15523TIP3    H267985   4.038   1.349   1.650  0.1698 -0.3898 -0.2339
15524TIP3   OH267986   2.333   4.824   1.445  0.0952 -0.7221 -0.1144
15524TIP3    H167987   2.267   4.861   1.503  0.4379 -1.3554  0.6906
15524TIP3    H267988   2.373   4.900   1.403 -2.3759 -0.4183 -2.0213
15525TIP3   OH267989   6.027   0.941  12.372  0.3839  0.6526  0.3749
15525TIP3    H167990   6.042   1.009  12.306  0.7422 -0.5795 -0.8397
15525TIP3    H267991   5.935   0.917  12.359 -0.0627  1.6564  1.5489
15526TIP3   OH267992   1.371   1.785  15.189  0.0769 -0.3181 -0.3833
15526TIP3    H167993   1.418   1.749  15.264 -0.5477  0.6010  0.4505
15526TIP3    H267994   1.348   1.708  15.136  0.3594 -0.9807  0.4468
15527TIP3   OH267995   4.121   2.455  12.669 -0.2625  0.0424  0.3203
15527TIP3    H167996   4.065   2.449  12.591  2.2369 -2.1518 -1.3720
15527TIP3    H267997   4.149   2.546  12.671 -0.3617  0.1302 -1.3561
15528TIP3   OH267998   3.727   1.875   2.188  0.0401 -0.4033 -0.3445
15528TIP3    H167999   3.698   1.843   2.273  2.2291 -1.3829  0.0710
15528TIP3    H268000   3.815   1.840   2.178 -0.6617 -1.4180 -3.6217
15529TIP3   OH268001   6.234   2.943   1.745  0.4865 -0.5712  0.3857
15529TIP3    H168002   6.205   2.880   1.679 -1.1300 -0.2298  0.7510
15529TIP3    H268003   6.187   2.918   1.825 -0.1601  1.0922  0.5337
15530TIP3   OH268004   1.105   1.551   0.132 -0.8093 -0.3699  0.2047
15530TIP3    H168005   1.184   1.498   0.144  0.3480  1.5038  1.0315
15530TIP3    H268006   1.035   1.498   0.169 -0.3432 -3.0122 -2.4631
15531TIP3   OH268007   1.363   4.882  12.552 -0.0191  0.7575  0.3318
15531TIP3    H168008   1.270   4.895  12.570  0.0478 -0.4915  1.7259
15531TIP3    H268009   1.406   4.958  12.591 -0.3643  0.7552  0.7238
15532TIP3   OH268010   2.994   1.878  16.091  0.1833  0.0254  0.1290
15532TIP3    H168011   2.907   1.848  16.065  0.5873 -1.7751  0.7619
15532TIP3    H268012   3.053   1.809  16.061  1.3392  1.0043  0.1180
15533TIP3   OH268013   6.159   3.046  15.922  0.6357 -0.1350 -0.0022
15533TIP3    H168014   6.128   2.992  15.849  1.1811  0.0998 -0.4181
15533TIP3    H268015   6.213   2.988  15.974 -1.1098 -0.7600  1.1624
15534TIP3   OH268016   0.252   4.711  11.207  0.6025  0.3098  0.2605
15534TIP3    H168017   0.262   4.806  11.198  1.5244  0.2687  0.7865
15534TIP3    H268018   0.341   4.679  11.222  0.1508 -0.5076  1.2399
15535TIP3   OH268019   3.712   2.813  15.957  0.0472 -0.5219 -0.3346
15535TIP3    H168020   3.698   2.765  15.875  0.5370  0.0438 -0.7556
15535TIP3    H268021   3.663   2.894  15.946 -2.7154 -1.9044  1.3065
15536TIP3   OH268022   5.789   4.582   4.324  0.2804 -0.5741 -0.2639
15536TIP3    H168023   5.698   4.608   4.307  0.5378 -0.2186 -1.0850
15536TIP3    H268024   5.836   4.603   4.244  1.1990 -0.2550  0.3435
15537TIP3   OH268025   3.484   1.491   1.907  0.1907 -0.0151  0.6183
15537TIP3    H168026   3.503   1.584   1.913 -0.4835  0.0573  1.7112
15537TIP3    H268027   3.568   1.451   1.882  0.2851  0.9582 -0.7022
15538TIP3   OH268028   6.406   1.558   5.967  0.3425  0.3196  0.1541
15538TIP3    H168029   6.355   1.585   6.044 -0.3724 -1.0193  0.1714
15538TIP3    H268030   6.491   1.532   6.002  0.8623  2.0186  0.1946
15539TIP3   OH268031   1.390   5.125   5.420 -0.4936  0.0330 -0.0352
15539TIP3    H168032   1.437   5.051   5.381 -0.2139 -0.0057  0.3741
15539TIP3    H268033   1.324   5.084   5.476 -0.6724  0.0905 -0.2034
15540TIP3   OH268034   6.482   2.930  11.912  0.4903 -0.4492 -0.0956
15540TIP3    H168035   6.449   3.006  11.960  1.4421 -0.9873  1.4666
15540TIP3    H268036   6.504   2.964  11.825  0.2911  0.9133  0.3724
15541TIP3   OH268037   5.285   0.979   5.372  0.0881  0.1489 -0.4194
15541TIP3    H168038   5.191   0.965   5.371  0.1881 -0.4516 -1.4638
15541TIP3    H268039   5.307   1.002   5.282  1.0450 -0.3758 -0.3220
15542TIP3   OH268040   6.051   2.978  12.716 -0.4329  0.1847  0.7402
15542TIP3    H168041   6.116   3.002  12.650 -1.5518  0.5743 -0.2272
15542TIP3    H268042   6.091   3.004  12.799  0.2898  1.1902  0.0839
15543TIP3   OH268043   4.743   4.324  13.051 -0.2135 -0.0508 -0.9282
15543TIP3    H168044   4.677   4.260  13.025 -0.7994 -0.0401  0.4943
15543TIP3    H268045   4.810   4.318  12.984 -0.7238 -1.4720 -1.3244
15544TIP3   OH268046   1.144   4.818   2.442  0.5270  0.1746 -0.0443
15544TIP3    H168047   1.074   4.792   2.502  1.1966 -1.0187  0.2425
15544TIP3    H268048   1.176   4.736   2.406  1.6865  0.7176 -0.2825
15545TIP3   OH268049   1.794   4.701  13.838  0.3972  0.3838  0.0217
15545TIP3    H168050   1.784   4.734  13.749 -0.0910  0.2432  0.0196
15545TIP3    H268051   1.881   4.730  13.865  0.2349  1.0988 -0.2122
15546TIP3   OH268052   2.734   3.489  12.995 -0.3860 -0.0908 -0.0515
15546TIP3    H168053   2.757   3.552  12.927 -1.3712 -0.3205 -0.6145
15546TIP3    H268054   2.763   3.529  13.077 -1.5709  1.3969 -0.3360
15547TIP3   OH268055   0.787   2.955  16.114  0.3377  0.4204 -0.1372
15547TIP3    H168056   0.865   2.942  16.061 -1.0432 -1.3962 -1.7925
15547TIP3    H268057   0.734   3.018  16.065  0.4363  1.1269  0.6420
15548TIP3   OH268058   4.904   6.079  13.776 -0.1177 -0.0233 -0.1301
15548TIP3    H168059   4.958   6.043  13.847 -2.4466 -1.6451  0.8892
15548TIP3    H268060   4.826   6.111  13.820 -1.0514  0.0897 -1.8450
15549TIP3   OH268061   1.471   5.910  10.972 -0.0090 -0.4756  0.0378
15549TIP3    H168062   1.543   5.972  10.966  1.0765 -1.6050  1.0999
15549TIP3    H268063   1.462   5.873  10.884  0.8430 -0.4732 -0.0479
15550TIP3   OH268064   1.290   2.903  13.467 -0.4884  0.0952 -0.1797
15550TIP3    H168065   1.213   2.958  13.481  1.0011  3.2153 -3.3945
15550TIP3    H268066   1.364   2.963  13.475  1.2676 -1.5599 -3.0808
15551TIP3   OH268067   5.665   0.983   2.862 -0.0738  0.0050 -0.0826
15551TIP3    H168068   5.569   0.979   2.869 -0.0138  0.5708  1.2416
15551TIP3    H268069   5.681   1.023   2.777 -0.9734 -2.1675 -1.2967
15552TIP3   OH268070   2.995   1.635   2.274 -0.0546 -0.1899  0.1231
15552TIP3    H168071   2.969   1.708   2.218  0.1780 -1.5130 -1.7384
15552TIP3    H268072   3.066   1.669   2.327 -2.8503  2.3000  2.4885
15553TIP3   OH268073   6.473   4.517   4.079 -0.4373  0.6228  0.3672
15553TIP3    H168074   6.529   4.468   4.139  0.1824  1.6198  0.6191
15553TIP3    H268075   6.391   4.468   4.077  1.1057 -1.9927 -1.5615
15554TIP3   OH268076   5.677   0.061   6.279 -1.0135  0.0305  0.3958
15554TIP3    H168077   5.726  -0.003   6.228  0.6129 -0.9669  3.1203
15554TIP3    H268078   5.737   0.136   6.287 -1.5812  0.5162  0.1407
15555TIP3   OH268079   5.402   3.392   3.016  0.0075 -0.2338 -0.5648
15555TIP3    H168080   5.394   3.424   3.106 -0.7674 -1.2557 -0.2554
15555TIP3    H268081   5.316   3.353   2.997 -0.2229  1.0113 -2.1562
15556TIP3   OH268082   5.200   3.346  11.747  0.0766  0.5698 -0.2619
15556TIP3    H168083   5.245   3.313  11.669  0.9519  0.7112  0.1730
15556TIP3    H268084   5.264   3.403  11.789 -0.7293  1.2486  0.0544
15557TIP3   OH268085   3.587   5.031   1.987  0.1157 -0.3283 -0.3122
15557TIP3    H168086   3.616   4.973   1.916  1.9481  1.0735 -0.7273
15557TIP3    H268087   3.637   5.004   2.063  1.5310  1.1847 -0.6900
15558TIP3   OH268088   2.495   5.277   3.718 -0.1447  0.7988 -0.0073
15558TIP3    H168089   2.449   5.236   3.791 -1.5795  0.6812 -0.9699
15558TIP3    H268090   2.427   5.296   3.653  1.2636 -0.1416 -1.8105
15559TIP3   OH268091   3.456   5.584   2.962 -0.0706  0.3012 -0.1495
15559TIP3    H168092   3.450   5.563   2.868 -1.5345  0.4708 -0.1072
15559TIP3    H268093   3.377   5.545   3.000  0.4148  0.4210  0.9765
15560TIP3   OH268094   2.335   5.602   3.519 -0.0207 -0.4211  0.0776
15560TIP3    H168095   2.386   5.662   3.574  1.4179 -0.3098 -1.3210
15560TIP3    H268096   2.273   5.561   3.579  0.5073  0.7778  1.4933
15561TIP3   OH268097   3.947   1.371  16.752 -0.0401 -0.5953 -0.0673
15561TIP3    H168098   3.951   1.334  16.840  0.8296  0.7746  0.4838
15561TIP3    H268099   4.037   1.365  16.720  0.0736  0.8561 -0.0380
15562TIP3   OH268100   4.190   3.028   1.521  0.5189  0.0387  0.6284
15562TIP3    H168101   4.249   3.102   1.511  0.2374  0.3080  0.9432
15562TIP3    H268102   4.143   3.045   1.602 -0.0856 -0.1071  0.3149
15563TIP3   OH268103   2.694   4.966  11.584 -0.7001  0.4333  0.1506
15563TIP3    H168104   2.642   4.900  11.537  0.4494 -0.4235  0.0540
15563TIP3    H268105   2.716   5.030  11.517 -0.3914  0.0296 -0.1361
15564TIP3   OH268106   4.313   3.395   4.146 -0.2645 -0.1164 -0.2831
15564TIP3    H168107   4.365   3.417   4.068  0.5571 -0.9861  0.0152
15564TIP3    H268108   4.368   3.335   4.196 -1.4035 -0.7559  0.2306
15565TIP3   OH268109   4.222   4.751  13.728  0.0087  0.2978  0.3594
15565TIP3    H168110   4.278   4.680  13.696  0.4946  2.6248 -4.4423
15565TIP3    H268111   4.274   4.792  13.797  0.8056 -2.4184  1.4294
15566TIP3   OH268112   2.392   2.978  16.865 -0.1814  0.1235 -0.2633
15566TIP3    H168113   2.386   2.960  16.959 -1.9145  1.3594 -0.1178
15566TIP3    H268114   2.303   2.963  16.832  0.3105  0.1599 -1.6286
15567TIP3   OH268115   4.801   2.581   5.472 -0.4652 -0.3240 -0.2478
15567TIP3    H168116   4.745   2.651   5.505  1.5496  2.0991 -1.8213
15567TIP3    H268117   4.865   2.625   5.417  1.3846 -3.3265 -0.6088
15568TIP3   OH268118   1.483   1.104  13.501  0.3474  0.4161  0.0073
15568TIP3    H168119   1.396   1.118  13.538  0.3086  1.7447 -0.5296
15568TIP3    H268120   1.481   1.151  13.417  1.6551  0.7043  0.1159
15569TIP3   OH268121   6.247   3.828   5.091 -0.1545 -0.5176 -0.5713
15569TIP3    H168122   6.167   3.792   5.129 -0.1734 -0.7082 -0.7873
15569TIP3    H268123   6.220   3.910   5.052  0.2510  0.6672  1.5500
15570TIP3   OH268124   3.330   0.750   4.723 -0.0488  0.2182 -0.3908
15570TIP3    H168125   3.290   0.772   4.639  0.0401  2.9932  0.2463
15570TIP3    H268126   3.410   0.703   4.699 -0.5268  0.0912 -1.8196
15571TIP3   OH268127   0.951   1.132   3.313 -0.1292  0.3927 -0.1576
15571TIP3    H168128   1.035   1.102   3.348 -0.3552  0.2937  0.3087
15571TIP3    H268129   0.949   1.100   3.223  0.1542  0.0481 -0.0424
15572TIP3   OH268130   6.270   2.871   3.923  0.3762 -0.1579 -0.4329
15572TIP3    H168131   6.332   2.866   3.850  2.0037  2.4176  0.7352
15572TIP3    H268132   6.229   2.957   3.914 -2.1985 -1.3323 -0.4664
15573TIP3   OH268133   0.404   5.599   4.188 -0.3667  0.3235  0.1406
15573TIP3    H168134   0.339   5.547   4.236 -1.1952  0.2358 -1.0488
15573TIP3    H268135   0.466   5.627   4.255 -0.5564 -1.2136  0.9907
15574TIP3   OH268136   6.558   6.198   3.400  0.1423  0.0258 -0.0393
15574TIP3    H168137   6.600   6.251   3.332 -2.4351  0.0232 -1.6933
15574TIP3    H268138   6.535   6.117   3.355  1.3735 -1.3477  1.7228
15575TIP3   OH268139   3.684   4.790  10.995  0.1625 -1.2451 -0.3693
15575TIP3    H168140   3.691   4.695  10.991 -0.6927 -1.2730 -1.1065
15575TIP3    H268141   3.615   4.813  10.933 -0.7896 -0.2791  1.0103
15576TIP3   OH268142   1.497   3.999   3.640 -0.7732 -0.0340 -0.0385
15576TIP3    H168143   1.422   3.941   3.631  0.2053 -1.3410 -0.0575
15576TIP3    H268144   1.460   4.084   3.663 -2.2211 -0.7496  0.3280
15577TIP3   OH268145   4.592   1.476  12.853  0.2256  0.5825  0.1454
15577TIP3    H168146   4.664   1.417  12.828  1.7294  1.4903  2.1998
15577TIP3    H268147   4.610   1.498  12.944 -0.7073  3.6728 -0.3837
15578TIP3   OH268148   3.830   5.119   0.861  0.2205 -0.5279 -0.0356
15578TIP3    H168149   3.859   5.047   0.918  1.1952 -2.2045 -2.5645
15578TIP3    H268150   3.747   5.089   0.825  0.5129 -0.2967 -0.9186
15579TIP3   OH268151   0.621   6.618  16.056  0.2113 -0.3492 -0.0675
15579TIP3    H168152   0.697   6.671  16.033 -0.1790 -0.0730 -0.7275
15579TIP3    H268153   0.617   6.621  16.151  2.5154 -2.4169  0.1511
15580TIP3   OH268154   0.519   3.901   3.907  0.1718 -0.4608  0.5235
15580TIP3    H168155   0.511   3.830   3.843  0.4002  0.9486 -1.1070
15580TIP3    H268156   0.614   3.918   3.912  0.0061  0.6908 -0.1810
15581TIP3   OH268157   6.146   4.000  16.403 -0.0916  0.0798 -0.4194
15581TIP3    H168158   6.058   4.025  16.431  0.2883 -1.2496  2.0967
15581TIP3    H268159   6.203   4.063  16.447  0.5052 -1.8993  1.7112
15582TIP3   OH268160   0.357   2.995  14.317  0.1749  0.0133 -0.8274
15582TIP3    H168161   0.367   2.981  14.411  0.0791  0.3400 -0.7675
15582TIP3    H268162   0.406   2.923  14.276 -0.1555 -0.3835 -0.5268
15583TIP3   OH268163   5.128   6.687   4.775 -0.2065 -0.6582 -0.7806
15583TIP3    H168164   5.192   6.696   4.704 -0.0063 -1.1999 -0.6704
15583TIP3    H268165   5.066   6.621   4.743 -0.7596 -0.0741 -0.9230
15584TIP3   OH268166   5.795   1.330   3.913 -0.4257  0.3736  0.1244
15584TIP3    H168167   5.780   1.250   3.863  1.1636  1.4466 -2.1286
15584TIP3    H268168   5.707   1.360   3.936 -1.2594  0.2940 -2.7684
15585TIP3   OH268169   1.929   4.606  11.925  0.0332  0.6077  0.0010
15585TIP3    H168170   1.916   4.666  11.999  0.5766  0.3590  0.3007
15585TIP3    H268171   1.850   4.553  11.923 -1.7315  3.1675 -1.9815
15586TIP3   OH268172   4.663   1.416  16.126 -0.1184 -0.0416 -0.2744
15586TIP3    H168173   4.640   1.492  16.180 -0.9771 -0.5371  0.0666
15586TIP3    H268174   4.722   1.364  16.182  1.8073  1.1727 -1.1009
15587TIP3   OH268175   6.597   1.218  15.806 -0.1331 -0.1990 -0.4322
15587TIP3    H168176   6.687   1.218  15.773 -0.2209 -0.1463 -0.6732
15587TIP3    H268177   6.565   1.129  15.790 -0.0615 -0.2718 -0.1740
15588TIP3   OH268178   3.694   5.008  11.960 -0.0109  0.6700  0.6501
15588TIP3    H168179   3.753   5.064  11.910  0.7910 -0.6508  0.0790
15588TIP3    H268180   3.709   5.032  12.051  1.2933  0.4704  0.4959
15589TIP3   OH268181   4.294   4.086   3.561  0.1066 -0.0037 -0.5145
15589TIP3    H168182   4.256   4.002   3.533 -1.4888  0.1361  1.1218
15589TIP3    H268183   4.383   4.064   3.587 -0.1311 -1.1006 -0.5872
15590TIP3   OH268184   4.807   3.979  13.215 -0.1259  0.4074 -0.0908
15590TIP3    H168185   4.890   4.019  13.240 -0.3753  0.3161  0.8892
15590TIP3    H268186   4.759   3.969  13.297 -0.5555 -0.7849 -0.4759
15591TIP3   OH268187   5.395   2.224   5.350  0.5569  0.4471 -0.7035
15591TIP3    H168188   5.405   2.293   5.415 -0.1424 -0.1058 -0.0047
15591TIP3    H268189   5.387   2.144   5.401  1.5643 -0.1870 -1.5111
15592TIP3   OH268190   3.945   1.791  16.824 -0.0431  0.2986 -0.3357
15592TIP3    H168191   3.874   1.732  16.798 -0.5649 -0.2924  2.3185
15592TIP3    H268192   3.942   1.862  16.759 -2.1220 -0.4631 -1.1036
15593TIP3   OH268193   5.393   3.082   1.312 -1.0518  0.1834 -0.4195
15593TIP3    H168194   5.444   3.148   1.359 -0.0394 -1.0384  0.2054
15593TIP3    H268195   5.348   3.131   1.243 -0.8828  1.6452  0.4895
15594TIP3   OH268196   2.436   0.734   1.129  0.0702  0.2854 -0.2587
15594TIP3    H168197   2.411   0.698   1.044  0.3708  1.4355 -0.8402
15594TIP3    H268198   2.500   0.672   1.164 -1.8158 -1.4333  0.1940
15595TIP3   OH268199   4.019   4.832  12.721 -0.0584  0.1452 -0.3841
15595TIP3    H168200   3.949   4.784  12.763 -1.3262  1.2114 -1.2339
15595TIP3    H268201   3.982   4.862  12.638  1.5687  0.2632 -1.0909
15596TIP3   OH268202   5.030   4.826   4.672 -0.4803  0.3271 -0.2292
15596TIP3    H168203   5.067   4.738   4.664  0.9976  0.9293 -0.2701
15596TIP3    H268204   5.054   4.854   4.760 -0.4067  0.9078 -0.4299
15597TIP3   OH268205   0.249   1.745  14.222 -0.2552  0.4332 -0.2181
15597TIP3    H168206   0.234   1.682  14.293 -2.1796 -0.1897 -1.1399
15597TIP3    H268207   0.211   1.827  14.254 -0.6829  0.2774 -0.3231
15598TIP3   OH268208   0.532   0.027  13.996 -0.0814  0.3519  0.1100
15598TIP3    H168209   0.538   0.097  14.061 -0.7722 -0.8631  1.5095
15598TIP3    H268210   0.623   0.009  13.971  0.2623  0.2327  1.3976
15599TIP3   OH268211   3.720   2.427   3.964 -0.1412 -0.3154  0.0708
15599TIP3    H168212   3.762   2.344   3.939 -1.1089 -0.4068 -1.2997
15599TIP3    H268213   3.789   2.492   3.956  0.5213 -0.9322  0.7538
15600TIP3   OH268214   1.170   1.227   6.456  0.3240 -0.2937 -0.6453
15600TIP3    H168215   1.128   1.143   6.439  0.5359 -0.3831 -0.7256
15600TIP3    H268216   1.161   1.275   6.373 -0.5357  0.0819 -0.3410
15601TIP3   OH268217   0.900   5.904   4.069  0.1635  0.1123  0.3041
15601TIP3    H168218   0.915   5.826   4.015 -1.0454 -1.4257  2.1152
15601TIP3    H268219   0.824   5.881   4.122 -0.3111  2.6310  0.7379
15602TIP3   OH268220   6.258   3.470  16.428 -0.1846 -0.1174 -0.2960
15602TIP3    H168221   6.258   3.403  16.360  0.0264  0.0078 -0.4214
15602TIP3    H268222   6.349   3.472  16.460 -0.4315 -0.6556  0.4648
15603TIP3   OH268223   1.981   6.247   5.283  0.1112 -1.0694 -0.1466
15603TIP3    H168224   1.986   6.294   5.200 -0.9386 -1.6327 -0.5470
15603TIP3    H268225   1.889   6.254   5.309  0.7925  0.8125  2.0015
15604TIP3   OH268226   2.704   1.020  16.059 -0.0498  0.3143  0.5835
15604TIP3    H168227   2.787   1.000  16.015 -1.3808 -2.1352 -0.9139
15604TIP3    H268228   2.701   1.116  16.062  2.0445  0.4625 -0.8707
15605TIP3   OH268229   0.071   4.238   3.419  0.2829 -0.1831  0.4196
15605TIP3    H168230  -0.021   4.244   3.392  0.5217  0.4884 -0.2719
15605TIP3    H268231   0.070   4.257   3.512 -0.5049 -2.0950  0.8105
15606TIP3   OH268232   3.420   5.215   1.450  0.1383  0.1814 -0.4064
15606TIP3    H168233   3.440   5.239   1.541  2.2011 -2.2466 -0.1546
15606TIP3    H268234   3.433   5.296   1.401  3.0145  0.5901  0.9198
15607TIP3   OH268235   6.549   2.339   1.862 -0.0904 -0.0975 -0.1839
15607TIP3    H168236   6.516   2.298   1.782  0.5707  1.3723 -1.2289
15607TIP3    H268237   6.534   2.433   1.849  0.8548  0.2333  1.0152
15608TIP3   OH268238   3.598   0.954  15.617  0.8316 -0.0847  0.6085
15608TIP3    H168239   3.570   0.991  15.533  1.8027 -1.3005 -0.2815
15608TIP3    H268240   3.525   0.970  15.676  0.3973  1.3801 -0.2900
15609TIP3   OH268241   4.158   4.921  16.426  0.2878  0.3465  0.2944
15609TIP3    H168242   4.137   4.929  16.333  5.1121 -1.0427 -1.1141
15609TIP3    H268243   4.136   4.831  16.448  1.7114 -0.1595 -0.3019
15610TIP3   OH268244   2.079   2.371  13.136  0.0385  0.7793  0.2675
15610TIP3    H168245   2.112   2.329  13.056 -1.6789 -1.5184  0.7247
15610TIP3    H268246   1.997   2.413  13.108 -1.3907 -1.3454  1.0794
15611TIP3   OH268247   1.842   3.819   5.019  0.1599  0.7166  0.9416
15611TIP3    H168248   1.756   3.815   5.062  0.4690  0.5912  1.5514
15611TIP3    H268249   1.886   3.893   5.059  0.2929  0.8563  0.5393
15612TIP3   OH268250   0.975   0.369  11.106  0.0126 -0.0862 -0.2844
15612TIP3    H168251   0.926   0.365  11.188 -0.5736  2.3213 -0.4920
15612TIP3    H268252   0.928   0.308  11.048  0.1486 -1.4383  0.9992
15613TIP3   OH268253   3.580   5.055   5.056 -0.2914 -0.7187  0.1423
15613TIP3    H168254   3.547   5.126   5.001  0.5701  0.0109  0.5406
15613TIP3    H268255   3.525   4.979   5.035 -0.2992 -0.3102 -1.3431
15614TIP3   OH268256   6.537   2.506  16.552  0.3047  0.5376  0.4882
15614TIP3    H168257   6.511   2.427  16.598  0.5673 -0.1305 -0.4875
15614TIP3    H268258   6.529   2.576  16.617  1.0106 -0.4291  1.6420
15615TIP3   OH268259   1.190   1.609   2.098  0.7112  0.0742  0.2868
15615TIP3    H168260   1.277   1.594   2.137  1.5439  0.6887 -1.2790
15615TIP3    H268261   1.129   1.597   2.171  2.1553  0.1957  1.5586
15616TIP3   OH268262   4.335   5.883   1.426  0.1907  0.4092  0.1570
15616TIP3    H168263   4.356   5.967   1.465 -2.7312  0.0751  2.5657
15616TIP3    H268264   4.373   5.888   1.338  0.7680  3.8859  0.5303
15617TIP3   OH268265   3.929   3.641   0.824  0.6076 -0.1836  0.2935
15617TIP3    H168266   3.899   3.564   0.872 -2.7267  0.1867 -1.0457
15617TIP3    H268267   3.932   3.710   0.890 -1.8694 -0.1779  0.4460
15618TIP3   OH268268   3.139   6.241  16.223  0.2610 -0.0278  0.1394
15618TIP3    H168269   3.220   6.273  16.262  0.6235  0.2234 -0.8101
15618TIP3    H268270   3.074   6.307  16.247  0.3863 -0.1030  0.6938
15619TIP3   OH268271   0.293   6.638  12.519  0.4991  0.0451  0.2583
15619TIP3    H168272   0.230   6.705  12.546  0.6375 -0.4816  1.9339
15619TIP3    H268273   0.363   6.688  12.476 -0.3849  0.7645 -0.3764
15620TIP3   OH268274   4.603   3.852  15.434 -0.0628 -0.3014 -0.3253
15620TIP3    H168275   4.583   3.899  15.515  2.0911  0.1632 -0.0258
15620TIP3    H268276   4.644   3.771  15.463  1.0836  0.0467 -0.9433
15621TIP3   OH268277   4.259   0.494   5.061 -0.0720 -0.0482  0.5305
15621TIP3    H168278   4.342   0.456   5.090 -0.8171 -1.4518  0.8521
15621TIP3    H268279   4.248   0.572   5.115  0.5185 -0.4619  1.2595
15622TIP3   OH268280   1.540   5.203  11.668  0.5573  0.5976 -0.6102
15622TIP3    H168281   1.549   5.172  11.759  1.0834 -1.0462 -1.2083
15622TIP3    H268282   1.593   5.143  11.617 -2.7539 -0.8418 -2.5260
15623TIP3   OH268283   3.085   1.055  12.036  0.0952  0.0360  0.5261
15623TIP3    H168284   3.032   1.032  12.112  0.7605  0.3974  1.1113
15623TIP3    H268285   3.142   0.979  12.022  0.8568  0.4705  1.1856
15624TIP3   OH268286   5.589   6.440  12.572  0.3533  0.0582  0.1174
15624TIP3    H168287   5.604   6.511  12.509 -1.5116 -0.3899 -0.8776
15624TIP3    H268288   5.633   6.364  12.533 -1.4468 -0.4086 -1.0734
15625TIP3   OH268289   4.367   2.869   2.562 -0.0327  0.4028  0.4382
15625TIP3    H168290   4.322   2.935   2.614  0.3194  0.3633  0.7923
15625TIP3    H268291   4.460   2.885   2.578  0.0449 -0.5139  0.9398
15626TIP3   OH268292   3.427   3.690   1.855 -0.0856  0.0323  0.0215
15626TIP3    H168293   3.410   3.767   1.908  0.5475  0.6420 -0.6480
15626TIP3    H268294   3.395   3.617   1.908 -0.8209  0.7611  0.5953
15627TIP3   OH268295   0.299   0.517  15.461 -0.3888 -0.2935  0.0414
15627TIP3    H168296   0.215   0.501  15.418 -0.6187 -0.1252  0.4301
15627TIP3    H268297   0.286   0.490  15.551 -0.2506  0.4214  0.2802
15628TIP3   OH268298   4.965   3.867   3.035 -0.2321  0.1325  0.3624
15628TIP3    H168299   5.060   3.869   3.027 -0.4321  2.2039 -2.3596
15628TIP3    H268300   4.949   3.848   3.128  2.8162  0.1649  0.9467
15629TIP3   OH268301   6.438   5.626  13.554  0.5167 -0.2339  0.7713
15629TIP3    H168302   6.445   5.542  13.509  0.0430 -0.5973  1.3844
15629TIP3    H268303   6.517   5.674  13.527  0.8351 -0.9059  0.5037
15630TIP3   OH268304   4.161   0.413  15.712  0.5326 -0.3075 -0.1947
15630TIP3    H168305   4.127   0.418  15.801  0.4122 -0.0632 -0.2518
15630TIP3    H268306   4.165   0.320  15.693  1.3730 -0.3948  0.3807
15631TIP3   OH268307   5.813   4.766  14.593  0.1751  0.1258 -0.5178
15631TIP3    H168308   5.802   4.788  14.501  0.4256  0.0970 -0.5562
15631TIP3    H268309   5.764   4.685  14.605  1.5667 -0.8199 -1.0330
15632TIP3   OH268310   4.573   3.446   1.612 -0.4499 -0.1866  0.5855
15632TIP3    H168311   4.661   3.418   1.639 -0.5708 -0.9555  0.1984
15632TIP3    H268312   4.589   3.517   1.549 -0.0311 -1.6840 -1.0445
15633TIP3   OH268313   3.522   1.358   1.143 -0.7441 -0.5855  0.3076
15633TIP3    H168314   3.548   1.268   1.159 -0.3026 -0.4795  0.1909
15633TIP3    H268315   3.432   1.363   1.174 -0.2900 -0.6800  1.6877
15634TIP3   OH268316   5.026   4.259  15.267 -0.1725  0.0580  0.1587
15634TIP3    H168317   4.993   4.183  15.219 -0.4318  0.6889 -0.6700
15634TIP3    H268318   5.057   4.319  15.199 -0.7128  1.0445  0.7670
15635TIP3   OH268319   1.558   5.483  14.653  1.1994  0.2241  0.2365
15635TIP3    H168320   1.566   5.574  14.625  2.3942  0.0466 -0.0223
15635TIP3    H268321   1.481   5.481  14.709  0.0561  1.0336 -1.2602
15636TIP3   OH268322   0.233   0.341   6.636  0.1423 -0.2626  0.3566
15636TIP3    H168323   0.257   0.390   6.715  0.5047  0.7581 -0.3683
15636TIP3    H268324   0.270   0.254   6.649 -0.3193 -0.2824  1.5792
15637TIP3   OH268325   3.237   5.443  14.402 -0.1473 -0.5043 -0.1451
15637TIP3    H168326   3.307   5.465  14.342  2.2897  1.9742  3.4233
15637TIP3    H268327   3.179   5.519  14.400 -1.9680 -1.8732 -1.8669
15638TIP3   OH268328   5.966   4.306   0.803  0.5791 -0.7327  0.0973
15638TIP3    H168329   5.938   4.254   0.727  0.1828 -1.6840  0.8878
15638TIP3    H268330   5.977   4.394   0.768 -0.0982 -1.0569 -0.9682
15639TIP3   OH268331   2.496   0.707  11.665 -0.2206 -0.1309 -0.3483
15639TIP3    H168332   2.584   0.744  11.658  0.3982 -1.0646  1.9590
15639TIP3    H268333   2.511   0.614  11.683 -1.6832 -0.3947 -0.4866
15640TIP3   OH268334   0.223   3.902  12.363 -1.0554 -0.1800  0.5246
15640TIP3    H168335   0.129   3.887  12.357 -1.0880 -0.1156  0.8528
15640TIP3    H268336   0.232   3.997  12.372 -0.8819 -0.0516 -0.9012
15641TIP3   OH268337   2.293   4.682  12.905  0.1984  0.1441  0.0029
15641TIP3    H168338   2.242   4.743  12.959  0.8895 -1.0649  2.0916
15641TIP3    H268339   2.329   4.619  12.968  1.6157 -0.9061 -1.8132
15642TIP3   OH268340   4.272   2.744   4.857  0.0881  0.1719 -0.5354
15642TIP3    H168341   4.249   2.819   4.802  0.2755  2.4145  2.3806
15642TIP3    H268342   4.228   2.759   4.940 -0.8968 -3.6107 -0.2625
15643TIP3   OH268343   2.866   2.669   0.870  0.0621 -0.2452 -0.4774
15643TIP3    H168344   2.804   2.727   0.914 -3.3232 -2.4512 -2.1566
15643TIP3    H268345   2.929   2.729   0.828 -2.0102  2.1189 -0.3382
15644TIP3   OH268346   0.031   0.949   6.277  0.2168  0.6248  0.2944
15644TIP3    H168347   0.040   0.878   6.213  0.1076  1.0361 -0.1817
15644TIP3    H268348  -0.049   0.994   6.251 -0.0180  0.5838  0.9340
15645TIP3   OH268349   5.567   5.549  12.630  0.8452  0.2033  0.3867
15645TIP3    H168350   5.589   5.639  12.654  3.7656 -0.5483  0.7660
15645TIP3    H268351   5.601   5.539  12.541 -0.9538 -0.0261 -0.2821
15646TIP3   OH268352   0.370   5.111  13.320 -0.2525 -0.1978 -0.2276
15646TIP3    H168353   0.332   5.190  13.358 -0.3254 -0.0328 -0.6411
15646TIP3    H268354   0.463   5.133  13.307 -0.0988 -0.4523  0.3785
15647TIP3   OH268355   4.734   3.487  11.235  0.3838  0.2448  0.1183
15647TIP3    H168356   4.649   3.474  11.276  1.4784 -0.6004  2.2443
15647TIP3    H268357   4.720   3.466  11.142 -2.0268  1.5944  0.1531
15648TIP3   OH268358   1.480   2.060  16.302 -0.2462  0.0804  0.0297
15648TIP3    H168359   1.431   1.983  16.331 -1.2928  1.0486  0.8782
15648TIP3    H268360   1.538   2.080  16.376  0.3521 -0.1684 -0.3755
15649TIP3   OH268361   2.070   1.205  14.663  0.3426 -0.3087 -0.1600
15649TIP3    H168362   2.060   1.134  14.599 -2.5040  0.7585 -1.0052
15649TIP3    H268363   2.085   1.283  14.610  0.3633  0.2072  0.6046
15650TIP3   OH268364   5.126   2.224   0.477  0.6219 -0.2197 -0.3477
15650TIP3    H168365   5.156   2.280   0.549  1.1995  0.8010 -1.3737
15650TIP3    H268366   5.146   2.135   0.506  0.1843  0.1255  1.0641
15651TIP3   OH268367   0.842   6.438  11.575 -0.6659 -0.5724  0.2203
15651TIP3    H168368   0.929   6.401  11.587 -1.3106 -1.3007  2.8797
15651TIP3    H268369   0.836   6.509  11.639 -1.8185 -0.1148 -0.3634
15652TIP3   OH268370   2.419   2.644  10.475  0.4613 -0.3853 -0.2149
15652TIP3    H168371   2.382   2.683  10.396  0.1037 -1.6328 -0.6750
15652TIP3    H268372   2.509   2.622  10.451  1.0505  1.2377  0.4234
15653TIP3   OH268373   3.528   5.437  15.708  0.6175  0.5950 -0.2100
15653TIP3    H168374   3.515   5.410  15.799  0.4800 -0.1264 -0.4401
15653TIP3    H268375   3.453   5.493  15.689  0.9960  1.2898  0.3271
15654TIP3   OH268376   1.336   4.449  16.643 -0.1687 -0.5213 -0.4384
15654TIP3    H168377   1.261   4.498  16.609 -0.3685 -1.6813 -1.7495
15654TIP3    H268378   1.297   4.373  16.686  0.2013 -0.4163  0.0812
15655TIP3   OH268379   2.218   2.998  11.130 -0.3534 -0.7865 -0.0068
15655TIP3    H168380   2.260   3.017  11.214  1.8292  1.0274 -1.4080
15655TIP3    H268381   2.234   2.905  11.115  0.6240 -0.7708  0.8647
15656TIP3   OH268382   5.787   3.224   1.791 -0.6894  0.0307 -0.2075
15656TIP3    H168383   5.810   3.143   1.746  0.1863  0.6713 -0.9365
15656TIP3    H268384   5.832   3.293   1.741 -0.6856  0.8699  0.9364
15657TIP3   OH268385   6.201   5.139   1.560 -0.5790  0.1223  0.4124
15657TIP3    H168386   6.236   5.174   1.642 -0.4280 -0.2726  0.5199
15657TIP3    H268387   6.139   5.205   1.530  1.4836  1.6014 -0.6293
15658TIP3   OH268388   6.472   0.941  11.114 -0.3068 -0.1508 -0.1437
15658TIP3    H168389   6.482   0.866  11.054  0.1962  0.0482 -0.3096
15658TIP3    H268390   6.418   1.003  11.065  0.2145  0.0675 -0.4462
15659TIP3   OH268391   5.092   3.792  10.506 -0.1905 -0.0702  0.3373
15659TIP3    H168392   5.059   3.707  10.534 -0.3588  0.0536  0.5173
15659TIP3    H268393   5.016   3.836  10.467  0.0406 -0.2414 -0.3205
15660TIP3   OH268394   1.914   5.919   0.701 -0.1844 -0.0146 -0.4080
15660TIP3    H168395   1.823   5.943   0.681  0.1387  0.8173 -0.9047
15660TIP3    H268396   1.938   5.857   0.633 -0.2494  0.0854 -0.5225
15661TIP3   OH268397   0.676   0.818  12.660 -0.0348 -0.5909  0.3442
15661TIP3    H168398   0.723   0.900  12.671  2.4851 -2.1869  1.9899
15661TIP3    H268399   0.727   0.769  12.595 -1.8502 -0.6668 -1.0782
15662TIP3   OH268400   6.772   5.311  13.456 -0.2076 -0.5211  0.1026
15662TIP3    H168401   6.851   5.355  13.425 -2.0516  1.9067 -1.2586
15662TIP3    H268402   6.791   5.217  13.446  1.7490  0.0800 -2.0901
15663TIP3   OH268403   2.279   5.632   2.674  0.1588  0.0577 -0.4093
15663TIP3    H168404   2.293   5.538   2.688  1.2539  0.0848 -1.2634
15663TIP3    H268405   2.265   5.641   2.580 -0.6151  0.6665 -0.2364
15664TIP3   OH268406   5.122   3.371  12.206  0.5922 -0.2248  0.0335
15664TIP3    H168407   5.150   3.311  12.275 -1.5224 -1.1785  0.0786
15664TIP3    H268408   5.076   3.316  12.143  0.9346  0.9322 -1.2555
15665TIP3   OH268409   2.341   4.144  10.263 -0.2596  0.1522 -0.4305
15665TIP3    H168410   2.379   4.159  10.176 -0.5062  1.2680 -0.3546
15665TIP3    H268411   2.312   4.053  10.261  1.0809 -0.2797 -0.9987
15666TIP3   OH268412   6.364   0.298   2.893 -0.9034  0.7325 -0.4606
15666TIP3    H168413   6.370   0.393   2.907 -1.5979  0.8393 -0.8721
15666TIP3    H268414   6.366   0.261   2.981  0.1052  1.0894 -0.3366
15667TIP3   OH268415   6.549   4.864  12.114  0.2670  0.4342  0.7039
15667TIP3    H168416   6.636   4.896  12.094  0.4051 -0.4506 -0.1361
15667TIP3    H268417   6.495   4.892  12.040 -0.1625  0.9501  1.2022
15668TIP3   OH268418   0.674   0.353  13.958 -0.0501  0.0295  0.5738
15668TIP3    H168419   0.768   0.347  13.973  0.0291  0.4101  0.2218
15668TIP3    H268420   0.639   0.389  14.040  0.3967  2.2010 -0.1676
15669TIP3   OH268421   6.185   6.446  13.614 -0.4652 -0.1388  1.0862
15669TIP3    H168422   6.217   6.492  13.692  0.9875  1.2059 -0.2695
15669TIP3    H268423   6.095   6.477  13.604 -0.4498  0.1772  1.8424
15670TIP3   OH268424   2.076   4.842   5.273  0.5670 -0.4274 -0.1896
15670TIP3    H168425   2.087   4.813   5.183 -0.8593  1.4449 -1.0007
15670TIP3    H268426   1.982   4.855   5.283  0.5871 -1.6423  1.9166
15671TIP3   OH268427   5.510   0.799  16.297  0.3335  0.3545 -0.5395
15671TIP3    H168428   5.565   0.876  16.283 -0.6441  1.0706 -0.4966
15671TIP3    H268429   5.429   0.818  16.249 -0.1332 -0.4060 -0.0659
15672TIP3   OH268430   1.589   4.292  15.535 -0.5666  0.4865  1.0545
15672TIP3    H168431   1.548   4.206  15.540 -0.5709  0.4715  0.7584
15672TIP3    H268432   1.562   4.327  15.450 -1.4267  1.2095  1.6064
15673TIP3   OH268433   0.761   0.813   2.787 -0.0611  0.2268 -0.1152
15673TIP3    H168434   0.803   0.776   2.710 -0.0368 -1.8354  0.8539
15673TIP3    H268435   0.671   0.833   2.759 -0.6171 -2.2783 -0.1750
15674TIP3   OH268436   2.520   2.521   3.105  0.4924  0.1514 -0.4125
15674TIP3    H168437   2.517   2.614   3.127  2.0773  0.6399 -2.1010
15674TIP3    H268438   2.436   2.504   3.062  0.3878  0.9216 -0.5194
15675TIP3   OH268439   3.019   5.643   3.236  0.2422  0.2891  0.9026
15675TIP3    H168440   2.984   5.583   3.302 -1.1542 -0.0449 -0.1271
15675TIP3    H268441   3.069   5.707   3.287  0.0005 -0.5191  2.1942
15676TIP3   OH268442   0.948   0.080   5.782  0.7268 -0.1053 -0.3075
15676TIP3    H168443   1.027   0.075   5.835  0.5591 -2.9219 -0.2711
15676TIP3    H268444   0.949   0.001   5.729 -1.9551 -0.0988 -0.4523
15677TIP3   OH268445   6.502   5.600  12.200  0.2772  0.6724  0.8176
15677TIP3    H168446   6.460   5.653  12.268  2.1320 -0.0242  2.5703
15677TIP3    H268447   6.473   5.511  12.219 -0.7016  0.7084 -0.4844
15678TIP3   OH268448   3.583   6.175  15.416  0.0007  0.1951 -0.5835
15678TIP3    H168449   3.605   6.091  15.456  0.8818 -0.2172 -1.9100
15678TIP3    H268450   3.490   6.186  15.434  0.3832  0.0438  1.5911
15679TIP3   OH268451   5.982   6.030  15.069  0.2368  0.7057  0.3023
15679TIP3    H168452   6.047   6.088  15.107  2.8606  0.1968 -3.1127
15679TIP3    H268453   5.990   6.043  14.974 -2.5368 -1.6128 -0.3455
15680TIP3   OH268454   6.172   2.242  16.486  0.1615 -0.0862  0.0135
15680TIP3    H168455   6.102   2.188  16.523 -1.0582  0.5244 -1.3446
15680TIP3    H268456   6.153   2.245  16.392  1.3157  1.0959 -0.1955
15681TIP3   OH268457   0.570   1.442  12.556 -0.9857  0.0616 -0.2913
15681TIP3    H168458   0.554   1.475  12.645  0.4574  0.6801 -0.2462
15681TIP3    H268459   0.529   1.507  12.499 -0.7534  0.3643 -0.1167
15682TIP3   OH268460   0.017   0.410  12.336 -0.7120  0.2170 -0.1819
15682TIP3    H168461   0.085   0.416  12.270 -2.9900  1.5194 -2.5157
15682TIP3    H268462  -0.034   0.333  12.312 -1.0480  0.2047  0.5568
15683TIP3   OH268463   0.235   4.577   1.770  0.5597  0.1825  0.1846
15683TIP3    H168464   0.189   4.634   1.708  1.5206  1.2010  0.3780
15683TIP3    H268465   0.304   4.535   1.718  1.8412  1.6034  0.6820
15684TIP3   OH268466   3.366   1.106  13.199  0.5194 -0.1891  0.2009
15684TIP3    H168467   3.433   1.152  13.147  1.5793  0.2300  1.9145
15684TIP3    H268468   3.408   1.089  13.283 -0.2848 -3.2226  0.0403
15685TIP3   OH268469   6.348   1.573  14.920 -0.3305  0.9976 -0.9943
15685TIP3    H168470   6.308   1.494  14.957  0.9638 -0.2783 -2.2606
15685TIP3    H268471   6.285   1.643  14.939 -0.7635 -0.0248  1.5573
15686TIP3   OH268472   0.772   0.093   5.425 -0.1836  0.5697  0.4380
15686TIP3    H168473   0.709   0.146   5.474 -2.6282 -1.0124 -0.8778
15686TIP3    H268474   0.731   0.080   5.339  1.6994 -0.9343 -0.2661
15687TIP3   OH268475   2.562   5.372   1.744  0.0579 -0.0550  0.1506
15687TIP3    H168476   2.525   5.304   1.687  1.1845 -1.3944  0.9964
15687TIP3    H268477   2.508   5.370   1.823 -0.1398  0.3063  0.0284
15688TIP3   OH268478   5.462   3.909  12.099 -0.1342 -0.0807  0.2977
15688TIP3    H168479   5.533   3.970  12.119 -0.7309  1.0480 -0.9391
15688TIP3    H268480   5.461   3.903  12.004 -1.1684 -0.7043  0.3432
15689TIP3   OH268481   5.312   2.738  14.941  0.6440  0.0543 -0.3634
15689TIP3    H168482   5.392   2.687  14.931 -0.8565 -2.6452  0.7922
15689TIP3    H268483   5.299   2.746  15.035 -0.2605  0.7630 -0.5358
15690TIP3   OH268484   6.557   4.953  12.404  0.2291  0.3012 -0.2598
15690TIP3    H168485   6.624   4.897  12.442 -2.2690 -2.0519  0.7851
15690TIP3    H268486   6.546   4.921  12.315  1.2688  1.4574 -0.8314
15691TIP3   OH268487   2.047   6.457   3.776 -0.1937 -0.0398  0.3147
15691TIP3    H168488   2.108   6.387   3.753  0.0335 -0.1848  1.3605
15691TIP3    H268489   2.017   6.436   3.864 -1.0852  0.5078  0.1458
15692TIP3   OH268490   1.073   1.524  13.829  0.3153  0.0703 -0.5723
15692TIP3    H168491   1.141   1.567  13.777 -0.9316  0.5774 -1.8379
15692TIP3    H268492   1.012   1.489  13.764  0.2600 -1.8760  0.5048
15693TIP3   OH268493   1.508   1.173   0.547 -0.3129  0.2210  0.6924
15693TIP3    H168494   1.475   1.207   0.630  0.5548  1.0189  0.7201
15693TIP3    H268495   1.582   1.117   0.572 -0.3822  0.0418  0.4989
15694TIP3   OH268496   6.171   2.904   4.590  0.4124  0.4065 -0.1809
15694TIP3    H168497   6.127   2.983   4.558 -1.1279 -0.2342  0.2579
15694TIP3    H268498   6.208   2.864   4.511 -0.9000  0.3213 -0.7797
15695TIP3   OH268499   2.165   0.914  12.827  0.8314 -0.0969  0.0573
15695TIP3    H168500   2.085   0.934  12.876  0.0474  1.2426 -1.6964
15695TIP3    H268501   2.179   0.991  12.772  2.1548 -1.2109 -1.2143
15696TIP3   OH268502   2.796   1.183   1.242  0.2420 -0.2127 -0.6373
15696TIP3    H168503   2.804   1.232   1.160  0.4714  0.2368 -0.3492
15696TIP3    H268504   2.830   1.242   1.309  2.0628 -1.3947 -0.5035
15697TIP3   OH268505   0.100   2.852   0.637 -0.1587  0.3009 -0.1765
15697TIP3    H168506   0.089   2.873   0.730 -3.0536  2.6085 -0.9823
15697TIP3    H268507   0.163   2.781   0.637  1.7497  1.8256  3.4209
15698TIP3   OH268508   4.680   3.299   2.179  0.0922 -0.0172 -0.2320
15698TIP3    H168509   4.589   3.291   2.151  0.5084  2.8415 -2.6317
15698TIP3    H268510   4.676   3.342   2.265 -0.8053 -0.0319 -0.2693
15699TIP3   OH268511   3.897   1.431  11.972 -0.1843 -0.1499  0.0680
15699TIP3    H168512   3.919   1.497  12.038  2.6106 -1.7782  0.8222
15699TIP3    H268513   3.977   1.418  11.922 -0.5422 -3.2264  0.1855
15700TIP3   OH268514   0.102   3.765  12.931  0.2044 -0.2072 -0.0714
15700TIP3    H168515   0.023   3.714  12.911  0.2344 -0.4668  0.4728
15700TIP3    H268516   0.102   3.835  12.865 -2.0735  1.5404  1.6790
15701TIP3   OH268517   2.550   2.773  15.109  0.2987 -0.0641  0.1702
15701TIP3    H168518   2.562   2.851  15.164 -0.8703  0.3410 -0.1332
15701TIP3    H268519   2.607   2.789  15.033 -1.6158  1.5504 -0.9628
15702TIP3   OH268520   3.585   3.432   0.177 -0.1862  0.1227  0.0468
15702TIP3    H168521   3.517   3.379   0.219  0.6695 -0.8011  0.3061
15702TIP3    H268522   3.655   3.438   0.243  0.7466 -0.4978 -0.8618
15703TIP3   OH268523   0.721   4.968  15.308 -0.1224 -0.0322  0.2918
15703TIP3    H168524   0.650   4.985  15.370 -0.1638  0.8999 -0.0072
15703TIP3    H268525   0.680   4.916  15.239 -0.6165  0.8913 -0.1036
15704TIP3   OH268526   1.216   3.247  14.285 -0.0911 -0.2691  0.0780
15704TIP3    H168527   1.180   3.326  14.245 -0.5589 -0.8191 -0.6003
15704TIP3    H268528   1.174   3.242  14.370 -1.4169 -0.7564 -0.5974
15705TIP3   OH268529   4.527   3.311  12.960  0.7942 -0.1947  0.1409
15705TIP3    H168530   4.450   3.341  13.008 -0.3975 -2.6115 -0.1909
15705TIP3    H268531   4.586   3.277  13.027 -0.3947 -2.5320  0.0530
15706TIP3   OH268532   5.102   6.284  12.681 -0.5271  0.0589 -0.8132
15706TIP3    H168533   5.163   6.255  12.614  0.0447  0.8924 -0.6624
15706TIP3    H268534   5.152   6.347  12.733  0.1568 -3.0513  2.5124
15707TIP3   OH268535   6.647   4.486   1.457  0.4664 -0.2214 -0.2230
15707TIP3    H168536   6.657   4.568   1.407 -1.4701 -0.0352 -0.3410
15707TIP3    H268537   6.576   4.440   1.413 -0.6162 -0.5138  1.7744
15708TIP3   OH268538   2.726   3.136   1.055  0.2156  0.1639 -0.1363
15708TIP3    H168539   2.650   3.178   1.015  0.4905  2.4376  1.5763
15708TIP3    H268540   2.792   3.135   0.986 -0.7643 -0.0975 -1.0673
15709TIP3   OH268541   4.406   0.769  10.777  0.2145 -0.3082  0.4246
15709TIP3    H168542   4.345   0.748  10.707  0.6181 -1.9528  0.5497
15709TIP3    H268543   4.352   0.771  10.856  0.0626 -0.2021  0.3174
15710TIP3   OH268544   3.405   5.107   3.907  0.2381 -0.1374  0.5870
15710TIP3    H168545   3.367   5.191   3.935 -0.8055 -0.7969  1.1634
15710TIP3    H268546   3.497   5.128   3.890 -0.3659  1.4710 -0.8408
15711TIP3   OH268547   3.364   0.233   5.098 -0.2298 -0.0211  0.2107
15711TIP3    H168548   3.275   0.207   5.122  0.9445 -1.8973  2.6843
15711TIP3    H268549   3.369   0.325   5.124 -2.0742  0.7541 -1.9211
15712TIP3   OH268550   4.309   3.071   4.202  0.0475 -0.1593 -0.1697
15712TIP3    H168551   4.400   3.048   4.221  0.4221 -0.0037 -1.7067
15712TIP3    H268552   4.259   3.027   4.271  1.2980  0.0131  0.8767
15713TIP3   OH268553   2.043   4.364   0.207 -0.1583 -0.0872  0.3463
15713TIP3    H168554   1.989   4.379   0.285 -3.4996 -1.0020 -1.6834
15713TIP3    H268555   2.005   4.421   0.140 -0.2564 -2.6364 -1.8656
15714TIP3   OH268556   1.277   2.558  15.127 -0.5598 -0.1649  0.1987
15714TIP3    H168557   1.371   2.573  15.131 -0.3985 -1.1919  0.4640
15714TIP3    H268558   1.260   2.535  15.035 -0.6909  0.9040 -0.0428
15715TIP3   OH268559   1.750   4.867   2.753  0.2089  0.1581  0.2706
15715TIP3    H168560   1.744   4.798   2.819  0.0214 -0.7466 -0.6688
15715TIP3    H268561   1.774   4.821   2.672 -2.2430  0.8364 -0.9175
15716TIP3   OH268562   2.699   4.377   1.300 -0.2465 -0.2315 -0.1223
15716TIP3    H168563   2.730   4.299   1.254  1.3756  0.0177  0.4931
15716TIP3    H268564   2.677   4.439   1.230  0.0715 -0.6465 -0.5965
15717TIP3   OH268565   0.631   3.863   2.803 -0.1190 -0.1805 -0.7125
15717TIP3    H168566   0.663   3.930   2.743 -0.1273  1.5223  1.1435
15717TIP3    H268567   0.708   3.810   2.823  0.5002  0.9063 -0.1360
15718TIP3   OH268568   4.331   5.798   0.828 -0.3231 -0.1809 -0.2375
15718TIP3    H168569   4.237   5.790   0.811 -0.4389 -0.6332  0.6322
15718TIP3    H268570   4.337   5.856   0.904 -0.0275 -2.4197  1.4892
15719TIP3   OH268571   1.685   0.383   5.923 -0.1271 -0.0282  0.1294
15719TIP3    H168572   1.736   0.464   5.922  1.3742 -0.8965  2.0150
15719TIP3    H268573   1.608   0.403   5.976 -0.5360  0.5948 -0.6955
15720TIP3   OH268574   5.096   0.725   0.140  0.2065  0.5214 -0.9669
15720TIP3    H168575   5.162   0.794   0.131 -1.1042  2.0640  0.8535
15720TIP3    H268576   5.043   0.731   0.061 -0.6168  2.3914 -0.2792
15721TIP3   OH268577   0.885   3.592   3.910 -0.0226 -1.0370 -0.0443
15721TIP3    H168578   0.851   3.669   3.956 -1.3880 -1.4446 -0.3728
15721TIP3    H268579   0.813   3.562   3.856  0.7412 -2.1344 -0.4640
15722TIP3   OH268580   6.454   2.222  13.289 -0.0862 -0.8919  0.1535
15722TIP3    H168581   6.474   2.149  13.347  1.3346 -0.1640  0.5905
15722TIP3    H268582   6.532   2.230  13.233 -0.1266  0.4632  0.2946
15723TIP3   OH268583   3.616   4.722  13.151  0.4475 -0.1697  0.9907
15723TIP3    H168584   3.590   4.640  13.194  1.1253 -0.2143  1.3195
15723TIP3    H268585   3.618   4.787  13.221  1.1053 -0.1422  0.9472
15724TIP3   OH268586   4.244   3.795   4.289 -0.3069  0.4948  0.4664
15724TIP3    H168587   4.240   3.702   4.308  0.2316  0.6315  1.2630
15724TIP3    H268588   4.305   3.830   4.353 -0.7863  1.4562  0.4080
15725TIP3   OH268589   5.217   1.828   1.269 -0.4901 -0.0805  0.2253
15725TIP3    H168590   5.135   1.785   1.246 -0.1749 -0.2615 -0.5657
15725TIP3    H268591   5.191   1.896   1.331 -1.3036  0.2050 -0.4211
15726TIP3   OH268592   3.233   0.084  15.104  0.2409 -0.1531 -0.5982
15726TIP3    H168593   3.231   0.109  15.012  0.5966 -0.1800 -0.6115
15726TIP3    H268594   3.326   0.082  15.127  0.2815 -2.4298 -0.8624
15727TIP3   OH268595   0.955   3.125   5.487  0.0083 -0.0206  0.4557
15727TIP3    H168596   0.863   3.136   5.510  0.4005 -0.7749  2.4704
15727TIP3    H268597   1.003   3.147   5.567  1.5964  0.3652 -0.5622
15728TIP3   OH268598   4.311   5.326   0.389  0.2286 -0.2815  0.0787
15728TIP3    H168599   4.353   5.325   0.475  0.3835 -0.3336  0.0026
15728TIP3    H268600   4.342   5.246   0.346  0.8513  0.1953 -0.3621
15729TIP3   OH268601   6.090   1.585  15.172  0.1307 -0.5905  0.7588
15729TIP3    H168602   6.069   1.527  15.099  0.2926  0.5933 -0.2414
15729TIP3    H268603   6.163   1.542  15.217  1.2155 -0.4709 -0.8396
15730TIP3   OH268604   1.027   1.363  14.921 -0.3159 -0.4072 -0.0457
15730TIP3    H168605   1.045   1.413  15.000  1.2605 -0.5699 -0.2837
15730TIP3    H268606   0.940   1.392  14.893 -0.5549  0.2012  1.3166
15731TIP3   OH268607   2.262   5.088  12.658 -0.5445  0.1710  0.0930
15731TIP3    H168608   2.326   5.109  12.589  0.1540 -0.4964  0.5264
15731TIP3    H268609   2.247   5.172  12.702  2.1647 -0.1525  1.7584
15732TIP3   OH268610   4.702   5.106  12.070 -0.5028 -0.4512  0.5617
15732TIP3    H168611   4.616   5.070  12.050 -0.9126  1.5268 -1.5162
15732TIP3    H268612   4.684   5.178  12.131 -0.3351  0.0021  0.0778
15733TIP3   OH268613   2.957   1.575  15.233  0.3259  0.5573 -0.3851
15733TIP3    H168614   2.881   1.547  15.285  1.3275 -1.0162  0.2828
15733TIP3    H268615   3.024   1.596  15.299  0.3296  2.3732 -0.9545
15734TIP3   OH268616   0.448   6.493  13.533  0.2592  0.1566 -0.0833
15734TIP3    H168617   0.507   6.564  13.508  3.3092 -1.9018  1.0840
15734TIP3    H268618   0.414   6.460  13.450  1.1857  1.0166 -0.8157
15735TIP3   OH268619   1.633   1.248  14.405 -0.5844 -0.0613  0.0767
15735TIP3    H168620   1.572   1.272  14.335 -1.5320 -1.6859  0.3163
15735TIP3    H268621   1.608   1.302  14.479 -1.5581 -0.5237  0.0860
15736TIP3   OH268622   2.457   6.561  11.902 -0.4615  0.5976  0.5543
15736TIP3    H168623   2.379   6.588  11.854 -0.8342  0.6368  1.1853
15736TIP3    H268624   2.488   6.484  11.855 -0.4023  1.0717 -0.1953
15737TIP3   OH268625   6.436   2.464  16.043  0.0353  0.2630  0.2936
15737TIP3    H168626   6.499   2.399  16.013  2.0811  2.2004  0.3334
15737TIP3    H268627   6.426   2.447  16.137  0.3878 -0.1261  0.2603
15738TIP3   OH268628   3.610   6.099   6.080 -0.5542 -0.1419 -0.2884
15738TIP3    H168629   3.670   6.097   6.155 -0.0927 -1.7581 -0.6726
15738TIP3    H268630   3.668   6.097   6.004 -1.0585 -0.1485 -0.6671
15739TIP3   OH268631   4.345   4.695  11.709  0.2101  0.1005  0.1726
15739TIP3    H168632   4.275   4.740  11.757 -0.2616 -0.2067 -0.2150
15739TIP3    H268633   4.422   4.750  11.721 -0.0096  0.2552  0.9118
15740TIP3   OH268634   0.059   5.459  12.599 -0.2220  0.5089 -1.0859
15740TIP3    H168635   0.081   5.530  12.660  1.0890 -0.6562 -0.1864
15740TIP3    H268636   0.013   5.395  12.653  0.6375 -0.3704 -1.3877
15741TIP3   OH268637   6.570   5.207  13.715  0.0225 -0.1863 -0.3047
15741TIP3    H168638   6.593   5.253  13.634 -0.4351 -1.5546 -1.2234
15741TIP3    H268639   6.588   5.115  13.696 -0.2662 -0.5382  1.0977
15742TIP3   OH268640   2.470   0.344  14.294 -0.3591 -0.1014  0.3284
15742TIP3    H168641   2.473   0.425  14.245 -1.4488  0.3431  0.9720
15742TIP3    H268642   2.485   0.370  14.385  1.9664 -0.9514  0.2056
15743TIP3   OH268643   0.002   1.320  12.396 -0.2779  0.1842 -0.1853
15743TIP3    H168644   0.048   1.267  12.461 -0.2999  0.5630  0.1493
15743TIP3    H268645  -0.081   1.274  12.382  0.0208 -0.2659 -0.4629
15744TIP3   OH268646   3.989   3.305  16.465  0.0009  0.3640 -0.0488
15744TIP3    H168647   3.984   3.218  16.504 -0.9633  0.0425 -0.8647
15744TIP3    H268648   4.038   3.357  16.528  1.4205 -1.0080  0.0189
15745TIP3   OH268649   5.925   0.573   4.870 -0.4244 -0.2213 -0.2893
15745TIP3    H168650   5.985   0.574   4.945 -0.0338 -0.9045 -0.5939
15745TIP3    H268651   5.885   0.487   4.873 -0.4540 -0.2279 -0.8362
15746TIP3   OH268652   4.533   1.666  16.986  0.1923  0.3509  0.2999
15746TIP3    H168653   4.623   1.680  17.017 -0.0741 -0.2605  1.3592
15746TIP3    H268654   4.501   1.754  16.966  1.4500  0.4709 -1.2950
15747TIP3   OH268655   6.613   3.045  15.014 -0.2719  0.3645  0.5710
15747TIP3    H168656   6.538   3.058  14.957 -0.0725  1.3405  0.5249
15747TIP3    H268657   6.576   3.008  15.095 -0.9770  2.0747  1.0419
15748TIP3   OH268658   3.958   2.291  14.482 -0.0692 -0.3837  0.7774
15748TIP3    H168659   3.906   2.371  14.498  0.6864  0.3604 -0.3952
15748TIP3    H268660   3.997   2.271  14.567 -1.2914 -0.2489  1.3911
15749TIP3   OH268661   2.280   5.694   2.336  0.4717 -0.1877  0.3231
15749TIP3    H168662   2.233   5.616   2.366  0.3813  0.0260  0.7291
15749TIP3    H268663   2.371   5.665   2.330  0.7492  0.2252  2.3731
15750TIP3   OH268664   2.228   3.942  11.675  0.6987  0.0245  1.0360
15750TIP3    H168665   2.263   4.030  11.682 -1.5859  0.9324  1.2439
15750TIP3    H268666   2.227   3.909  11.765  1.4307 -0.1846  0.9723
15751TIP3   OH268667   4.335   1.208  11.787 -0.2943  0.8628  0.7582
15751TIP3    H168668   4.411   1.230  11.841 -0.4881 -0.8873  1.7919
15751TIP3    H268669   4.281   1.152  11.843 -1.8713  1.2853 -0.3090
15752TIP3   OH268670   3.681   6.150  16.183  0.5710  0.1353  0.0813
15752TIP3    H168671   3.711   6.237  16.157  1.2567 -0.1898 -0.2143
15752TIP3    H268672   3.615   6.168  16.250  1.6730  0.8606  1.0131
15753TIP3   OH268673   2.652   4.670  12.712 -0.0037  0.1403  0.0967
15753TIP3    H168674   2.657   4.598  12.649 -1.1099 -1.7076  2.0540
15753TIP3    H268675   2.570   4.715  12.689 -0.6524 -0.8165  0.4898
15754TIP3   OH268676   6.640   2.989   4.248 -0.0027  0.2926 -0.2686
15754TIP3    H168677   6.726   2.987   4.289 -0.8863 -1.1091  1.6034
15754TIP3    H268678   6.658   2.990   4.154  2.0746 -3.3194  0.0028
15755TIP3   OH268679   4.463   2.315   2.739 -0.4144 -0.3866  0.7554
15755TIP3    H168680   4.411   2.380   2.692  1.7606 -0.1296 -1.3672
15755TIP3    H268681   4.509   2.266   2.671 -0.6414 -3.0147  2.4073
15756TIP3   OH268682   2.104   6.304  11.422  0.1607  0.1734 -0.5024
15756TIP3    H168683   2.067   6.378  11.471 -0.9866  2.0971 -4.0257
15756TIP3    H268684   2.029   6.268  11.374  1.1375 -1.9153 -0.4968
15757TIP3   OH268685   2.331   2.334   0.330 -0.1046 -0.2537  0.1089
15757TIP3    H168686   2.235   2.332   0.332 -0.1949  1.7056 -1.0569
15757TIP3    H268687   2.353   2.421   0.294  2.0877 -1.0428 -0.5518
15758TIP3   OH268688   1.843   6.664  13.502  0.1277  0.3591  0.4036
15758TIP3    H168689   1.832   6.704  13.416  1.0065 -0.9847 -0.3564
15758TIP3    H268690   1.756   6.632  13.525 -0.2717  1.4049  0.3702
15759TIP3   OH268691   6.180   1.360   0.557  0.4797  0.0382  0.2579
15759TIP3    H168692   6.260   1.407   0.580 -0.8609  1.6714  1.7311
15759TIP3    H268693   6.122   1.427   0.521 -1.0291 -0.6751  1.3022
15760TIP3   OH268694   5.127   1.623   0.223  0.3650 -0.0671  0.3137
15760TIP3    H168695   5.210   1.581   0.201 -0.4916 -2.9463  2.4647
15760TIP3    H268696   5.137   1.652   0.313 -0.9213 -0.2415  0.5187
15761TIP3   OH268697   5.919   3.175  15.362 -0.2286 -0.0279  0.3375
15761TIP3    H168698   5.825   3.192  15.360 -0.2527 -0.0400  1.1551
15761TIP3    H268699   5.956   3.233  15.296 -0.8273 -0.1445 -0.1011
15762TIP3   OH268700   6.344   6.168  14.538 -0.1568  0.4056  0.5026
15762TIP3    H168701   6.403   6.166  14.463 -0.2038 -1.0110  0.4841
15762TIP3    H268702   6.275   6.107  14.515 -1.1610  1.3779  0.9135
15763TIP3   OH268703   2.731   4.824   4.400  0.5230  0.1755  0.2381
15763TIP3    H168704   2.709   4.736   4.369  0.0138  1.0603 -2.0471
15763TIP3    H268705   2.801   4.811   4.464 -0.2662 -1.9644  0.7014
15764TIP3   OH268706   3.213   5.271  16.721  0.3107  0.2508  1.1179
15764TIP3    H168707   3.191   5.188  16.763 -1.1392 -0.0585 -0.2210
15764TIP3    H268708   3.308   5.271  16.716  0.4109 -0.5601  2.6778
15765TIP3   OH268709   6.400   0.033  15.529 -0.4224 -0.6533 -0.5606
15765TIP3    H168710   6.307   0.044  15.549  0.0281 -0.7198  1.7929
15765TIP3    H268711   6.423   0.108  15.474 -1.0199  1.4898  2.0281
15766TIP3   OH268712   5.839   1.565   2.271 -0.1901 -0.0647  0.0602
15766TIP3    H168713   5.765   1.594   2.218  0.6862  0.6646 -0.8016
15766TIP3    H268714   5.916   1.581   2.215  0.7323  0.4502  1.4407
15767TIP3   OH268715   4.522   4.318   0.921 -0.7086  0.1422  0.1061
15767TIP3    H168716   4.496   4.227   0.935  0.4073 -0.0070  1.2354
15767TIP3    H268717   4.490   4.364   0.998 -0.8794  0.6415 -0.2571
15768TIP3   OH268718   5.638   6.727   1.269  0.2631  0.1661  0.0169
15768TIP3    H168719   5.724   6.767   1.282  0.2890  0.0176  0.3014
15768TIP3    H268720   5.616   6.691   1.355  0.1278 -0.2097 -0.1772
15769TIP3   OH268721   5.220   0.599  15.257  0.1453  0.2774 -0.9285
15769TIP3    H168722   5.135   0.569  15.226 -0.2149 -0.6544  0.9238
15769TIP3    H268723   5.278   0.524  15.246  0.4033  0.4675 -0.8748
15770TIP3   OH268724   0.987   6.595   2.582  0.5586  0.4287 -0.4750
15770TIP3    H168725   0.898   6.610   2.551  0.9051  0.9340 -1.2220
15770TIP3    H268726   0.993   6.648   2.662 -0.7071 -1.7912  1.1360
15771TIP3   OH268727   4.862   1.907  12.619 -0.4657 -0.0252 -0.4779
15771TIP3    H168728   4.942   1.941  12.579 -0.1031  0.8886  1.0069
15771TIP3    H268729   4.870   1.812  12.610  2.3800 -0.1578  2.5143
15772TIP3   OH268730   2.776   6.610   5.146  0.5664  0.4620  0.0185
15772TIP3    H168731   2.838   6.545   5.114  1.0175  0.6936  0.4146
15772TIP3    H268732   2.807   6.631   5.234  0.7470  1.6144 -0.3066
15773TIP3   OH268733   1.137   1.786  16.998  0.2176 -0.3940  0.4440
15773TIP3    H168734   1.205   1.724  16.970  0.2439  0.5974 -1.8010
15773TIP3    H268735   1.186   1.862  17.030  0.2091  0.4019 -1.3642
15774TIP3   OH268736   6.166   5.907  13.833  0.7484 -0.6721 -0.1285
15774TIP3    H168737   6.168   5.981  13.894  0.9252 -1.2868  0.6190
15774TIP3    H268738   6.130   5.944  13.752 -0.2930 -0.0457  0.6048
15775TIP3   OH268739   5.718   1.079   3.822 -0.3136  0.1476  0.7699
15775TIP3    H168740   5.760   1.037   3.747  1.2806  2.0012  0.5751
15775TIP3    H268741   5.625   1.074   3.803 -0.1215 -2.2460  0.2215
15776TIP3   OH268742   0.954   2.712  13.692  0.2576 -0.8038 -0.1006
15776TIP3    H168743   1.035   2.689  13.739  0.9831  2.4809  0.3449
15776TIP3    H268744   0.934   2.801  13.719 -2.2843 -0.7311 -1.9844
15777TIP3   OH268745   2.280   4.698   0.422  0.1169 -0.2027 -0.1521
15777TIP3    H168746   2.318   4.785   0.431  1.0647 -0.3875 -1.9986
15777TIP3    H268747   2.230   4.702   0.340 -0.5332 -1.1311  0.1888
15778TIP3   OH268748   3.161   4.373   2.650 -0.3356  0.3931 -0.3615
15778TIP3    H168749   3.079   4.350   2.607  0.7817  1.9671 -3.4150
15778TIP3    H268750   3.183   4.295   2.703 -3.3137 -0.3515 -0.1552
15779TIP3   OH268751   0.626   0.404  16.052  0.0189 -0.1735 -0.2391
15779TIP3    H168752   0.632   0.480  16.111 -1.9632 -0.5552  0.4861
15779TIP3    H268753   0.704   0.353  16.072  0.6295  0.9423  0.3058
15780TIP3   OH268754   5.576   2.621  14.974  0.4270 -0.0475 -0.3387
15780TIP3    H168755   5.607   2.698  15.020  0.5562 -0.0834 -0.3638
15780TIP3    H268756   5.652   2.590  14.924  0.0642  0.4678 -1.2236
15781TIP3   OH268757   2.469   4.140  16.715  0.0972  0.1558 -0.0045
15781TIP3    H168758   2.446   4.111  16.626 -0.3241 -2.0083  0.7782
15781TIP3    H268759   2.555   4.181  16.705  1.1606 -2.2350 -1.0418
15782TIP3   OH268760   3.287   3.565   1.631 -0.0216 -0.1339  0.2908
15782TIP3    H168761   3.307   3.476   1.659  1.3115  0.3310  0.8568
15782TIP3    H268762   3.334   3.621   1.693 -0.7653  0.9652 -0.1177
15783TIP3   OH268763   1.472   1.343   6.134 -0.6724  0.4798  0.3994
15783TIP3    H168764   1.416   1.341   6.056 -0.0794  1.6386 -0.0542
15783TIP3    H268765   1.488   1.250   6.153 -0.1646  0.1908 -1.3254
15784TIP3   OH268766   3.265   5.394   4.284 -0.4418 -0.0385 -0.3830
15784TIP3    H168767   3.198   5.463   4.286  0.2259  0.6162  1.5754
15784TIP3    H268768   3.264   5.358   4.373  1.3261 -0.4657 -0.5151
15785TIP3   OH268769   4.354   1.003   4.391  0.4391  0.0625 -0.1480
15785TIP3    H168770   4.312   1.084   4.419 -1.5655 -1.1806  0.5261
15785TIP3    H268771   4.382   0.960   4.472  0.6419 -0.3644 -0.4387
15786TIP3   OH268772   5.185   3.128   0.212  0.0216 -0.1733 -0.0038
15786TIP3    H168773   5.156   3.129   0.303  2.8006 -0.5671  0.9096
15786TIP3    H268774   5.159   3.042   0.179 -0.4877 -0.2341  0.5569
15787TIP3   OH268775   0.109   4.339   2.778  0.0709 -0.1622 -0.0887
15787TIP3    H168776   0.072   4.253   2.794 -1.0874  0.2558 -0.4502
15787TIP3    H268777   0.101   4.385   2.862 -2.1678  0.6213 -0.6949
15788TIP3   OH268778   3.940   3.834   1.004  0.2731 -0.2055 -0.1874
15788TIP3    H168779   4.016   3.822   1.062  1.4340  0.2962 -1.5646
15788TIP3    H268780   3.881   3.890   1.053  1.4779  0.6478  0.3164
15789TIP3   OH268781   4.417   5.111   1.522  0.0346 -0.2502 -0.6295
15789TIP3    H168782   4.334   5.154   1.501  0.7463  1.8034  0.6130
15789TIP3    H268783   4.412   5.095   1.617  1.1697  0.1698 -0.4914
15790TIP3   OH268784   6.256   3.845  13.167  0.4234  0.2192 -0.2820
15790TIP3    H168785   6.236   3.771  13.225 -0.0959 -1.9653 -3.1686
15790TIP3    H268786   6.307   3.807  13.096  1.6142  2.9670 -0.9624
15791TIP3   OH268787   3.760   4.070  13.138 -0.1952 -0.4869  0.2371
15791TIP3    H168788   3.733   3.985  13.101 -1.7933 -0.3307  1.0168
15791TIP3    H268789   3.682   4.125  13.130  0.8119  0.8904 -0.1655
15792TIP3   OH268790   5.758   5.305   5.890  0.1020 -0.0309 -0.6526
15792TIP3    H168791   5.692   5.341   5.949  0.9725 -1.4769  1.2602
15792TIP3    H268792   5.752   5.210   5.902  2.6777 -0.1799 -0.2656
15793TIP3   OH268793   2.105   4.907   1.833  0.1279 -0.3481  0.7658
15793TIP3    H168794   2.199   4.891   1.828  0.1137 -0.1572 -0.1661
15793TIP3    H268795   2.067   4.822   1.855  0.5426 -0.3535  1.4858
15794TIP3   OH268796   6.472   5.108  12.774 -0.5643  0.3504  0.1460
15794TIP3    H168797   6.499   5.016  12.784 -0.4449  0.3703  0.0084
15794TIP3    H268798   6.377   5.105  12.769 -0.6122  0.3032  0.9361
15795TIP3   OH268799   3.063   3.485   4.787 -0.0306  0.3930  0.2366
15795TIP3    H168800   3.142   3.523   4.826  0.5726  2.4188 -2.8394
15795TIP3    H268801   3.001   3.557   4.783 -1.6210 -0.8716  1.3832
15796TIP3   OH268802   6.009   5.280   0.751  0.3888  0.0741 -0.2575
15796TIP3    H168803   6.090   5.250   0.792 -0.8158 -1.1380  1.2907
15796TIP3    H268804   5.964   5.329   0.819 -0.3074  0.5196 -1.0306
15797TIP3   OH268805   5.917   0.864   2.892 -0.4565 -0.0129 -0.0873
15797TIP3    H168806   5.910   0.771   2.871 -0.0126  0.0407 -0.4682
15797TIP3    H268807   5.828   0.898   2.881 -0.9886 -0.7565  1.7803
15798TIP3   OH268808   3.784   6.742  12.483  0.3214 -0.0549  0.7013
15798TIP3    H168809   3.712   6.781  12.433  0.2643  1.4243  1.9063
15798TIP3    H268810   3.773   6.647  12.469  0.8868  0.3236 -2.8161
15799TIP3   OH268811   4.952   3.825   3.305  0.1570  0.2185  0.6080
15799TIP3    H168812   4.993   3.893   3.358 -1.2375  1.7848 -0.2667
15799TIP3    H268813   4.879   3.792   3.358  0.7674 -0.5299  0.9890
15800TIP3   OH268814   5.433   6.138   3.181 -0.0646 -0.9280  0.5457
15800TIP3    H168815   5.399   6.076   3.116 -2.2314  0.5689  0.2008
15800TIP3    H268816   5.526   6.147   3.159 -0.6144 -0.9502 -1.9914
15801TIP3   OH268817   3.443   6.549  15.288  0.6293 -0.7394  0.0163
15801TIP3    H168818   3.513   6.490  15.261  0.7210 -0.3577 -0.5754
15801TIP3    H268819   3.398   6.502  15.358  2.2116 -0.4787  1.2228
15802TIP3   OH268820   2.373   2.589   1.054 -0.1097 -0.0560 -0.3777
15802TIP3    H168821   2.435   2.533   1.008 -1.0312 -1.3499 -0.0644
15802TIP3    H268822   2.397   2.581   1.146  0.1748  0.5996 -0.3889
15803TIP3   OH268823   3.020   2.800  13.353  0.2982  0.2516  0.2583
15803TIP3    H168824   3.052   2.852  13.279  1.1260 -0.8242 -0.1605
15803TIP3    H268825   3.035   2.856  13.429  1.7020  0.4125 -0.1201
15804TIP3   OH268826   5.562   2.209  13.576 -0.3012 -0.4157 -0.0220
15804TIP3    H168827   5.549   2.261  13.497 -1.3541 -1.8315 -0.7993
15804TIP3    H268828   5.652   2.177  13.568  0.0331  0.4961  0.0019
15805TIP3   OH268829   4.037   2.737  14.552  0.2453  0.0908 -0.5418
15805TIP3    H168830   3.990   2.815  14.523 -1.7598 -1.5076 -1.6737
15805TIP3    H268831   4.029   2.675  14.479  0.8448 -1.5741  0.7717
15806TIP3   OH268832   2.885   3.639  14.602  0.3342 -0.5797  0.4115
15806TIP3    H168833   2.827   3.591  14.661 -1.2887 -1.0549 -1.4879
15806TIP3    H268834   2.968   3.593  14.607 -0.8115 -2.8299 -0.3586
15807TIP3   OH268835   0.176   3.498  17.170 -0.4101  0.2528 -0.4119
15807TIP3    H168836   0.101   3.504  17.110 -1.0792  2.5850  0.6124
15807TIP3    H268837   0.162   3.416  17.217 -0.3931 -1.1278 -2.7092
15808TIP3   OH268838   3.840   0.855   1.081  0.3859  0.5847 -0.4168
15808TIP3    H168839   3.900   0.844   1.007 -1.5372 -0.2353 -1.9000
15808TIP3    H268840   3.753   0.861   1.041 -0.5424  1.7094  1.6879
15809TIP3   OH268841   4.979   3.472  15.390  0.1722  0.3096  0.3441
15809TIP3    H168842   5.021   3.555  15.410 -0.0734  0.1724  1.4880
15809TIP3    H268843   5.001   3.416  15.465 -0.4906 -0.3369  0.0586
15810TIP3   OH268844   0.405   6.657  11.639  0.4047 -0.3392 -0.3057
15810TIP3    H168845   0.411   6.561  11.638 -2.0275 -0.5109 -0.3329
15810TIP3    H268846   0.421   6.682  11.548 -1.1034 -0.8834 -0.7302
15811TIP3   OH268847   3.632   1.745   4.926 -0.4806 -0.1160 -0.2922
15811TIP3    H168848   3.610   1.817   4.986 -0.4686  0.7282 -1.2772
15811TIP3    H268849   3.721   1.720   4.950 -1.0954 -0.9436  1.1701
15812TIP3   OH268850   4.476   6.136  15.627  0.4348 -0.1171 -0.2501
15812TIP3    H168851   4.511   6.206  15.681  0.9437 -1.5268  1.2777
15812TIP3    H268852   4.552   6.104  15.577  0.6622 -1.0033  0.6507
15813TIP3   OH268853   3.103   0.577   4.965  0.2997 -0.1275  0.1256
15813TIP3    H168854   3.044   0.614   4.899  0.2558  0.4306  0.4810
15813TIP3    H268855   3.051   0.510   5.010  0.1783 -0.1636 -0.0666
15814TIP3   OH268856   5.379   3.185   2.647  0.0532 -0.5109  0.0579
15814TIP3    H168857   5.388   3.151   2.558  2.1375 -1.7425  0.7001
15814TIP3    H268858   5.376   3.280   2.636 -0.3814 -0.6741 -1.3703
15815TIP3   OH268859   5.845   1.206  15.273  0.1639  0.0111 -0.2565
15815TIP3    H168860   5.902   1.256  15.214 -0.5607 -0.7681 -1.6343
15815TIP3    H268861   5.862   1.244  15.359  1.4371  0.9952 -0.9114
15816TIP3   OH268862   3.347   2.708   3.155 -0.8623  0.5415  0.6715
15816TIP3    H168863   3.266   2.696   3.105  0.8261 -0.8253 -1.8099
15816TIP3    H268864   3.377   2.796   3.132 -0.7954  0.4394  0.3783
15817TIP3   OH268865   3.105   5.251  10.983 -0.0971  0.1628 -0.7976
15817TIP3    H168866   3.011   5.236  10.996  0.4530 -1.3076  1.9310
15817TIP3    H268867   3.112   5.346  10.971 -1.7167  0.6143  1.4853
15818TIP3   OH268868   1.732   6.017  15.655 -0.0420  0.4442 -0.4329
15818TIP3    H168869   1.702   5.953  15.720 -2.2071  0.7295 -1.0837
15818TIP3    H268870   1.810   6.056  15.694 -1.8934  1.3803  2.5133
15819TIP3   OH268871   6.687   6.605   1.900 -0.4809 -0.0650  0.8549
15819TIP3    H168872   6.766   6.598   1.845 -0.5461  1.1209  0.5957
15819TIP3    H268873   6.619   6.562   1.849 -0.5402  1.0293  0.0005
15820TIP3   OH268874   4.565   2.630   1.775 -0.1412 -0.3859  0.5590
15820TIP3    H168875   4.603   2.708   1.733 -2.7411  1.9817  2.4214
15820TIP3    H268876   4.530   2.579   1.702  1.1986  0.4046 -0.6610
15821TIP3   OH268877   2.944   6.712   4.397  0.0594 -0.0403  0.4812
15821TIP3    H168878   2.874   6.692   4.335  0.4992  0.2533 -0.1231
15821TIP3    H268879   2.940   6.807   4.408 -0.8067 -0.2332  1.8698
15822TIP3   OH268880   6.107   2.082   4.723 -0.2159 -0.0403 -0.1434
15822TIP3    H168881   6.060   2.162   4.749 -0.4474  0.0415 -0.7848
15822TIP3    H268882   6.127   2.096   4.630 -1.0112 -1.0848 -0.4863
15823TIP3   OH268883   3.396   6.754  12.704  0.5437  0.0915 -0.7158
15823TIP3    H168884   3.310   6.786  12.677  0.3615 -0.0720 -0.3216
15823TIP3    H268885   3.403   6.778  12.797  1.5822  1.5594 -1.1394
15824TIP3   OH268886   1.282   2.526   3.158 -0.1623  0.7197 -0.1936
15824TIP3    H168887   1.209   2.495   3.104 -1.0785  0.2565  1.2833
15824TIP3    H268888   1.249   2.605   3.200 -0.5021 -0.5209  1.9397
15825TIP3   OH268889   0.036   5.870  14.796  0.7055  0.2055  0.5695
15825TIP3    H168890   0.129   5.891  14.806  0.9663 -0.4569 -0.2744
15825TIP3    H268891   0.035   5.804  14.726 -0.4558  0.6556  0.1552
15826TIP3   OH268892   1.421   2.630  13.486 -0.6580 -0.3792 -0.1257
15826TIP3    H168893   1.371   2.568  13.538  0.6667 -0.5175  1.0242
15826TIP3    H268894   1.367   2.709  13.482 -1.8007 -1.1687 -0.5440
15827TIP3   OH268895   2.712   2.735  16.861  0.9722  0.2519  0.3645
15827TIP3    H168896   2.753   2.817  16.890  0.0934  0.9214 -0.2344
15827TIP3    H268897   2.667   2.759  16.780  0.0461 -0.6413  0.6044
15828TIP3   OH268898   6.080   2.620  16.227 -0.0174 -0.6821 -0.7706
15828TIP3    H168899   6.151   2.642  16.288 -0.3184 -0.9884 -0.2981
15828TIP3    H268900   6.000   2.640  16.276 -0.2655 -1.2695 -0.9315
15829TIP3   OH268901   4.528   4.126  13.025  0.4800 -0.1809 -0.2723
15829TIP3    H168902   4.440   4.093  13.044  0.4228 -0.1231 -0.4363
15829TIP3    H268903   4.581   4.047  13.015  1.0175 -0.2164  2.4264
15830TIP3   OH268904   3.893   6.611  16.050 -0.1664 -0.4070 -0.4309
15830TIP3    H168905   3.899   6.547  16.120 -1.1717 -2.0415 -1.8211
15830TIP3    H268906   3.908   6.561  15.970 -2.3104  0.8313 -1.6398
15831TIP3   OH268907   2.185   3.535  11.606 -0.3914  0.3145 -0.1865
15831TIP3    H168908   2.109   3.484  11.576 -0.5016 -1.2345  2.5586
15831TIP3    H268909   2.237   3.474  11.657  0.6393  2.3896  1.3421
15832TIP3   OH268910   4.464   0.053   3.289  0.1987  0.5526  0.0413
15832TIP3    H168911   4.531   0.028   3.225 -0.4551 -1.9694  0.2912
15832TIP3    H268912   4.382   0.022   3.250 -0.5789  1.8147  0.6673
15833TIP3   OH268913   0.981   6.625   1.594 -0.1395  0.4284 -0.4366
15833TIP3    H168914   1.005   6.686   1.664 -0.9010  0.6326 -0.3493
15833TIP3    H268915   0.935   6.554   1.638  1.3351 -0.5541 -0.4562
15834TIP3   OH268916   0.068   2.847   1.335  0.1022 -0.2689 -0.0321
15834TIP3    H168917   0.104   2.933   1.312  2.0609 -1.0077  0.1567
15834TIP3    H268918   0.024   2.861   1.418  1.9695  0.2038  0.9149
15835TIP3   OH268919   3.951   1.305  14.610  0.1412 -0.0345 -0.0847
15835TIP3    H168920   3.926   1.232  14.553  0.1915  0.6385 -0.9716
15835TIP3    H268921   3.920   1.383  14.565 -0.4249  0.4623  1.1486
15836TIP3   OH268922   1.199   3.508  16.270  0.2520 -0.1155  0.2704
15836TIP3    H168923   1.271   3.566  16.249 -0.3252  0.3040 -0.5846
15836TIP3    H268924   1.159   3.487  16.185 -0.0375 -1.1082  0.6410
15837TIP3   OH268925   6.402   2.104  16.148  0.1925  0.8169 -0.0801
15837TIP3    H168926   6.388   2.024  16.098 -0.2607 -0.4699  2.0640
15837TIP3    H268927   6.480   2.086  16.200 -0.7719  1.1863  1.5244
15838TIP3   OH268928   4.308   6.449  15.504  0.5113  0.4172  0.2009
15838TIP3    H168929   4.326   6.501  15.425  1.4046  0.5386  0.4855
15838TIP3    H268930   4.379   6.386  15.508 -0.4437 -0.6887 -0.0093
15839TIP3   OH268931   4.965   3.878  16.352  0.1370  0.0626 -0.6926
15839TIP3    H168932   4.926   3.822  16.284  3.0882 -1.8351 -0.8800
15839TIP3    H268933   5.059   3.878  16.333  0.8451  0.7291  2.5248
15840TIP3   OH268934   6.503   4.360  12.214  0.1948 -0.5714  0.1036
15840TIP3    H168935   6.408   4.348  12.225  0.2808 -0.3361  1.2387
15840TIP3    H268936   6.512   4.447  12.174 -0.1712 -1.7255 -2.5954
15841TIP3   OH268937   3.489   0.632   5.842 -0.2953  0.1943 -0.0589
15841TIP3    H168938   3.438   0.589   5.773  0.7676 -0.9270 -0.1592
15841TIP3    H268939   3.579   0.602   5.828 -0.2283 -0.9305  2.4947
15842TIP3   OH268940   5.908   3.306   4.630  0.1815  0.6705 -0.2466
15842TIP3    H168941   5.854   3.331   4.706  0.1511  0.2821 -0.1396
15842TIP3    H268942   5.930   3.215   4.646  2.3097  1.2986  0.5705
15843TIP3   OH268943   3.315   1.548   4.179  0.2118  0.0703  0.0012
15843TIP3    H168944   3.314   1.488   4.253  0.6319 -0.1526 -0.1678
15843TIP3    H268945   3.394   1.524   4.130 -0.3555 -0.1537 -0.8217
15844TIP3   OH268946   0.620   5.140   2.816  0.2805  0.3102 -0.2805
15844TIP3    H168947   0.601   5.230   2.841  0.6192  0.8732 -2.0032
15844TIP3    H268948   0.570   5.087   2.878 -2.3257  1.7077 -1.0903
15845TIP3   OH268949   4.606   4.810   4.250  0.3354 -0.3338 -0.8446
15845TIP3    H168950   4.617   4.876   4.182 -0.5108  1.1039  0.3879
15845TIP3    H268951   4.690   4.807   4.295  0.9513 -1.4075 -2.0285
15846TIP3   OH268952   3.230   0.043   2.069  0.4394  0.0650  0.2213
15846TIP3    H168953   3.169   0.017   2.138 -0.4678  0.4177 -0.4427
15846TIP3    H268954   3.311  -0.004   2.089 -0.6981 -2.0541 -0.1018
15847TIP3   OH268955   5.903   1.270   0.479 -0.2175 -0.4878 -0.1668
15847TIP3    H168956   5.994   1.278   0.508  0.5755 -1.6960 -2.2601
15847TIP3    H268957   5.864   1.210   0.542  0.3983  0.1121  0.8059
15848TIP3   OH268958   0.635   1.058  10.689 -0.2082  0.0356 -0.2478
15848TIP3    H168959   0.663   0.980  10.737  1.3473  0.8147  0.1173
15848TIP3    H268960   0.658   1.040  10.598 -1.6267 -0.7325 -0.4755
15849TIP3   OH268961   0.702   2.569  11.241 -0.5103 -0.0448 -0.2702
15849TIP3    H168962   0.753   2.516  11.180 -0.1610  0.0455 -0.0600
15849TIP3    H268963   0.642   2.507  11.282  1.1471 -0.6405  1.3138
15850TIP3   OH268964   2.652   5.901  11.671  0.0067  0.2677 -0.0954
15850TIP3    H168965   2.673   5.813  11.640  0.9240  0.6387 -0.5432
15850TIP3    H268966   2.579   5.929  11.616  0.2592  0.1077 -0.5167
15851TIP3   OH268967   0.986   1.197  13.055  0.1037 -0.1785 -0.1438
15851TIP3    H168968   1.000   1.219  13.146  1.7490 -1.2040 -0.1224
15851TIP3    H268969   0.984   1.281  13.009  2.4477  0.2166  0.4220
15852TIP3   OH268970   4.568   1.114   0.442 -0.2023  0.4640  0.0179
15852TIP3    H168971   4.540   1.027   0.415 -0.7866  0.6002  0.1802
15852TIP3    H268972   4.642   1.134   0.385 -0.5611  0.1801 -0.5515
15853TIP3   OH268973   4.381   1.796   5.503 -0.2583  0.2018  0.1684
15853TIP3    H168974   4.364   1.754   5.587 -0.3363 -0.2652 -0.0739
15853TIP3    H268975   4.320   1.752   5.442  1.0647 -0.7493 -0.4951
15854TIP3   OH268976   4.803   1.283   3.609  0.3777 -0.4306 -0.3008
15854TIP3    H168977   4.750   1.355   3.576  0.9442  0.4121  0.5917
15854TIP3    H268978   4.741   1.224   3.653  0.1120  0.2896  0.2928
15855TIP3   OH268979   3.795   0.741   4.299  0.2189 -0.5740  0.2085
15855TIP3    H168980   3.832   0.776   4.218 -0.7090 -0.4004 -0.1564
15855TIP3    H268981   3.854   0.771   4.368  0.4129  0.2051 -0.2892
15856TIP3   OH268982   1.521   1.284  12.281  0.6764 -0.4387  0.1391
15856TIP3    H168983   1.530   1.190  12.264  0.7320 -0.3703 -0.2153
15856TIP3    H268984   1.532   1.325  12.195 -2.2211 -0.2835 -0.1975
15857TIP3   OH268985   2.808   0.423  13.465  0.2531  0.0025 -0.1708
15857TIP3    H168986   2.853   0.366  13.527  0.7185 -1.0352 -1.4516
15857TIP3    H268987   2.852   0.508  13.474  1.3720 -0.5663 -0.2274
15858TIP3   OH268988   2.418   5.671  14.431 -0.0600  0.1670 -0.7483
15858TIP3    H168989   2.351   5.612  14.465  1.6009 -1.4659 -0.2041
15858TIP3    H268990   2.423   5.651  14.338  1.2605 -1.4025 -0.3787
15859TIP3   OH268991   2.007   6.394   2.143  0.1494 -0.0126 -0.5266
15859TIP3    H168992   1.938   6.457   2.123  1.6149  1.3829 -1.2777
15859TIP3    H268993   2.013   6.339   2.065 -0.7673 -0.7528 -0.0798
15860TIP3   OH268994   1.525   2.354  15.196  0.9831  0.0562 -0.5625
15860TIP3    H168995   1.548   2.341  15.104 -0.8364 -0.1383 -1.0020
15860TIP3    H268996   1.441   2.310  15.206  0.8032  0.7383  1.0119
15861TIP3   OH268997   0.126   1.203   1.859  0.9175  0.6246  0.1255
15861TIP3    H168998   0.079   1.252   1.791  1.3685  0.9196  0.0230
15861TIP3    H268999   0.058   1.162   1.911  0.5585  0.6682 -0.3113
15862TIP3   OH269000   6.631   4.855  11.796  0.2257 -0.2528 -0.1210
15862TIP3    H169001   6.546   4.886  11.827 -0.3229 -1.3308 -0.4915
15862TIP3    H269002   6.610   4.779  11.742  1.4777 -0.9578  0.3603
15863TIP3   OH269003   3.481   1.646  11.941 -0.4741 -1.0279  0.0306
15863TIP3    H169004   3.562   1.596  11.952  0.1791  0.0664  0.2182
15863TIP3    H269005   3.451   1.624  11.853 -0.2647 -1.8556  0.1606
15864TIP3   OH269006   5.862   1.227  11.121 -0.6339 -0.3098 -0.8129
15864TIP3    H169007   5.911   1.156  11.081  1.6463  0.4818  0.4973
15864TIP3    H269008   5.806   1.260  11.050  1.2763 -0.7378 -2.5682
15865TIP3   OH269009   4.631   4.966   5.693 -0.0989  0.5332  0.3120
15865TIP3    H169010   4.554   4.964   5.637 -0.4017  2.0020  0.6343
15865TIP3    H269011   4.689   5.030   5.652  2.3913 -2.8590 -1.6881
15866TIP3   OH269012   5.202   6.360   4.179 -0.4268 -0.4013 -0.4939
15866TIP3    H169013   5.296   6.366   4.162 -0.6221 -1.8071 -2.1484
15866TIP3    H269014   5.196   6.361   4.275  1.0958  1.7872 -0.3704
15867TIP3   OH269015   1.537   4.069   1.399 -0.1706 -0.0159  0.2950
15867TIP3    H169016   1.622   4.112   1.403  0.2914 -0.6370 -2.0695
15867TIP3    H269017   1.527   4.027   1.485  1.8582  0.1319  0.6220
15868TIP3   OH269018   4.267   2.429   5.656  0.2138 -0.0241 -0.1110
15868TIP3    H169019   4.222   2.478   5.724  1.2100  0.7063  0.0310
15868TIP3    H269020   4.320   2.364   5.703  1.3545  0.8646 -0.1475
15869TIP3   OH269021   0.232   6.283  13.672  0.1789  0.5803 -0.2059
15869TIP3    H169022   0.311   6.337  13.674  0.5812  0.0170 -0.7211
15869TIP3    H269023   0.164   6.340  13.636  0.2506  1.1962  0.6363
15870TIP3   OH269024   5.215   1.375  17.118 -0.5243 -0.0112 -0.0317
15870TIP3    H169025   5.154   1.449  17.107 -0.5724 -0.1724 -0.8199
15870TIP3    H269026   5.159   1.298  17.117 -0.3693 -0.1215 -0.1322
15871TIP3   OH269027   5.738   5.114  14.726 -0.0846  0.4234  0.0489
15871TIP3    H169028   5.799   5.161  14.669  0.9497 -0.2139  0.6172
15871TIP3    H269029   5.701   5.045  14.671 -0.1221  0.6677 -0.2336
15872TIP3   OH269030   4.384   6.739   4.527 -0.6798  0.5791 -0.3656
15872TIP3    H169031   4.395   6.833   4.540  0.2709  0.2956  0.9121
15872TIP3    H269032   4.388   6.728   4.432 -2.5552  2.0356 -0.6333
15873TIP3   OH269033   1.944   6.552  15.398 -0.1026 -0.6555 -0.0455
15873TIP3    H169034   1.855   6.571  15.428 -0.2094 -1.4722  0.1738
15873TIP3    H269035   2.000   6.576  15.471  0.0221  1.4402 -0.7788
15874TIP3   OH269036   4.057   2.992  13.223  0.6358  0.1140 -0.1026
15874TIP3    H169037   4.117   2.946  13.283  1.9220  2.7032  0.6554
15874TIP3    H269038   4.109   3.064  13.188 -1.7576  1.8740 -0.1517
15875TIP3   OH269039   1.159   2.288  14.368 -0.0075 -0.4525  0.5898
15875TIP3    H169040   1.144   2.381  14.352  0.2702 -0.3605  0.8566
15875TIP3    H269041   1.080   2.244  14.335 -0.1618 -0.1174  0.5189
15876TIP3   OH269042   2.333   3.443  16.368  0.0119 -0.5100  0.4844
15876TIP3    H169043   2.358   3.466  16.458  0.8723 -1.0557  0.3885
15876TIP3    H269044   2.365   3.353  16.357 -0.6537 -0.6654 -0.1542
15877TIP3   OH269045   4.205   1.938  11.516 -0.0304  0.9251  0.4178
15877TIP3    H169046   4.118   1.912  11.486 -0.1712  2.1910 -0.3105
15877TIP3    H269047   4.249   1.855  11.537 -0.7768  0.1585 -0.9599
15878TIP3   OH269048   5.634   1.125  14.238  0.4710  0.3072 -0.6117
15878TIP3    H169049   5.596   1.172  14.164  0.0787  2.3062  0.8178
15878TIP3    H269050   5.695   1.187  14.277  1.8389 -1.2738 -0.1645
15879TIP3   OH269051   0.071   2.589   0.868  0.0822 -0.0899 -0.1950
15879TIP3    H169052   0.075   2.503   0.910 -0.1199  0.4230  0.8958
15879TIP3    H269053   0.026   2.644   0.932 -0.9225  0.5195 -1.4282
15880TIP3   OH269054   1.804   6.378   3.240 -0.3092 -0.3341 -0.1668
15880TIP3    H169055   1.748   6.357   3.164 -1.4653  0.9605  0.3124
15880TIP3    H269056   1.793   6.472   3.252 -0.2509 -0.5547  1.7050
15881TIP3   OH269057   4.220   3.538  16.940 -0.1759  0.1400  0.2162
15881TIP3    H169058   4.126   3.544  16.927 -0.0150  0.8438 -0.6613
15881TIP3    H269059   4.231   3.466  17.002 -1.2704 -0.0946  0.1500
15882TIP3   OH269060   6.426   1.844  17.224  0.5241  0.0284 -0.1437
15882TIP3    H169061   6.464   1.912  17.279 -1.7009  0.4156  0.9875
15882TIP3    H269062   6.356   1.889  17.176  0.0125 -1.1319 -0.4972
15883TIP3   OH269063   3.919   4.367   2.579  0.3841 -0.2925 -0.9147
15883TIP3    H169064   3.855   4.368   2.650 -0.6463  2.5955 -1.8085
15883TIP3    H269065   3.984   4.432   2.604 -0.4866  1.4373 -2.9933
15884TIP3   OH269066   2.175   2.966   3.354  0.2749 -0.0539 -1.0203
15884TIP3    H169067   2.107   3.033   3.363  0.3161 -0.5151  4.1174
15884TIP3    H269068   2.126   2.885   3.338 -0.2324  0.0956 -0.2706
15885TIP3   OH269069   2.822   5.518  13.638 -0.0590  0.0203  0.4075
15885TIP3    H169070   2.890   5.453  13.651  1.8389  2.0116  0.6751
15885TIP3    H269071   2.769   5.515  13.718 -0.0200 -1.2157  0.3878
15886TIP3   OH269072   6.231   5.437  15.264  0.2059 -0.0441 -0.6382
15886TIP3    H169073   6.290   5.470  15.331  1.0991  0.8642 -1.8498
15886TIP3    H269074   6.283   5.374  15.214 -0.3977 -0.5947 -0.5832
15887TIP3   OH269075   0.740   6.464  13.000  0.0311 -0.0987  0.2353
15887TIP3    H169076   0.800   6.430  12.935  0.5828 -0.3891  0.8889
15887TIP3    H269077   0.682   6.390  13.020 -0.1878  0.0135  0.0232
15888TIP3   OH269078   2.956   1.672   3.426  0.7264 -0.1836  0.7555
15888TIP3    H169079   2.874   1.669   3.475  0.0362 -0.2243 -0.3796
15888TIP3    H269080   2.949   1.752   3.373  0.3977 -1.4005 -1.0761
15889TIP3   OH269081   3.665   5.726   0.385 -0.0033  0.5138 -0.1235
15889TIP3    H169082   3.628   5.733   0.298 -0.9995 -0.4863  0.2072
15889TIP3    H269083   3.731   5.796   0.389 -1.1036  1.6309 -1.0821
15890TIP3   OH269084   1.016   5.108   1.216 -0.3484  0.1875 -0.0056
15890TIP3    H169085   1.055   5.176   1.160 -0.2993 -0.7840 -1.1787
15890TIP3    H269086   1.073   5.032   1.203 -0.5273 -0.1499  1.1389
15891TIP3   OH269087   3.804   5.626   4.683 -0.6768  0.0502  0.0928
15891TIP3    H169088   3.790   5.679   4.761 -2.3951  1.4084 -1.1069
15891TIP3    H269089   3.719   5.626   4.638  0.7917  1.0168 -2.8261
15892TIP3   OH269090   1.191   1.220   4.786 -0.2435  0.5008 -0.1782
15892TIP3    H169091   1.147   1.283   4.843  1.4316  0.0010  1.7401
15892TIP3    H269092   1.147   1.229   4.701 -2.1053  1.9941  0.9111
15893TIP3   OH269093   2.540   2.593  11.254 -0.5588  0.0911  0.2171
15893TIP3    H169094   2.564   2.545  11.174  0.0651  0.3676  0.2386
15893TIP3    H269095   2.519   2.681  11.224 -1.6282 -0.1583  0.1885
15894TIP3   OH269096   0.055   0.089   2.674 -0.2526 -0.5916 -0.1300
15894TIP3    H169097  -0.004   0.150   2.718 -0.0224  0.0965 -0.7652
15894TIP3    H269098   0.142   0.113   2.705 -0.1027 -0.1794 -0.8638
15895TIP3   OH269099   0.445   4.790  15.458 -0.4553 -0.1089  0.3892
15895TIP3    H169100   0.474   4.704  15.429 -0.8281 -0.1520  0.1355
15895TIP3    H269101   0.372   4.772  15.517 -1.6727  0.0865 -1.0052
15896TIP3   OH269102   0.679   1.388   2.819  0.3658 -0.3195 -0.2573
15896TIP3    H169103   0.614   1.438   2.869  0.8242  1.8118 -1.7014
15896TIP3    H269104   0.729   1.341   2.885 -0.0883  1.1738  1.1883
15897TIP3   OH269105   0.663   3.229   2.700  0.2562 -0.4731 -0.0266
15897TIP3    H169106   0.695   3.139   2.704 -1.7535 -1.1326  3.5307
15897TIP3    H269107   0.597   3.228   2.631  1.2435 -1.3793 -0.9629
15898TIP3   OH269108   4.376   5.207  15.672 -0.2855 -0.3054  0.1083
15898TIP3    H169109   4.398   5.216  15.764 -1.2434 -0.5817  0.3697
15898TIP3    H269110   4.282   5.227  15.668 -0.0631  0.5908 -0.9323
15899TIP3   OH269111   4.450   5.655  17.190  0.3530 -0.2110 -0.1303
15899TIP3    H169112   4.369   5.671  17.237  0.5867  0.9982 -0.1164
15899TIP3    H269113   4.509   5.618  17.256  0.1143 -0.1845  0.0991
15900TIP3   OH269114   1.965   0.210  10.813  0.3088 -0.5469  0.2393
15900TIP3    H169115   1.958   0.245  10.725  1.2045 -0.0291  0.3736
15900TIP3    H269116   2.043   0.154  10.811  1.0646  0.4702  1.0401
15901TIP3   OH269117   6.044   4.374  15.568  0.1401  0.3409 -0.4179
15901TIP3    H169118   5.960   4.411  15.541 -0.0430 -0.3298 -0.7726
15901TIP3    H269119   6.108   4.441  15.544 -0.2043  0.4901 -0.9332
15902TIP3   OH269120   0.416   2.530  14.991 -0.1405  0.1767  0.1498
15902TIP3    H169121   0.383   2.479  14.917 -0.3080 -0.1092  0.4215
15902TIP3    H269122   0.342   2.536  15.051  0.1585 -0.0480  0.5390
15903TIP3   OH269123   6.304   5.330   1.351  0.3157 -0.4655 -0.9648
15903TIP3    H169124   6.272   5.253   1.399  0.9068 -0.5912 -0.7766
15903TIP3    H269125   6.367   5.295   1.289  1.9178  0.0709  0.3281
15904TIP3   OH269126   4.299   4.815   6.118  0.3981 -0.4903 -0.8827
15904TIP3    H169127   4.377   4.760   6.125 -0.9115 -2.5055 -1.9252
15904TIP3    H269128   4.233   4.760   6.077 -1.9340  0.8483  0.9359
15905TIP3   OH269129   4.623   1.510  11.824  0.1621  0.3017 -0.5950
15905TIP3    H169130   4.670   1.436  11.863 -1.6611 -0.6453 -0.1431
15905TIP3    H269131   4.652   1.512  11.733  1.6776  0.2522 -0.1352
15906TIP3   OH269132   0.447   2.931  12.232  0.0585  0.4045  0.0556
15906TIP3    H169133   0.401   2.856  12.196  1.5836 -0.7018  0.3839
15906TIP3    H269134   0.388   2.965  12.299 -1.5476  0.7734 -1.5020
15907TIP3   OH269135   2.103   5.072   3.288 -0.1178  0.6233  0.0833
15907TIP3    H169136   2.196   5.054   3.304  0.1985  1.2954 -0.9567
15907TIP3    H269137   2.060   4.987   3.294  0.6757  0.2032 -0.1714
15908TIP3   OH269138   5.763   4.008  13.222 -0.0676 -0.8658  0.1317
15908TIP3    H169139   5.857   3.995  13.219  0.1090  0.2004  0.5070
15908TIP3    H269140   5.752   4.103  13.226 -1.1345 -0.9967  0.6659
15909TIP3   OH269141   3.335   2.961   3.990  0.6543  0.1596 -0.3523
15909TIP3    H169142   3.430   2.967   4.003  0.7799 -1.8787 -0.2690
15909TIP3    H269143   3.313   2.872   4.016 -1.3178  0.6682 -0.2347
15910TIP3   OH269144   5.340   5.825   4.052 -0.4050 -0.3118 -0.0293
15910TIP3    H169145   5.356   5.780   3.969  0.6446 -0.4133  0.2257
15910TIP3    H269146   5.271   5.888   4.031  0.6422  0.4608 -1.2640
15911TIP3   OH269147   6.028   4.030  13.175  0.2374 -0.1287  0.8395
15911TIP3    H169148   6.091   3.961  13.155 -1.2351 -0.5709 -2.5775
15911TIP3    H269149   6.064   4.109  13.135 -1.4860 -0.4656 -1.4788
15912TIP3   OH269150   1.228   2.757  14.729  0.4178  0.1085  0.0442
15912TIP3    H169151   1.270   2.784  14.647 -1.2519  2.1192 -0.2034
15912TIP3    H269152   1.141   2.728  14.702 -0.5391  1.8526  1.2184
15913TIP3   OH269153   5.171   2.340   1.321 -0.5281  0.3240  0.3005
15913TIP3    H169154   5.236   2.340   1.390 -0.2495  0.3805  0.0370
15913TIP3    H269155   5.203   2.277   1.257 -1.3569 -0.5650  0.7588
15914TIP3   OH269156   4.188   1.764  16.921 -0.1108  0.1278 -0.1842
15914TIP3    H169157   4.224   1.700  16.860  0.0802 -0.9330  1.0252
15914TIP3    H269158   4.098   1.778  16.892 -0.4789 -1.4800  0.1815
15915TIP3   OH269159   1.144   2.800   3.710 -0.0550 -0.7769 -0.1390
15915TIP3    H169160   1.218   2.827   3.764 -1.4869  4.9869 -0.7127
15915TIP3    H269161   1.067   2.812   3.767 -1.2337  1.7897 -2.1404
15916TIP3   OH269162   1.713   6.094   5.483  0.2756  0.5323 -0.2464
15916TIP3    H169163   1.776   6.165   5.496  0.5066  0.1179  0.9380
15916TIP3    H269164   1.766   6.018   5.461  0.1787  0.2313  0.5489
15917TIP3   OH269165   5.001   6.605  13.803 -0.2458  0.6394  0.1166
15917TIP3    H169166   4.965   6.536  13.748 -0.9732  0.7132  0.4963
15917TIP3    H269167   4.937   6.676  13.797 -0.6334  0.4151  1.5542
15918TIP3   OH269168   0.603   6.076  15.342  0.3674 -0.0764 -0.1816
15918TIP3    H169169   0.558   6.123  15.271 -1.9757  2.6444  2.9397
15918TIP3    H269170   0.659   6.142  15.383  0.1954 -1.0515  1.6854
15919TIP3   OH269171   4.087   2.271   3.218  0.0271  0.4850 -0.8843
15919TIP3    H169172   4.145   2.281   3.294 -2.6102  1.3127  1.0951
15919TIP3    H269173   4.128   2.202   3.165  1.8650 -0.1862  1.3416
15920TIP3   OH269174   5.731   0.920  12.434 -0.5957 -0.2972 -0.1582
15920TIP3    H169175   5.653   0.976  12.442 -0.5925 -0.2653 -0.3426
15920TIP3    H269176   5.704   0.837  12.473 -0.9928 -0.5531 -0.9604
15921TIP3   OH269177   2.405   5.019  16.685  0.3582  0.2737  0.2011
15921TIP3    H169178   2.494   4.986  16.672 -0.1760 -2.2226  2.3555
15921TIP3    H269179   2.360   5.001  16.603  1.0240 -1.2953  0.1667
15922TIP3   OH269180   2.782   1.525   0.866  0.0694  0.2797 -0.2496
15922TIP3    H169181   2.733   1.590   0.917 -1.7727 -0.0237 -1.5523
15922TIP3    H269182   2.832   1.576   0.803  2.7393  0.6865  2.1038
15923TIP3   OH269183   3.348   1.997   3.232  0.3138  0.4137 -0.2882
15923TIP3    H169184   3.377   1.936   3.299  0.3989 -1.3260 -1.8533
15923TIP3    H269185   3.335   1.943   3.154 -3.4412  1.7160 -0.6903
15924TIP3   OH269186   1.278   5.802   0.371 -0.4228 -0.0181 -0.0480
15924TIP3    H169187   1.192   5.805   0.329 -1.5965  0.1249  2.3361
15924TIP3    H269188   1.261   5.817   0.464  2.2867  1.1655  0.3178
15925TIP3   OH269189   5.607   1.844   4.492  0.0246  0.1766  0.6151
15925TIP3    H169190   5.602   1.752   4.519 -0.8648 -0.1753 -0.6989
15925TIP3    H269191   5.631   1.891   4.572  1.0121 -1.2539  1.1775
15926TIP3   OH269192   6.091   3.516   1.516 -0.4728 -0.3448  0.2142
15926TIP3    H169193   6.173   3.472   1.493 -0.8613  0.5620 -3.1326
15926TIP3    H269194   6.117   3.601   1.550  0.0072 -0.2809 -0.3102
15927TIP3   OH269195   2.020   2.892  12.025 -0.0049  0.0616  0.2980
15927TIP3    H169196   2.111   2.879  11.998 -0.4389  1.4087 -1.8156
15927TIP3    H269197   1.998   2.810  12.071  1.8743 -0.7669 -0.2160
15928TIP3   OH269198   2.112   6.013  16.877  0.0009 -0.2374 -0.2249
15928TIP3    H169199   2.202   6.025  16.907 -0.1510 -0.0591  0.1669
15928TIP3    H269200   2.087   5.926  16.907 -0.1286 -0.0846  0.1139
15929TIP3   OH269201   6.761   6.729   5.625 -0.0333 -0.0348  0.2924
15929TIP3    H169202   6.806   6.740   5.541  2.5356 -1.3234  1.4387
15929TIP3    H269203   6.750   6.634   5.634 -2.0245  0.2079  0.5499
15930TIP3   OH269204   6.456   4.285   1.141  0.3830  0.7398  0.3282
15930TIP3    H169205   6.381   4.230   1.119  0.4159  0.3059  1.2870
15930TIP3    H269206   6.505   4.234   1.206  1.7049  0.8510 -0.5587
15931TIP3   OH269207   4.799   2.633  14.411  0.2418 -0.0479  0.6762
15931TIP3    H169208   4.852   2.674  14.480  0.9196 -0.7482  0.5716
15931TIP3    H269209   4.834   2.545  14.402  1.4301  0.6582 -1.9314
15932TIP3   OH269210   6.353   0.771  15.954 -0.0377  0.1860 -0.2858
15932TIP3    H169211   6.356   0.782  16.049 -1.0000 -2.1841  0.0469
15932TIP3    H269212   6.360   0.677  15.941 -0.3074  0.4652 -2.5551
15933TIP3   OH269213   3.268   1.922   0.505  0.4761 -0.3394  0.2364
15933TIP3    H169214   3.258   1.829   0.524 -0.0227 -0.1695  0.8325
15933TIP3    H269215   3.192   1.943   0.451  0.3578 -0.1867  0.4596
15934TIP3   OH269216   4.829   1.829  13.789 -0.1792  0.5398  0.1664
15934TIP3    H169217   4.868   1.749  13.824  0.2851  1.1276  1.0430
15934TIP3    H269218   4.735   1.812  13.790 -0.1518  0.3941  1.3724
15935TIP3   OH269219   5.436   6.282   0.082 -0.0580  0.2247  0.2519
15935TIP3    H169220   5.525   6.262   0.053  0.6108  2.4119  0.7051
15935TIP3    H269221   5.381   6.258   0.008  1.1859  1.4438 -1.0934
15936TIP3   OH269222   1.143   5.971   5.944 -0.5748  0.4742 -0.1596
15936TIP3    H169223   1.190   5.921   6.010 -0.1540 -0.8222 -1.4029
15936TIP3    H269224   1.191   6.054   5.938  1.8490 -0.9628 -1.6689
15937TIP3   OH269225   5.309   3.161  13.015 -0.2402 -0.1467 -0.3716
15937TIP3    H169226   5.333   3.232  13.074  1.3982  0.0043 -1.2060
15937TIP3    H269227   5.328   3.194  12.927  2.0329 -2.1550 -0.6900
15938TIP3   OH269228   0.043   3.336   0.984 -0.1001  0.5464  0.5123
15938TIP3    H169229  -0.034   3.280   0.986 -0.0378  0.4706  0.8739
15938TIP3    H269230   0.040   3.378   0.899 -0.1769  0.0309  0.2555
15939TIP3   OH269231   1.523   3.263  12.585 -0.0285 -0.1436 -0.4410
15939TIP3    H169232   1.472   3.205  12.642 -1.4645 -0.2168 -1.7612
15939TIP3    H269233   1.522   3.347  12.630  0.3531 -0.6311  0.5001
15940TIP3   OH269234   4.838   1.928   2.054  0.2864 -0.1347 -0.4548
15940TIP3    H169235   4.747   1.956   2.056 -0.4667 -2.2298 -3.1366
15940TIP3    H269236   4.888   2.008   2.066 -1.8848  0.8271  2.7686
15941TIP3   OH269237   3.796   5.088   0.435 -0.3425 -0.7432  0.2237
15941TIP3    H169238   3.797   5.044   0.350  1.2810 -0.4570  0.0750
15941TIP3    H269239   3.749   5.027   0.493 -2.0929 -0.6180 -1.0221
15942TIP3   OH269240   2.732   4.457  10.761  0.6499 -0.0168 -0.6986
15942TIP3    H169241   2.638   4.473  10.773  1.0953  1.4199  1.2669
15942TIP3    H269242   2.748   4.373  10.804  0.6105  0.7197  0.7738
15943TIP3   OH269243   3.379   0.071   4.596  0.2695 -0.1256  0.0291
15943TIP3    H169244   3.459   0.122   4.609 -0.4163  0.6817  1.1774
15943TIP3    H269245   3.407  -0.005   4.545  2.0977 -0.7365  1.8829
15944TIP3   OH269246   0.261   0.699   0.968  0.0844  0.1585  0.3989
15944TIP3    H169247   0.174   0.695   1.007  0.5584  0.5413  1.5197
15944TIP3    H269248   0.283   0.792   0.967 -0.8733  0.3896 -2.9561
15945TIP3   OH269249   6.073   1.123  15.707 -0.1268  0.1956 -0.3690
15945TIP3    H169250   6.144   1.088  15.653 -0.1769  2.1645 -1.7932
15945TIP3    H269251   5.993   1.094  15.663 -0.2503 -1.9612  1.1937
15946TIP3   OH269252   3.492   6.017   3.525 -0.0833 -0.5026  0.2329
15946TIP3    H169253   3.419   6.078   3.537 -0.8068 -1.1628 -0.7353
15946TIP3    H269254   3.517   6.027   3.434  0.9155 -0.4216  0.5124
15947TIP3   OH269255   6.563   1.540  13.708 -0.2707 -0.2584 -0.2331
15947TIP3    H169256   6.567   1.530  13.613  0.7438  0.1710 -0.2483
15947TIP3    H269257   6.470   1.543  13.729 -0.6256 -4.1054 -0.8263
15948TIP3   OH269258   4.036   2.822  13.877 -0.0290 -0.3622 -0.1946
15948TIP3    H169259   4.013   2.733  13.906 -1.0829  0.1472  0.5615
15948TIP3    H269260   4.096   2.853  13.945 -2.3767  0.7739  1.4359
15949TIP3   OH269261   0.201   4.632   4.373  0.6082 -0.0246 -0.9934
15949TIP3    H169262   0.244   4.549   4.353  0.0464 -0.6984  0.5424
15949TIP3    H269263   0.115   4.625   4.330  0.7228 -0.0599 -1.2187
15950TIP3   OH269264   2.925   3.007   3.118  0.5816 -0.4429 -0.1766
15950TIP3    H169265   2.877   3.090   3.129  0.9864 -0.3772  1.1361
15950TIP3    H269266   2.870   2.956   3.058 -0.8535 -0.1457  0.8565
15951TIP3   OH269267   1.072   5.296   4.683 -0.0004 -0.1934  0.6811
15951TIP3    H169268   1.037   5.323   4.599 -1.2046 -2.3638  0.4416
15951TIP3    H269269   1.110   5.209   4.666  2.7839  0.7792  1.6225
15952TIP3   OH269270   1.878   6.174  15.845 -0.2814  0.1879  0.6096
15952TIP3    H169271   1.930   6.246  15.880 -0.9573  0.4848  1.0263
15952TIP3    H269272   1.930   6.095  15.862 -0.1414  0.4410  1.3511
15953TIP3   OH269273   2.023   3.217  12.321 -0.1150 -0.1937 -0.0740
15953TIP3    H169274   2.085   3.285  12.348 -0.2618 -0.0659 -0.0612
15953TIP3    H269275   2.069   3.135  12.340  0.5553 -0.1001 -1.2179
15954TIP3   OH269276   5.149   2.963   6.075 -0.0685 -0.1255  0.0989
15954TIP3    H169277   5.199   2.886   6.103 -1.7635 -0.8820  1.0793
15954TIP3    H269278   5.058   2.942   6.096 -0.7586  1.4375 -1.2269
15955TIP3   OH269279   5.752   1.330   5.674 -0.5326 -0.1321  0.0952
15955TIP3    H169280   5.806   1.389   5.621 -1.0332  1.2842  1.1070
15955TIP3    H269281   5.800   1.248   5.677  0.6777  0.5471 -0.4985
15956TIP3   OH269282   5.632   5.065  13.462 -0.8460 -0.8765 -0.7841
15956TIP3    H169283   5.681   5.033  13.539 -0.8358 -1.5176 -1.0560
15956TIP3    H269284   5.582   5.139  13.495 -0.2704 -0.6863 -0.3222
15957TIP3   OH269285   6.622   0.198   0.003  0.2501 -0.3993 -0.0458
15957TIP3    H169286   6.663   0.111   0.012  0.1909 -0.4093  0.1180
15957TIP3    H269287   6.689   0.259   0.035  1.6999 -0.0868 -3.4595
15958TIP3   OH269288   0.067   0.721   3.076 -0.2205  0.2608  0.2334
15958TIP3    H169289   0.012   0.745   3.150 -0.2933 -0.3715  0.3905
15958TIP3    H269290   0.009   0.727   3.000 -0.4246 -0.0848  0.3579
15959TIP3   OH269291   5.660   5.793   4.595  0.2626 -0.2127 -0.5710
15959TIP3    H169292   5.659   5.703   4.630  0.4515 -0.7664 -1.9679
15959TIP3    H269293   5.568   5.818   4.593  0.2004 -0.4076 -0.2660
15960TIP3   OH269294   0.017   0.458   2.978  0.8739 -0.2210 -0.5140
15960TIP3    H169295   0.066   0.530   3.018  1.1032 -0.7614  0.2026
15960TIP3    H269296  -0.063   0.453   3.030  0.0876  0.6053 -1.6316
15961TIP3   OH269297   1.359   2.689   5.064  0.3577  0.0682  0.0934
15961TIP3    H169298   1.357   2.752   4.992 -1.0772 -0.4482 -0.3429
15961TIP3    H269299   1.417   2.620   5.033  0.0396  0.0296 -0.4318
15962TIP3   OH269300   4.126   0.123   1.784  0.4401 -0.0162 -0.5713
15962TIP3    H169301   4.063   0.056   1.757  0.2252 -0.2768  0.5268
15962TIP3    H269302   4.212   0.086   1.761  0.2817 -0.3730 -0.5962
15963TIP3   OH269303   4.050   5.295  14.480 -0.0122 -0.3884 -0.1187
15963TIP3    H169304   4.100   5.259  14.407 -0.8614 -0.1026 -0.8546
15963TIP3    H269305   4.034   5.221  14.538 -2.4253 -1.4118 -2.0016
15964TIP3   OH269306   5.490   5.260   1.252  0.0049  0.0894  0.3707
15964TIP3    H169307   5.541   5.207   1.191 -0.3668  1.2296 -0.9797
15964TIP3    H269308   5.552   5.328   1.281 -0.3931  0.8090 -0.4105
15965TIP3   OH269309   5.913   3.389   4.347  0.9657  0.4802  0.9595
15965TIP3    H169310   5.947   3.380   4.435  0.2446 -0.3450  1.1543
15965TIP3    H269311   5.940   3.477   4.320  2.6596  0.1003  1.3454
15966TIP3   OH269312   5.757   2.023  12.712 -0.9678 -0.1823  0.0918
15966TIP3    H169313   5.702   2.045  12.637 -2.8893  0.8716  1.7374
15966TIP3    H269314   5.787   2.107  12.746  1.4804 -0.7468 -0.6263
15967TIP3   OH269315   4.513   1.337   1.462  0.8233 -0.2567  0.1890
15967TIP3    H169316   4.559   1.281   1.399  0.1058 -1.9967  1.1667
15967TIP3    H269317   4.575   1.407   1.482  1.4167 -0.2063 -1.7109
15968TIP3   OH269318   5.184   5.074  13.621  0.2850 -0.7021 -0.4571
15968TIP3    H169319   5.212   5.124  13.544  2.0289  0.0806  0.6600
15968TIP3    H269320   5.145   5.139  13.679 -0.0106 -1.1023 -0.2062
15969TIP3   OH269321   1.353   4.964  16.419 -0.0282  0.6792  0.4090
15969TIP3    H169322   1.351   5.008  16.334  0.0261  0.7806  0.4591
15969TIP3    H269323   1.411   5.019  16.472  0.1123  0.4952  0.4419
15970TIP3   OH269324   0.517   2.872  13.672 -0.5566  0.1712  0.6406
15970TIP3    H169325   0.506   2.967  13.677 -1.6706  0.2782 -2.4414
15970TIP3    H269326   0.597   2.860  13.621 -1.5138 -0.4836 -0.7561
15971TIP3   OH269327   0.506   1.252   6.202  0.3806  0.6583 -0.1806
15971TIP3    H169328   0.464   1.238   6.117 -0.2689 -0.2185  0.2803
15971TIP3    H269329   0.442   1.301   6.253  0.3448  0.2660  0.1575
15972TIP3   OH269330   5.929   1.450  10.623 -0.2212 -0.3483  0.4002
15972TIP3    H169331   5.867   1.499  10.569 -1.8788 -2.6613  0.0984
15972TIP3    H269332   5.934   1.500  10.705 -0.0140  1.5773 -0.7557
15973TIP3   OH269333   0.655   5.318  12.796 -0.1623  0.1132  0.3083
15973TIP3    H169334   0.577   5.265  12.812 -0.7124  0.5232 -0.9726
15973TIP3    H269335   0.622   5.406  12.779  0.5601  0.2224 -0.5677
15974TIP3   OH269336   0.488   4.105  14.757 -0.3163 -0.2124  0.5159
15974TIP3    H169337   0.430   4.163  14.708 -1.4817 -2.2593 -0.6223
15974TIP3    H269338   0.572   4.151  14.760 -0.9582  1.1034 -1.1507
15975TIP3   OH269339   5.815   0.761  12.047 -0.6872  0.3549  0.4529
15975TIP3    H169340   5.798   0.836  12.104 -0.7743  0.6090  0.0940
15975TIP3    H269341   5.763   0.779  11.968  0.9426  0.9398 -0.4962
15976TIP3   OH269342   3.544   2.365  13.126 -0.2185  0.5722 -0.2873
15976TIP3    H169343   3.450   2.375  13.112 -0.7953 -1.5937  1.6646
15976TIP3    H269344   3.578   2.340  13.041 -1.3657  1.7376 -1.0981
15977TIP3   OH269345   4.386   1.562  13.908 -0.4139 -0.1212  0.2217
15977TIP3    H169346   4.316   1.605  13.859  1.2739 -0.5681 -2.7284
15977TIP3    H269347   4.353   1.474  13.927 -1.6779  0.5687  1.2731
15978TIP3   OH269348   2.293   3.487   4.894  0.3278 -0.5632  0.1310
15978TIP3    H169349   2.272   3.557   4.832 -0.1323 -1.0424 -0.2722
15978TIP3    H269350   2.238   3.505   4.970  0.6883 -0.1281  0.2894
15979TIP3   OH269351   3.808   3.774   3.241  0.0285 -0.2046 -0.2534
15979TIP3    H169352   3.742   3.780   3.172 -0.0617 -3.2583 -0.4768
15979TIP3    H269353   3.758   3.760   3.322  0.3621 -1.7795 -0.3154
15980TIP3   OH269354   6.454   3.753   3.609  0.1547 -0.1869  0.1874
15980TIP3    H169355   6.458   3.689   3.538  0.0672 -0.4221  0.3936
15980TIP3    H269356   6.501   3.711   3.682  0.3567  0.1063  0.2247
15981TIP3   OH269357   2.853   5.422   0.080 -0.6816  0.1805 -0.3376
15981TIP3    H169358   2.812   5.468   0.006 -0.6166  0.2820 -0.3108
15981TIP3    H269359   2.936   5.468   0.094 -0.4051 -0.2355 -0.6060
15982TIP3   OH269360   3.047   0.193  16.101 -0.1061 -0.0786  0.5793
15982TIP3    H169361   3.018   0.102  16.109  0.1547 -0.0815  1.4716
15982TIP3    H269362   3.047   0.209  16.006 -2.0649 -0.3900  0.4951
15983TIP3   OH269363   4.204   0.372  14.139 -0.4969  0.2347  0.0311
15983TIP3    H169364   4.199   0.300  14.076  1.0693 -0.4311  0.6429
15983TIP3    H269365   4.290   0.411  14.124 -1.1379  1.6836  0.0421
15984TIP3   OH269366   2.046   3.427  16.335 -0.2278  0.0618 -0.3310
15984TIP3    H169367   2.026   3.516  16.307 -0.9766  0.0095  0.0264
15984TIP3    H269368   2.141   3.426  16.347 -0.3659  1.1663  0.9064
15985TIP3   OH269369   2.198   4.485  11.959  0.3519  0.5273  0.0766
15985TIP3    H169370   2.257   4.530  11.898  0.0027  1.7376  0.6311
15985TIP3    H269371   2.114   4.530  11.950 -0.4751 -1.1015 -0.6009
15986TIP3   OH269372   5.715   1.596   3.835  0.0374 -0.1318  0.1835
15986TIP3    H169373   5.756   1.564   3.915 -0.5572 -0.1456  0.4858
15986TIP3    H269374   5.770   1.562   3.765 -0.3216 -1.4228  0.5172
15987TIP3   OH269375   3.400   6.328  13.226  0.9039 -0.3386  0.3787
15987TIP3    H169376   3.305   6.332  13.232  0.7257 -2.0854 -0.8173
15987TIP3    H269377   3.418   6.317  13.132  2.2400 -0.5448  0.6455
15988TIP3   OH269378   1.793   5.737   4.011  0.0702 -0.5349 -0.2203
15988TIP3    H169379   1.808   5.761   4.103 -0.2731  0.1264 -0.3323
15988TIP3    H269380   1.862   5.784   3.963 -1.3960  1.3414 -0.5818
15989TIP3   OH269381   1.679   2.630  12.523  0.0618 -0.2087  0.1922
15989TIP3    H169382   1.596   2.595  12.491  0.2401 -0.5604  0.1150
15989TIP3    H269383   1.654   2.704  12.578 -0.2329  0.6699 -1.1038
15990TIP3   OH269384   5.420   3.093   2.401  0.1250  0.5019  0.6367
15990TIP3    H169385   5.480   3.018   2.391 -1.5051 -0.6714 -0.6107
15990TIP3    H269386   5.433   3.144   2.321 -2.5324 -1.2760 -1.0278
15991TIP3   OH269387   0.221   4.249  12.426  0.2539  0.8263 -0.9618
15991TIP3    H169388   0.226   4.266  12.332 -0.3782  0.1490 -1.1231
15991TIP3    H269389   0.169   4.321  12.460  2.6417  2.4885 -0.7328
15992TIP3   OH269390   0.754   2.976   3.725  0.4774  0.2577  0.5405
15992TIP3    H169391   0.667   2.945   3.700  0.5908  0.0620  0.3889
15992TIP3    H269392   0.789   3.019   3.646  1.0689 -0.8754  0.1751
15993TIP3   OH269393   6.488   6.716   0.552  0.1880  0.1400  0.2930
15993TIP3    H169394   6.509   6.721   0.458  0.1239 -0.1315  0.2637
15993TIP3    H269395   6.420   6.782   0.564 -0.3600 -0.3624 -0.0106
15994TIP3   OH269396   5.886   1.618   0.781  0.5333  0.5611  0.2772
15994TIP3    H169397   5.865   1.548   0.720  2.1953 -0.1408  0.4649
15994TIP3    H269398   5.841   1.695   0.747 -1.2195 -0.5602 -0.0065
15995TIP3   OH269399   5.754   0.261   6.531  0.2280 -0.0626 -0.0067
15995TIP3    H169400   5.815   0.247   6.459  0.9761 -0.9999  0.7980
15995TIP3    H269401   5.808   0.254   6.610 -0.6990  0.3087  0.6628
15996TIP3   OH269402   5.316   6.141   1.809 -0.1928  0.4245  0.0102
15996TIP3    H169403   5.232   6.148   1.855  0.3599 -1.9744  1.5062
15996TIP3    H269404   5.292   6.113   1.721 -1.0204  0.3407  0.2545
15997TIP3   OH269405   6.767   3.982  15.918 -0.0182  0.3907 -0.2902
15997TIP3    H169406   6.780   4.075  15.899 -0.9037  0.2157 -1.8683
15997TIP3    H269407   6.681   3.963  15.881  0.9448 -1.4973 -1.6005
15998TIP3   OH269408   2.648   4.254  16.508 -0.3894  0.3096 -0.3853
15998TIP3    H169409   2.653   4.242  16.413  0.9130  0.8183 -0.3900
15998TIP3    H269410   2.707   4.189  16.544 -1.7828 -0.6725  0.1557
15999TIP3   OH269411   2.981   4.874   5.349  0.0105  0.3412 -0.8539
15999TIP3    H169412   2.893   4.846   5.376  0.0014  0.1883 -1.0495
15999TIP3    H269413   2.967   4.962   5.313  0.2552  1.2592  1.1633
16000TIP3   OH269414   5.906   4.004  14.144  0.1474 -0.0075  0.1171
16000TIP3    H169415   5.993   4.015  14.105 -0.7861  3.3147 -1.2515
16000TIP3    H269416   5.849   3.983  14.070 -0.2697 -1.9206  0.9695
16001TIP3   OH269417   3.044   0.394   5.428  0.8684 -0.1254 -0.5014
16001TIP3    H169418   3.035   0.309   5.385 -1.0738 -0.9348  1.3986
16001TIP3    H269419   2.961   0.407   5.474  0.9416  3.0452 -1.1454
16002TIP3   OH269420   4.253   1.006   1.563 -0.1335 -0.4482 -0.0146
16002TIP3    H169421   4.223   1.058   1.637  1.4253 -1.5430  1.4512
16002TIP3    H269422   4.268   1.069   1.493 -0.2179  0.8115  1.0856
16003TIP3   OH269423   4.359   5.018  13.427  0.1731  0.0482 -0.4784
16003TIP3    H169424   4.338   4.986  13.339 -0.1473  0.7924 -0.6743
16003TIP3    H269425   4.298   5.090  13.442  2.2875  1.9700 -0.8826
16004TIP3   OH269426   4.055   0.101  14.765 -0.1285  0.1965  0.0086
16004TIP3    H169427   4.004   0.078  14.842 -2.2393  2.2406 -0.7078
16004TIP3    H269428   4.137   0.135  14.799  0.8781 -3.2459  1.1856
16005TIP3   OH269429   1.773   6.189  12.253 -0.4045 -0.4819  0.3961
16005TIP3    H169430   1.735   6.110  12.290 -0.5843 -0.0768  1.0795
16005TIP3    H269431   1.861   6.163  12.226 -1.0773 -1.3654 -0.9943
16006TIP3   OH269432   5.936   5.910  10.563  0.1704  0.4322 -0.4167
16006TIP3    H169433   5.932   5.970  10.638 -1.6360  0.8564 -0.8292
16006TIP3    H269434   5.848   5.913  10.525  0.5354 -1.2059 -1.4503
16007TIP3   OH269435   6.783   0.086   1.156  0.1695  0.5773  0.7443
16007TIP3    H169436   6.736   0.168   1.141 -2.2738 -0.5387  1.9976
16007TIP3    H269437   6.728   0.019   1.115  2.4710 -0.3705 -0.8474
16008TIP3   OH269438   1.932   1.458  13.693 -0.1284 -0.5167 -0.3646
16008TIP3    H169439   1.980   1.376  13.684 -2.4658 -1.8050 -1.6553
16008TIP3    H269440   1.891   1.453  13.779  0.4900 -0.2747 -0.0547
16009TIP3   OH269441   0.801   5.060  14.958 -0.0918  0.2175  0.2831
16009TIP3    H169442   0.866   5.059  15.027 -0.6449  1.3178  0.8322
16009TIP3    H269443   0.771   5.151  14.954 -0.2065  0.1266 -1.2651
16010TIP3   OH269444   3.069   0.442   3.379  0.3199 -0.5136  0.9771
16010TIP3    H169445   3.092   0.530   3.409  1.5587 -1.2695  2.2903
16010TIP3    H269446   3.015   0.457   3.302  4.6205  1.4201 -1.8966
16011TIP3   OH269447   6.532   0.534   0.077 -0.2988 -0.8511  0.4068
16011TIP3    H169448   6.497   0.510  -0.009 -1.0392 -1.0680  0.7606
16011TIP3    H269449   6.623   0.504   0.076 -0.4697 -1.3563 -0.0964
16012TIP3   OH269450   3.427   1.138  14.670  0.0526 -0.5525 -0.2438
16012TIP3    H169451   3.377   1.194  14.728  0.3853 -2.2124  1.6725
16012TIP3    H269452   3.512   1.182  14.661  0.1076 -0.4572  0.7741
16013TIP3   OH269453   2.068   3.702  16.277 -0.0468  0.4446 -0.3487
16013TIP3    H169454   2.056   3.746  16.193  1.7345  1.5434 -0.0574
16013TIP3    H269455   2.059   3.772  16.342 -0.8016 -0.2924  0.3483
16014TIP3   OH269456   1.583   5.757   0.447 -0.1598  0.1854 -0.2729
16014TIP3    H169457   1.584   5.846   0.482 -0.2841  0.3847 -0.7680
16014TIP3    H269458   1.613   5.767   0.356  2.8042 -0.6673  0.5551
16015TIP3   OH269459   6.310   1.038   4.097  0.0420 -0.0873 -0.8512
16015TIP3    H169460   6.304   1.017   4.190 -0.8589 -2.4550 -1.4008
16015TIP3    H269461   6.239   0.988   4.057  0.3730  0.9753 -2.8014
16016TIP3   OH269462   6.690   1.368   3.862 -0.3702  0.2333 -0.3402
16016TIP3    H169463   6.769   1.322   3.892 -0.3871 -0.6740 -1.6542
16016TIP3    H269464   6.626   1.354   3.932 -0.5989 -2.3625 -1.0263
16017TIP3   OH269465   3.171   6.483  14.537  0.3911  0.0369  0.4629
16017TIP3    H169466   3.206   6.409  14.586  2.8018  1.5521  1.0965
16017TIP3    H269467   3.202   6.469  14.447 -0.1225 -0.3112  0.3370
16018TIP3   OH269468   4.708   0.834  12.490  0.6432  0.2212  0.0834
16018TIP3    H169469   4.773   0.807  12.425  1.6874 -0.3890  1.3795
16018TIP3    H269470   4.629   0.849  12.438  1.2126 -1.1079 -1.2232
16019TIP3   OH269471   5.742   6.486  14.067  0.3727 -0.3011  0.0237
16019TIP3    H169472   5.774   6.502  13.978  0.9235 -0.9674  0.1005
16019TIP3    H269473   5.659   6.534  14.072  0.0973 -0.6556 -1.0133
16020TIP3   OH269474   4.337   1.072  12.245  0.6942  0.3529  0.8335
16020TIP3    H169475   4.313   1.125  12.169  0.8382  0.7215  1.0437
16020TIP3    H269476   4.299   1.118  12.320 -0.2383 -0.5035  0.8929
16021TIP3   OH269477   6.032   6.022   5.510 -0.4021  0.5176 -0.5906
16021TIP3    H169478   6.038   5.927   5.517 -0.4491  0.5464 -0.1460
16021TIP3    H269479   5.939   6.040   5.496 -0.2705  0.4445 -1.5529
16022TIP3   OH269480   4.535   3.665  14.824  0.0178  0.2839  0.0116
16022TIP3    H169481   4.614   3.621  14.854  0.6557  1.3838 -0.0283
16022TIP3    H269482   4.506   3.615  14.749 -0.4843 -1.3359  1.2519
16023TIP3   OH269483   3.177   2.719  12.884 -0.3263 -0.0554  0.6129
16023TIP3    H169484   3.248   2.661  12.855  0.3370  0.0021  2.0933
16023TIP3    H269485   3.106   2.661  12.909 -0.4912 -0.1393 -0.0252
16024TIP3   OH269486   1.079   2.239   3.403 -0.0963  0.1709  0.0264
16024TIP3    H169487   1.131   2.158   3.407 -0.3058  0.0750  1.1101
16024TIP3    H269488   1.001   2.219   3.455  0.1375  1.2627  0.8060
16025TIP3   OH269489   3.324   4.068   5.951 -0.0766 -0.3942  0.4335
16025TIP3    H169490   3.279   3.985   5.962  0.5583 -0.5864  1.7879
16025TIP3    H269491   3.263   4.134   5.985 -0.8204 -0.2303 -1.1966
16026TIP3   OH269492   1.518   6.261  11.362 -0.1353 -0.1268 -0.6020
16026TIP3    H169493   1.530   6.304  11.447  0.7512 -0.6137 -0.4738
16026TIP3    H269494   1.558   6.321  11.299 -3.2394  1.6006 -1.0677
16027TIP3   OH269495   1.526   2.380   5.692 -0.1221 -0.0026  0.7079
16027TIP3    H169496   1.512   2.474   5.694 -0.0829  0.0130  0.3015
16027TIP3    H269497   1.501   2.354   5.603  0.5037 -0.2735  0.6118
16028TIP3   OH269498   0.422   2.069   1.995 -0.5603  0.7005  0.3013
16028TIP3    H169499   0.337   2.062   2.039 -0.7066  1.4806  0.1504
16028TIP3    H269500   0.406   2.035   1.907 -0.9018  1.5251  0.0394
16029TIP3   OH269501   2.437   3.058   4.933 -0.2993  0.5048 -0.1146
16029TIP3    H169502   2.389   3.017   4.861 -0.1464  0.5849 -0.2625
16029TIP3    H269503   2.528   3.031   4.919 -0.4986 -0.7147  0.8995
16030TIP3   OH269504   0.875   3.433  16.919  0.4011  0.0231 -0.8796
16030TIP3    H169505   0.809   3.484  16.965  1.4803  2.3194 -1.8094
16030TIP3    H269506   0.881   3.473  16.832  3.6020  0.4174 -0.5268
16031TIP3   OH269507   2.695   0.480  15.966  0.4571  0.0855  0.1734
16031TIP3    H169508   2.789   0.479  15.947  0.4463 -0.3994  0.1339
16031TIP3    H269509   2.683   0.413  16.033  0.0910 -0.0813 -0.0553
16032TIP3   OH269510   1.156   1.433   3.998 -0.8850  0.2875  0.5200
16032TIP3    H169511   1.157   1.338   3.981  1.9031  0.1011  1.3257
16032TIP3    H269512   1.082   1.445   4.058 -0.5876 -1.6016  1.3400
16033TIP3   OH269513   0.104   3.381   3.136  0.9743  0.2106  0.5787
16033TIP3    H169514   0.052   3.429   3.072  2.8651  0.7293 -0.6271
16033TIP3    H269515   0.130   3.301   3.090  0.3747 -0.5300  1.5213
16034TIP3   OH269516   4.516   6.775   1.324  0.4423 -0.1109 -0.4176
16034TIP3    H169517   4.454   6.702   1.330  0.3889  0.0516  1.0786
16034TIP3    H269518   4.537   6.796   1.414 -0.9343  2.9136 -0.7349
16035TIP3   OH269519   4.257   0.579   2.971 -0.5322  0.0978 -0.1647
16035TIP3    H169520   4.250   0.670   3.003 -2.2625 -0.3610  0.8391
16035TIP3    H269521   4.346   0.553   2.995 -0.9581  0.5985  2.1419
16036TIP3   OH269522   2.970   6.657   1.536 -0.2667  0.0945 -0.6986
16036TIP3    H169523   2.929   6.613   1.462 -1.7359  2.2288 -1.2273
16036TIP3    H269524   2.901   6.714   1.571  1.1536  0.9891  0.7256
16037TIP3   OH269525   4.654   1.669  12.222  0.5537 -0.3656  0.0267
16037TIP3    H169526   4.568   1.711  12.213  1.5267  2.3472  2.4200
16037TIP3    H269527   4.643   1.609  12.296  0.8701  0.5978  0.8852
16038TIP3   OH269528   6.542   0.375  17.024  0.0073 -0.5116  0.1355
16038TIP3    H169529   6.571   0.317  17.094 -1.2904 -0.1142  1.0109
16038TIP3    H269530   6.616   0.436  17.012  0.5621 -1.0848  0.5923
16039TIP3   OH269531   3.638   5.634  11.868 -0.2082  0.2555 -0.3351
16039TIP3    H169532   3.668   5.725  11.859  0.9106 -0.2561 -1.9775
16039TIP3    H269533   3.561   5.629  11.812  0.7777 -0.2674 -1.6544
16040TIP3   OH269534   2.643   4.552   4.871  0.2965  0.8539 -0.6921
16040TIP3    H169535   2.587   4.502   4.930  2.4910 -0.1248  0.6279
16040TIP3    H269536   2.582   4.597   4.812 -1.9020  0.8978  1.5255
16041TIP3   OH269537   3.903   0.173  15.865  0.0414 -0.1301  0.1588
16041TIP3    H169538   3.932   0.244  15.921 -2.5259  0.8878  0.2377
16041TIP3    H269539   3.936   0.094  15.908  0.5828  0.8163  1.5277
16042TIP3   OH269540   6.055   3.415   3.957  0.1228  0.0271  0.0604
16042TIP3    H169541   5.971   3.369   3.957  0.5852 -0.8557 -1.8894
16042TIP3    H269542   6.031   3.508   3.947 -0.6292 -0.1676  0.0273
16043TIP3   OH269543   2.750   6.219   4.208  0.6496  0.0541 -0.7166
16043TIP3    H169544   2.685   6.279   4.244 -0.6795 -0.2028 -2.5816
16043TIP3    H269545   2.753   6.147   4.270 -0.6390  0.2169 -0.4470
16044TIP3   OH269546   4.809   0.716  15.456 -0.0228 -0.2889 -0.1117
16044TIP3    H169547   4.862   0.774  15.511 -1.8489  1.1214  0.2350
16044TIP3    H269548   4.788   0.770  15.379 -1.1120 -0.7720 -0.1516
16045TIP3   OH269549   3.842   0.645   5.837  0.2815 -0.3679 -0.3987
16045TIP3    H169550   3.796   0.666   5.755 -2.0825 -0.6394  0.8390
16045TIP3    H269551   3.808   0.708   5.900  1.2346 -0.9193  0.6743
16046TIP3   OH269552   1.559   1.198  14.777 -0.2663 -0.0762 -0.0683
16046TIP3    H169553   1.647   1.234  14.771 -0.9335  1.7466  0.7285
16046TIP3    H269554   1.503   1.264  14.735 -1.0575 -2.0788 -2.3045
16047TIP3   OH269555   4.197   4.364  15.506  0.0156  0.4200  0.9323
16047TIP3    H169556   4.282   4.336  15.541  0.1309  0.6945  0.8684
16047TIP3    H269557   4.133   4.321  15.562  0.1996  0.5875  1.2679
16048TIP3   OH269558   0.305   4.863  13.208 -0.0826  0.0959 -0.2565
16048TIP3    H169559   0.334   4.944  13.248 -1.8189  0.1319  0.9723
16048TIP3    H269560   0.230   4.835  13.260 -0.0754 -1.8283 -1.2057
16049TIP3   OH269561   0.428   0.054   1.354 -0.1214  0.4050 -0.2037
16049TIP3    H169562   0.393   0.096   1.275 -0.8951  0.1891  0.0189
16049TIP3    H269563   0.522   0.046   1.337 -0.1881  0.9188 -0.8478
16050TIP3   OH269564   6.761   3.261   1.261  0.1507 -0.2676 -0.5602
16050TIP3    H169565   6.740   3.353   1.275 -0.2956 -0.6529  1.5078
16050TIP3    H269566   6.828   3.261   1.192  0.1997  1.5939 -0.5261
16051TIP3   OH269567   0.600   0.364   3.340 -0.8819  0.2414 -0.3735
16051TIP3    H169568   0.557   0.405   3.265 -3.4672 -1.7922 -0.0874
16051TIP3    H269569   0.540   0.382   3.413 -1.1256 -2.4245  0.1108
16052TIP3   OH269570   6.285   3.276  17.207  0.0478 -0.8672  0.2279
16052TIP3    H169571   6.366   3.304  17.164  0.8785 -2.0066  1.0175
16052TIP3    H269572   6.216   3.302  17.147  0.9082  1.2854  0.1324
16053TIP3   OH269573   4.023   4.452   1.047  0.2765 -0.2124 -0.0440
16053TIP3    H169574   3.959   4.453   1.119  1.6629  1.4633  1.1931
16053TIP3    H269575   4.077   4.529   1.061  2.9745 -1.8898 -0.7583
16054TIP3   OH269576   0.234   3.207   0.351 -0.0436  0.0269  0.2174
16054TIP3    H169577   0.274   3.169   0.430 -0.4741 -0.4503  0.2153
16054TIP3    H269578   0.219   3.131   0.294 -0.0403  0.3301 -0.1799
16055TIP3   OH269579   1.937   2.858   4.640 -0.4347 -0.1341  0.3857
16055TIP3    H169580   1.997   2.783   4.650 -1.2553 -0.5064  2.6789
16055TIP3    H269581   1.995   2.934   4.636  0.2697 -0.6109  1.2929
16056TIP3   OH269582   6.296   1.990  11.152  0.1428 -0.0259 -0.4436
16056TIP3    H169583   6.256   1.932  11.088  0.2538  0.6907 -1.1840
16056TIP3    H269584   6.373   2.026  11.106  0.4124  0.2341  0.2093
16057TIP3   OH269585   6.545   4.373  11.825 -0.4812 -0.1542  0.0672
16057TIP3    H169586   6.626   4.354  11.872 -1.0498  0.0227  1.1485
16057TIP3    H269587   6.514   4.456  11.862 -0.4310  0.5054 -1.3282
16058TIP3   OH269588   3.106   2.866  14.119 -0.1681 -0.0068  0.1778
16058TIP3    H169589   3.066   2.825  14.196  0.8378  0.3411  0.8965
16058TIP3    H269590   3.063   2.951  14.112 -1.4141 -0.6836 -0.6127
16059TIP3   OH269591   1.935   1.788   2.557 -0.8662 -0.0054  0.6129
16059TIP3    H169592   1.932   1.694   2.540  1.0587 -0.4857  2.5713
16059TIP3    H269593   2.029   1.808   2.562 -1.2653  1.6759  1.8396
16060TIP3   OH269594   6.038   2.710  12.669 -0.5394  0.0672 -0.1107
16060TIP3    H169595   6.033   2.802  12.695 -0.7707 -0.1182  0.5122
16060TIP3    H269596   6.079   2.667  12.744 -1.5070 -0.5315  0.0760
16061TIP3   OH269597   0.185   0.511   3.336 -0.0422 -0.1225 -0.4976
16061TIP3    H169598   0.251   0.508   3.406 -1.6547 -0.0581  1.0729
16061TIP3    H269599   0.177   0.603   3.313  0.5045 -0.1457 -0.7776
16062TIP3   OH269600   5.092   4.092  12.081  0.5539 -0.0963  0.3286
16062TIP3    H169601   5.047   4.008  12.087  2.2759 -0.9874  0.8434
16062TIP3    H269602   5.096   4.109  11.987  0.7580 -0.8785  0.1925
16063TIP3   OH269603   2.318   4.600  16.854  0.1765  0.5232  0.1963
16063TIP3    H169604   2.322   4.647  16.771 -0.7717  1.6373  0.7634
16063TIP3    H269605   2.408   4.569  16.869  0.1262 -0.6756 -1.7841
16064TIP3   OH269606   2.550   5.755  15.620  0.1762 -0.1610  0.1273
16064TIP3    H169607   2.596   5.674  15.601 -1.9768 -1.6817  1.1800
16064TIP3    H269608   2.564   5.809  15.542  3.0665 -0.8386  0.1362
16065TIP3   OH269609   2.841   5.580  16.457 -0.0638  0.1694  0.1085
16065TIP3    H169610   2.930   5.548  16.474  0.1322 -1.1920 -3.0833
16065TIP3    H269611   2.788   5.501  16.449 -1.4557  0.9633  1.2372
16066TIP3   OH269612   6.362   0.777   4.765 -0.3375 -0.0351  0.4629
16066TIP3    H169613   6.346   0.858   4.812 -1.1610  0.6242 -0.8974
16066TIP3    H269614   6.348   0.708   4.830  1.2319  0.9194  1.8489
16067TIP3   OH269615   6.213   1.907  16.798 -0.3224 -0.0561 -0.4669
16067TIP3    H169616   6.202   1.879  16.707 -0.1361  0.3274 -0.6070
16067TIP3    H269617   6.258   1.834  16.840 -0.2701 -0.1689 -0.7166
16068TIP3   OH269618   2.086   2.127   3.703 -0.4967  0.4488 -0.4528
16068TIP3    H169619   2.089   2.169   3.618 -1.7219 -1.0946 -1.2865
16068TIP3    H269620   2.008   2.161   3.746  0.6853  2.0178  0.5033
16069TIP3   OH269621   6.353   2.165   3.900 -0.1656  0.2927  0.0418
16069TIP3    H169622   6.386   2.091   3.850  0.8058  1.6387 -1.3494
16069TIP3    H269623   6.289   2.127   3.960 -0.9508 -1.4313 -1.8449
16070TIP3   OH269624   1.100   5.997  16.259  0.8817 -0.1799 -0.5116
16070TIP3    H169625   1.171   6.007  16.323  0.0847 -0.5633  0.4281
16070TIP3    H269626   1.067   5.909  16.272  1.2721 -0.5732 -2.0457
16071TIP3   OH269627   5.223   5.292   1.177 -0.0194  0.6784 -0.4061
16071TIP3    H169628   5.170   5.213   1.186 -1.1705  1.6512  1.8001
16071TIP3    H269629   5.307   5.269   1.214 -0.9632  1.0132  2.0484
16072TIP3   OH269630   1.790   3.230   0.210  0.4855 -0.2345  0.1844
16072TIP3    H169631   1.745   3.275   0.139  1.6012  1.5522  0.5585
16072TIP3    H269632   1.835   3.300   0.258 -0.3618 -1.3746  2.7396
16073TIP3   OH269633   1.816   2.742  16.446  0.2399  0.2949  0.3354
16073TIP3    H169634   1.821   2.835  16.469  3.4203  0.2188  0.1706
16073TIP3    H269635   1.767   2.741  16.364 -0.8235  1.7053  0.9192
16074TIP3   OH269636   0.601   0.132  15.906 -0.0551  0.1075  0.3228
16074TIP3    H169637   0.657   0.071  15.859 -2.5379 -1.3655 -0.8215
16074TIP3    H269638   0.661   0.194  15.947  2.2830 -0.1255 -2.6522
16075TIP3   OH269639   4.453   2.867   2.123  0.2060 -0.1117  0.5872
16075TIP3    H169640   4.400   2.849   2.045 -0.7721  0.8694  1.0060
16075TIP3    H269641   4.492   2.783   2.145 -0.9632 -0.8041  0.0986
16076TIP3   OH269642   1.277   3.611   2.186 -0.0537  0.1762 -0.8434
16076TIP3    H169643   1.246   3.560   2.111 -2.6908  1.2700 -0.5465
16076TIP3    H269644   1.310   3.692   2.148 -1.6870  0.8649 -0.8141
16077TIP3   OH269645   2.994   6.038   5.701 -0.3234  0.6279 -0.5375
16077TIP3    H169646   2.989   5.982   5.778  1.1173  2.8263  1.1817
16077TIP3    H269647   3.079   6.018   5.661  0.5556  2.1316  0.5366
16078TIP3   OH269648   6.459   2.379  16.298 -0.1593 -0.2114 -0.5059
16078TIP3    H169649   6.468   2.285  16.281  0.7601 -0.2106 -0.0465
16078TIP3    H269650   6.449   2.385  16.393  1.6756  0.2808 -0.3274
16079TIP3   OH269651   3.414   3.979  15.893 -0.1329 -0.0505  0.1161
16079TIP3    H169652   3.480   3.970  15.962  0.2520 -2.5512 -0.5325
16079TIP3    H269653   3.411   4.073  15.876  1.3796  0.3869  1.9694
16080TIP3   OH269654   3.182   3.568   3.111 -0.1571 -0.3370 -0.4542
16080TIP3    H169655   3.157   3.659   3.123 -1.6406 -0.7828 -0.1419
16080TIP3    H269656   3.255   3.555   3.171 -0.4847  0.4045  0.1102
16081TIP3   OH269657   1.963   5.286   5.420  0.7042  0.2221  0.3026
16081TIP3    H169658   1.876   5.316   5.443  0.0981 -3.0058  2.7069
16081TIP3    H269659   1.949   5.223   5.349  1.1133  0.0647  0.3587
16082TIP3   OH269660   1.596   3.651   1.453  0.2881  0.1084 -0.0377
16082TIP3    H169661   1.557   3.636   1.539  0.2715  1.6238  0.2240
16082TIP3    H269662   1.524   3.682   1.399  0.4402 -0.2237 -0.4343
16083TIP3   OH269663   6.527   4.639  13.190  0.0796 -0.0385 -0.3068
16083TIP3    H169664   6.587   4.663  13.260  1.4678  1.9224 -2.1256
16083TIP3    H269665   6.440   4.647  13.229  0.8418  0.5078  1.3249
16084TIP3   OH269666   6.516   2.008   1.008 -0.1537 -0.9441 -0.5894
16084TIP3    H169667   6.465   2.041   1.082  1.5283  0.2855  0.0409
16084TIP3    H269668   6.454   2.006   0.935 -1.5655 -1.2027  0.5948
16085TIP3   OH269669   2.548   6.005  15.526  0.0232  0.0216 -0.0763
16085TIP3    H169670   2.537   6.041  15.614  1.5580 -0.9660  0.5498
16085TIP3    H269671   2.633   6.040  15.497 -1.0033  1.2840 -1.6441
16086TIP3   OH269672   6.478   1.242  15.136  0.4384 -0.8490  0.2627
16086TIP3    H169673   6.529   1.321  15.152  1.3922 -1.5380  0.6704
16086TIP3    H269674   6.473   1.199  15.222 -2.6278  0.2557  0.6925
16087TIP3   OH269675   6.460   2.472  16.912 -0.0137  0.7445  0.2384
16087TIP3    H169676   6.523   2.419  16.960  0.1600 -0.8734 -1.7073
16087TIP3    H269677   6.501   2.559  16.906  1.1073  0.2587  0.7773
16088TIP3   OH269678   6.278   0.046  16.033 -0.6057 -1.2711 -0.5617
16088TIP3    H169679   6.269   0.099  15.954  2.2899 -2.1991 -1.6128
16088TIP3    H269680   6.221   0.088  16.097 -1.7512  0.4838 -2.6571
16089TIP3   OH269681   2.498   3.880   2.224 -0.2008 -0.4486 -0.2199
16089TIP3    H169682   2.448   3.846   2.299  1.1058 -0.7304  0.5309
16089TIP3    H269683   2.455   3.963   2.203 -0.6363 -0.4139  0.7843
16090TIP3   OH269684   6.127   6.204   3.296  0.1952 -0.2319 -0.4597
16090TIP3    H169685   6.164   6.289   3.322 -2.1759  1.0118 -0.9343
16090TIP3    H269686   6.173   6.140   3.349  2.9431  1.2206 -1.0007
16091TIP3   OH269687   0.336   6.681  14.935 -0.3043 -0.6514 -0.9447
16091TIP3    H169688   0.273   6.669  14.864 -0.3932  0.9877 -1.1561
16091TIP3    H269689   0.366   6.771  14.926 -0.2118 -0.4574  1.0282
16092TIP3   OH269690   1.136   4.865  16.551 -0.1543  0.1753 -0.0164
16092TIP3    H169691   1.138   4.901  16.640  1.0727 -1.3988  0.6095
16092TIP3    H269692   1.182   4.930  16.498  0.8309  0.1928  0.8484
16093TIP3   OH269693   0.847   5.354   2.165  0.2701 -0.6746 -0.7024
16093TIP3    H169694   0.867   5.261   2.153 -0.7813 -0.8898 -0.9039
16093TIP3    H269695   0.766   5.368   2.115 -0.6191 -0.0976  0.8310
16094TIP3   OH269696   0.960   2.849  14.046 -0.1328  0.5409 -0.3358
16094TIP3    H169697   0.899   2.885  13.982 -0.1856  1.2183  0.0887
16094TIP3    H269698   0.935   2.757  14.054 -0.9131  0.7483 -0.3709
16095TIP3   OH269699   5.414   6.381  14.204  0.5872  0.1675  0.2937
16095TIP3    H169700   5.438   6.300  14.249  0.0745  0.3211  0.8486
16095TIP3    H269701   5.498   6.422  14.182  0.8458 -0.5812 -0.1045
16096TIP3   OH269702   0.327   2.293  12.708 -0.1757  0.0159 -0.4295
16096TIP3    H169703   0.299   2.335  12.789 -1.5190  0.3474 -1.0457
16096TIP3    H269704   0.269   2.330  12.641  1.1046 -0.0410 -1.5853
16097TIP3   OH269705   1.582   0.053   5.975 -0.3979 -0.0340  0.2606
16097TIP3    H169706   1.563   0.112   5.902 -0.4592 -0.8921 -0.4130
16097TIP3    H269707   1.675   0.033   5.967 -0.5216 -0.5550  0.0998
16098TIP3   OH269708   3.623   4.284   0.390 -0.4672 -0.0496 -0.2472
16098TIP3    H169709   3.605   4.196   0.421  0.4634 -0.4327 -0.7720
16098TIP3    H269710   3.653   4.332   0.467 -2.5469  0.2740  0.3844
16099TIP3   OH269711   2.910   0.183  12.530  0.2804  0.2766 -0.1212
16099TIP3    H169712   2.931   0.214  12.442 -0.0142 -0.2656 -0.3848
16099TIP3    H269713   2.957   0.242  12.589  1.8192 -0.3814 -0.6809
16100TIP3   OH269714   3.332   3.037  14.344  0.0836 -0.4380 -0.5152
16100TIP3    H169715   3.293   3.050  14.258 -3.4548 -0.8197  0.9685
16100TIP3    H269716   3.264   3.061  14.406  3.2210  1.8043  2.2631
16101TIP3   OH269717   0.129   0.723   3.804 -0.1460  0.1427 -0.9888
16101TIP3    H169718   0.106   0.630   3.799 -0.8525  0.2665 -0.1188
16101TIP3    H269719   0.064   0.761   3.863  2.3124  0.4508  1.6825
16102TIP3   OH269720   1.530   3.940   4.385 -0.2008  0.3528  0.0265
16102TIP3    H169721   1.584   3.917   4.460 -0.8344  1.0831  0.7135
16102TIP3    H269722   1.584   3.999   4.333 -0.2712  0.9554  0.6321
16103TIP3   OH269723   0.990   4.839  12.910  0.2161  0.4538 -0.1669
16103TIP3    H169724   0.993   4.814  13.002  1.5078  1.1337 -0.0053
16103TIP3    H269725   0.901   4.817  12.881  0.2039 -0.9321  0.8980
16104TIP3   OH269726   3.172   5.824   5.524 -0.0160  0.3502 -0.4250
16104TIP3    H169727   3.202   5.807   5.613  0.5190  1.5331 -0.3629
16104TIP3    H269728   3.252   5.844   5.475 -0.3805  0.4215 -0.9947
16105TIP3   OH269729   0.472   6.645  11.373 -0.4171 -0.5707 -0.1384
16105TIP3    H169730   0.491   6.714  11.308  1.6373  0.0646  1.1008
16105TIP3    H269731   0.537   6.577  11.356 -0.9050 -1.1266  0.2071
16106TIP3   OH269732   2.814   5.029  12.879 -0.4734  0.2947  0.4153
16106TIP3    H169733   2.909   5.042  12.886 -0.1994 -2.2424  2.0204
16106TIP3    H269734   2.799   5.012  12.786  0.5341  1.4285  0.0326
16107TIP3   OH269735   1.210   3.778   0.168  0.7592 -0.1246 -0.0569
16107TIP3    H169736   1.222   3.752   0.259 -2.4281 -1.9649 -0.0744
16107TIP3    H269737   1.298   3.792   0.135  2.0397 -0.8072  2.9214
16108TIP3   OH269738   0.145   2.341  17.093 -0.0811  0.3358 -0.5508
16108TIP3    H169739   0.182   2.395  17.163 -0.8201  1.9278 -1.3643
16108TIP3    H269740   0.210   2.344  17.023  0.1670 -0.3619 -0.3524
16109TIP3   OH269741   0.221   0.347  12.150 -0.7297  0.3525 -0.2911
16109TIP3    H169742   0.270   0.428  12.162 -1.1284  0.4186  1.0340
16109TIP3    H269743   0.282   0.288  12.105  0.5969  0.4226  1.3624
16110TIP3   OH269744   1.348   1.690  12.652  0.2619  0.5038 -0.1627
16110TIP3    H169745   1.308   1.604  12.643 -0.4011  0.6968  0.8126
16110TIP3    H269746   1.302   1.745  12.588  0.2749  0.2748 -0.3680
16111TIP3   OH269747   3.689   4.171   2.875  0.6566  0.1315 -0.2425
16111TIP3    H169748   3.651   4.125   2.950  0.5507 -0.8977 -0.9302
16111TIP3    H269749   3.699   4.261   2.906 -2.5379  0.4830 -0.1295
16112TIP3   OH269750   0.890   5.772   2.688 -0.5250 -0.4841  0.2871
16112TIP3    H169751   0.931   5.708   2.630 -0.1093  0.1121 -0.0849
16112TIP3    H269752   0.947   5.774   2.765  0.1757  0.3499 -0.2326
16113TIP3   OH269753   0.504   1.870  16.527  0.1902  0.4582  0.1936
16113TIP3    H169754   0.570   1.804  16.505  0.1225  0.3122  0.4262
16113TIP3    H269755   0.551   1.934  16.580 -0.3226 -0.7251  2.1558
16114TIP3   OH269756   2.319   1.507  16.971  0.3767  0.0377 -0.3470
16114TIP3    H169757   2.316   1.599  16.947  2.1960  0.5589  1.2837
16114TIP3    H269758   2.269   1.502  17.053 -0.0021 -0.4820 -0.6057
16115TIP3   OH269759   0.101   5.379  15.821 -0.8734  0.2313  0.0815
16115TIP3    H169760   0.007   5.393  15.815 -0.9699 -0.2047  0.5292
16115TIP3    H269761   0.140   5.462  15.793 -1.3596 -0.1101 -1.6534
16116TIP3   OH269762   5.896   5.866  16.527  0.0035 -0.0235  0.2314
16116TIP3    H169763   5.945   5.800  16.477 -0.4604  0.3109 -0.6614
16116TIP3    H269764   5.942   5.870  16.611 -0.5188 -2.1651  0.6668
16117TIP3   OH269765   5.344   4.210  16.810 -0.4623  0.0235 -0.5546
16117TIP3    H169766   5.349   4.130  16.758 -0.8182  0.1581 -0.7950
16117TIP3    H269767   5.258   4.247  16.790 -0.5800  0.1076  0.0867
16118TIP3   OH269768   2.602   2.590   1.224 -0.3497 -0.3892 -0.2114
16118TIP3    H169769   2.637   2.583   1.135 -0.5567 -1.0479 -0.2458
16118TIP3    H269770   2.588   2.684   1.237 -0.2416 -0.2809 -0.8418
16119TIP3   OH269771   5.909   0.057   2.150 -0.3716  0.6808  0.2910
16119TIP3    H169772   5.971   0.103   2.207  0.4990  0.5914 -0.5745
16119TIP3    H269773   5.918   0.100   2.065 -0.8400  0.0668 -0.0775
16120TIP3   OH269774   4.072   6.401  15.321  0.1374 -0.1856 -0.3622
16120TIP3    H169775   4.145   6.447  15.361 -0.3288 -0.1718  0.4803
16120TIP3    H269776   4.110   6.357  15.244  1.1410 -0.6434  0.3838
16121TIP3   OH269777   5.784   3.279   3.295 -0.2268 -0.2967  0.3608
16121TIP3    H169778   5.812   3.202   3.246  0.5408  0.0201  0.2937
16121TIP3    H269779   5.731   3.329   3.233  0.0882 -0.2873  0.0989
16122TIP3   OH269780   0.363   0.851  12.390  0.0028 -0.6879 -0.1815
16122TIP3    H169781   0.347   0.824  12.300  2.2969 -0.9322 -0.5476
16122TIP3    H269782   0.458   0.863  12.395 -0.0399 -1.1088  2.3106
16123TIP3   OH269783   0.271   1.551  14.404  0.0218  0.4715  0.1355
16123TIP3    H169784   0.345   1.500  14.438  0.6219  2.3550  1.7047
16123TIP3    H269785   0.195   1.514  14.448  0.2921  0.0615  0.2623
16124TIP3   OH269786   2.819   1.852  11.620 -0.1135 -0.1379 -0.1574
16124TIP3    H169787   2.898   1.893  11.654 -0.2976 -0.5466  0.7974
16124TIP3    H269788   2.771   1.824  11.698 -2.0112  1.5822 -0.6647
16125TIP3   OH269789   4.091   2.889  14.783 -0.1036  0.0466  0.5558
16125TIP3    H169790   4.073   2.826  14.714 -1.8910  0.6025  0.4793
16125TIP3    H269791   4.155   2.846  14.840 -1.2110 -1.7948  0.4476
16126TIP3   OH269792   0.382   6.703  13.794  0.4246 -0.4895  0.3069
16126TIP3    H169793   0.413   6.756  13.867  1.2563 -0.7599  0.1602
16126TIP3    H269794   0.418   6.616  13.810  1.1962 -0.3901 -0.7761
16127TIP3   OH269795   3.711   0.664  12.191 -0.1252 -0.2706  0.0890
16127TIP3    H169796   3.744   0.728  12.129  1.7303 -1.1263  0.1266
16127TIP3    H269797   3.671   0.596  12.137  0.3328 -0.3787 -0.1236
16128TIP3   OH269798   5.993   3.330  11.530  0.0467 -0.4118  0.0140
16128TIP3    H169799   6.038   3.272  11.469 -1.3803 -1.5031 -0.0181
16128TIP3    H269800   6.048   3.409  11.533  0.8122 -0.8610 -1.6512
16129TIP3   OH269801   1.298   1.558  14.012  0.5242  0.0353  0.2940
16129TIP3    H169802   1.234   1.540  13.943  2.0915 -1.9251 -0.6756
16129TIP3    H269803   1.309   1.653  14.010 -2.3595  0.4274  0.5069
16130TIP3   OH269804   2.081   2.834   1.784 -0.2798  0.1546 -0.3718
16130TIP3    H169805   2.044   2.915   1.820 -0.4337 -0.6007  1.1999
16130TIP3    H269806   2.152   2.812   1.845 -1.0421 -1.5570 -0.0938
16131TIP3   OH269807   4.881   5.596  12.900  0.4528  0.8076 -0.5655
16131TIP3    H169808   4.861   5.619  12.991 -0.2976  1.0062 -0.7735
16131TIP3    H269809   4.906   5.504  12.903 -0.3587  0.5885 -0.2618
16132TIP3   OH269810   5.801   2.333   0.054 -0.3797  0.1814 -0.6697
16132TIP3    H169811   5.843   2.281  -0.015 -0.0545 -1.2014  0.5393
16132TIP3    H269812   5.804   2.276   0.131 -0.0700  1.9949  0.6680
16133TIP3   OH269813   3.804   1.992   5.296  0.4432 -0.1096  0.1783
16133TIP3    H169814   3.779   2.082   5.315 -0.9746 -0.0552 -1.7246
16133TIP3    H269815   3.882   1.976   5.349  0.5297  2.1238  0.7561
16134TIP3   OH269816   4.908   4.510   4.333 -0.5628 -0.4727  0.3922
16134TIP3    H169817   4.882   4.521   4.242  1.6939  3.1454  0.0888
16134TIP3    H269818   4.971   4.439   4.331 -0.4823 -0.3816 -0.8943
16135TIP3   OH269819   2.533   6.407   4.218 -0.3052 -0.1112  0.0159
16135TIP3    H169820   2.519   6.413   4.124 -0.7038 -0.7367  0.0270
16135TIP3    H269821   2.459   6.355   4.250  0.6625 -1.2323  0.4641
16136TIP3   OH269822   0.570   5.781  13.312 -0.4638 -0.4054  0.3737
16136TIP3    H169823   0.488   5.826  13.332 -0.4897  1.3946 -3.3813
16136TIP3    H269824   0.637   5.848  13.324  0.1363 -1.0318  0.5392
16137TIP3   OH269825   4.123   1.152  15.342 -0.2757 -0.6100  0.9093
16137TIP3    H169826   4.158   1.112  15.262 -0.2515  0.4507  0.3919
16137TIP3    H269827   4.028   1.143  15.333 -0.3929  1.5234 -0.3118
16138TIP3   OH269828   2.701   4.139  15.712  0.3760  0.4889 -0.0591
16138TIP3    H169829   2.639   4.207  15.740 -0.8913 -0.5922 -0.1776
16138TIP3    H269830   2.782   4.187  15.696 -0.0045  1.7336  1.5106
16139TIP3   OH269831   2.064   1.224   5.158 -0.0205  0.0026  0.0048
16139TIP3    H169832   1.996   1.231   5.225  1.4120 -1.1812  1.6170
16139TIP3    H269833   2.050   1.301   5.102 -1.7237  0.5786  1.1727
16140TIP3   OH269834   4.797   4.274   4.656  0.2080 -0.0350 -0.2403
16140TIP3    H169835   4.730   4.206   4.648 -3.6609  3.3053  1.9059
16140TIP3    H269836   4.788   4.327   4.578  2.0626 -0.9375 -1.0956
16141TIP3   OH269837   2.038   2.331  17.035 -0.8286 -0.2851 -0.0040
16141TIP3    H169838   2.133   2.321  17.029 -0.9294 -1.8952  0.8191
16141TIP3    H269839   2.021   2.340  17.129 -1.5859 -1.1894 -0.0488
16142TIP3   OH269840   0.365   1.170  12.022 -0.2116  0.1184  0.0349
16142TIP3    H169841   0.376   1.078  12.046  0.0613 -0.5963 -2.7053
16142TIP3    H269842   0.447   1.211  12.051 -0.0255 -0.6232  0.5963
16143TIP3   OH269843   4.582   0.753   4.913 -0.6670  0.1829 -0.4553
16143TIP3    H169844   4.601   0.791   4.999  1.2186  0.4508 -0.9745
16143TIP3    H269845   4.486   0.750   4.909 -0.7754 -0.3992  1.9010
16144TIP3   OH269846   0.490   4.253  10.967  0.1950 -0.1664 -0.1221
16144TIP3    H169847   0.416   4.286  10.916  0.9093 -1.8296 -2.3245
16144TIP3    H269848   0.452   4.187  11.025 -0.5466  1.4027  1.2379
16145TIP3   OH269849   6.308   5.246   4.539 -0.4560  0.0691  0.1536
16145TIP3    H169850   6.309   5.235   4.444 -1.4946  0.3276  0.1064
16145TIP3    H269851   6.340   5.162   4.573 -2.7188 -1.0613 -0.3670
16146TIP3   OH269852   1.357   3.457  13.476  0.1593  0.4001 -0.1107
16146TIP3    H169853   1.332   3.365  13.463 -1.3008  0.6726  0.6676
16146TIP3    H269854   1.453   3.455  13.481  0.1012 -1.2128  0.8428
16147TIP3   OH269855   5.343   1.670   0.754  0.5054 -0.9608 -0.3864
16147TIP3    H169856   5.259   1.687   0.798  0.7722 -1.5184  0.3515
16147TIP3    H269857   5.329   1.699   0.664 -0.4416 -0.9397 -0.2400
16148TIP3   OH269858   0.129   6.514   4.128  0.1136 -0.1143 -0.4632
16148TIP3    H169859   0.101   6.447   4.066 -1.1719  1.3519 -1.5151
16148TIP3    H269860   0.059   6.516   4.194  0.3766 -0.1377 -0.1858
16149TIP3   OH269861   5.817   2.736   2.836  0.1179 -0.2144 -0.5145
16149TIP3    H169862   5.815   2.809   2.773  2.0419  0.1114 -0.2245
16149TIP3    H269863   5.758   2.763   2.906  0.3766  0.8222 -0.6880
16150TIP3   OH269864   2.631   3.182  13.665 -0.9738  0.3550 -0.6796
16150TIP3    H169865   2.674   3.111  13.713  1.5943  1.0368 -1.8779
16150TIP3    H269866   2.576   3.225  13.730  1.4835  0.4996  1.3653
16151TIP3   OH269867   4.077   3.796   3.861 -0.4886 -0.9245  0.7974
16151TIP3    H169868   4.079   3.791   3.956 -1.2828  1.6580  0.9759
16151TIP3    H269869   4.111   3.883   3.840  0.0502 -1.6024 -1.3133
16152TIP3   OH269870   1.503   5.356   3.031  0.2732 -0.6788  0.3540
16152TIP3    H169871   1.591   5.372   3.064  0.9214 -0.3316 -1.4871
16152TIP3    H269872   1.505   5.266   2.999  0.5920 -0.0150 -1.5679
16153TIP3   OH269873   0.295   0.330   2.506 -0.3825  0.1492 -0.1073
16153TIP3    H169874   0.268   0.332   2.598  0.5194 -0.7580  0.1829
16153TIP3    H269875   0.341   0.247   2.496  1.0436  1.0140 -0.9458
16154TIP3   OH269876   6.343   2.916  10.670 -0.2372 -0.0549  0.4955
16154TIP3    H169877   6.325   2.823  10.656  0.5916 -0.1530  0.0691
16154TIP3    H269878   6.387   2.944  10.590 -0.6510  0.7475  0.5486
16155TIP3   OH269879   0.959   5.320  12.159 -0.2172 -0.1042 -0.5744
16155TIP3    H169880   0.866   5.298  12.156 -0.3185  0.2595 -0.1682
16155TIP3    H269881   0.973   5.377  12.083 -0.8157  1.6825  0.6320
16156TIP3   OH269882   0.290   4.983   2.183  0.1498 -0.0288  0.3841
16156TIP3    H169883   0.235   5.009   2.109 -0.9040 -2.8434  0.1006
16156TIP3    H269884   0.241   5.010   2.260 -0.1150  0.3346  0.0918
16157TIP3   OH269885   5.706   5.443   2.120 -0.0065 -0.4502 -0.6578
16157TIP3    H169886   5.687   5.373   2.058 -0.3898 -0.2129 -0.8125
16157TIP3    H269887   5.678   5.523   2.075 -1.1211 -0.3628  0.1689
16158TIP3   OH269888   5.685   1.408   0.725  0.5901 -0.5218 -0.1855
16158TIP3    H169889   5.673   1.496   0.759  1.3253  0.3464 -2.1206
16158TIP3    H269890   5.657   1.413   0.633 -0.9445 -2.7101  0.1197
16159TIP3   OH269891   1.252   2.859   3.938  0.4623 -0.2426 -0.1132
16159TIP3    H169892   1.157   2.859   3.934  0.5001 -1.5698 -1.1621
16159TIP3    H269893   1.273   2.925   4.005 -1.1077  1.8616 -1.6247
16160TIP3   OH269894   0.618   5.674  15.164  0.0936  0.4284  0.1547
16160TIP3    H169895   0.702   5.700  15.201  0.4069  0.4051 -0.5208
16160TIP3    H269896   0.556   5.738  15.199  0.0742 -0.6293  2.0664
16161TIP3   OH269897   3.808   0.375   0.767  0.1842 -0.1310 -1.0085
16161TIP3    H169898   3.891   0.380   0.815 -0.1746 -0.7427 -0.3081
16161TIP3    H269899   3.770   0.291   0.793 -0.4164 -0.0955 -1.7242
16162TIP3   OH269900   1.631   4.372   4.018  0.0245 -0.6574 -0.0591
16162TIP3    H169901   1.557   4.401   3.965  0.4691  0.2075 -0.2300
16162TIP3    H269902   1.708   4.405   3.971  0.6084 -2.7943 -0.6648
16163TIP3   OH269903   4.905   6.787  12.763 -0.6160 -0.4707 -0.0857
16163TIP3    H169904   4.840   6.818  12.825  1.8032  2.0298  1.2773
16163TIP3    H269905   4.961   6.728  12.814  1.3830  1.5980  0.1983
16164TIP3   OH269906   5.142   1.514  12.099  0.1597 -0.6428  0.4390
16164TIP3    H169907   5.055   1.549  12.118 -0.6580 -3.4472  2.1375
16164TIP3    H269908   5.126   1.442  12.037  1.6198  0.7895 -1.6838
16165TIP3   OH269909   5.164   1.558   4.178 -0.3922 -0.7807  0.0447
16165TIP3    H169910   5.084   1.506   4.178 -1.0582  0.2140  1.9059
16165TIP3    H269911   5.141   1.638   4.225  1.5894 -0.3116  0.2565
16166TIP3   OH269912   0.651   5.698  10.296 -0.1522  0.1363  0.2044
16166TIP3    H169913   0.590   5.660  10.359 -1.5400  0.1984 -1.0988
16166TIP3    H269914   0.621   5.788  10.285  0.4730  0.3152 -0.0636
16167TIP3   OH269915   0.196   0.451   5.183 -0.2413  0.0814  0.2787
16167TIP3    H169916   0.209   0.357   5.192 -3.5351 -0.5076 -0.3513
16167TIP3    H269917   0.237   0.474   5.100 -2.0031 -1.3910 -1.0330
16168TIP3   OH269918   2.636   5.896  15.082  0.5201  0.4364  0.5720
16168TIP3    H169919   2.646   5.829  15.015  1.9493  0.2732  0.9376
16168TIP3    H269920   2.543   5.919  15.080  0.1901 -0.9491 -0.1298
16169TIP3   OH269921   3.595   0.497  13.699 -0.0069 -0.3720  0.0206
16169TIP3    H169922   3.672   0.532  13.743  0.3199 -0.6963 -0.2940
16169TIP3    H269923   3.597   0.536  13.612 -0.6736  0.2985  0.2965
16170TIP3   OH269924   4.170   6.443  13.804 -0.0137 -0.3329 -0.6316
16170TIP3    H169925   4.194   6.407  13.719  0.1462  0.3606 -0.8835
16170TIP3    H269926   4.075   6.444  13.805 -0.0158 -0.4957 -0.7389
16171TIP3   OH269927   2.352   4.215   0.432 -0.1714 -0.1520 -0.6268
16171TIP3    H169928   2.321   4.165   0.357 -0.3961 -0.2908 -0.4421
16171TIP3    H269929   2.371   4.150   0.499  0.8211 -0.0890 -0.8417
16172TIP3   OH269930   4.660   5.930   1.472  0.0533 -0.2471  0.2900
16172TIP3    H169931   4.675   6.024   1.462 -0.8612 -0.0822  0.4483
16172TIP3    H269932   4.565   5.921   1.478  0.2593 -0.7629  4.4055
16173TIP3   OH269933   0.774   4.271   4.606  0.1239 -0.3259  0.0359
16173TIP3    H169934   0.707   4.338   4.617 -0.5460 -0.8464 -0.7975
16173TIP3    H269935   0.755   4.231   4.521  2.0990  0.1978 -0.6778
16174TIP3   OH269936   2.273   6.556  10.977  0.5421 -0.3840  0.2986
16174TIP3    H169937   2.273   6.586  10.886  0.3258 -1.2793  0.0049
16174TIP3    H269938   2.205   6.609  11.019 -0.5880 -1.2139 -0.4702
16175TIP3   OH269939   1.634   0.796  11.357 -0.1484 -0.8331  0.7663
16175TIP3    H169940   1.658   0.734  11.287  0.9523  0.1000  0.3047
16175TIP3    H269941   1.718   0.830  11.388 -0.7525  0.4196  1.0201
16176TIP3   OH269942   2.397   6.608  13.879 -0.2368  0.4148  0.3241
16176TIP3    H169943   2.328   6.675  13.879 -1.9316 -1.2925  0.8116
16176TIP3    H269944   2.391   6.567  13.793  0.6295  0.7037  0.1207
16177TIP3   OH269945   3.919   5.005  10.700 -0.1784 -0.3287 -0.8629
16177TIP3    H169946   3.958   5.030  10.616 -0.7446 -0.4214 -1.1537
16177TIP3    H269947   3.876   4.922  10.683  1.2210 -1.2442 -0.0266
16178TIP3   OH269948   0.343   1.339  16.164 -0.1398  0.3338  0.3530
16178TIP3    H169949   0.269   1.287  16.134  0.8926 -0.8696 -0.1979
16178TIP3    H269950   0.382   1.286  16.234  0.2393  0.9264  0.5967
16179TIP3   OH269951   2.119   1.616  11.232 -0.4011 -0.3698 -0.1162
16179TIP3    H169952   2.069   1.694  11.256 -1.1870 -0.9573  0.1515
16179TIP3    H269953   2.147   1.578  11.315 -0.5175 -0.6983 -0.2239
16180TIP3   OH269954   4.184   0.298   3.063 -0.0185 -0.0704  0.1913
16180TIP3    H169955   4.243   0.283   2.989 -1.3174  1.9136 -1.2840
16180TIP3    H269956   4.144   0.213   3.080  0.1452 -0.4969 -1.5072
16181TIP3   OH269957   2.864   3.074   2.431 -0.0681 -0.0165 -0.2954
16181TIP3    H169958   2.879   2.987   2.467 -0.9141 -0.1628 -0.2878
16181TIP3    H269959   2.888   3.065   2.338  0.8436  0.0171 -0.0628
16182TIP3   OH269960   1.039   6.271   0.635  0.3592  0.0100 -0.3562
16182TIP3    H169961   1.097   6.334   0.678 -0.2341 -0.5146  1.2622
16182TIP3    H269962   1.029   6.201   0.700  1.6685 -2.1674 -2.4264
16183TIP3   OH269963   4.172   1.045  14.719  0.6493 -0.3333 -0.1383
16183TIP3    H169964   4.192   1.074  14.629  0.2252  0.4615  0.0160
16183TIP3    H269965   4.181   0.950  14.716  0.4104 -0.3341 -1.0885
16184TIP3   OH269966   6.037   0.286   6.626  0.6146  0.3797  0.1355
16184TIP3    H169967   6.054   0.338   6.705  1.0751  2.1970 -1.1344
16184TIP3    H269968   6.097   0.321   6.560 -0.0631 -0.8291 -1.1641
16185TIP3   OH269969   0.339   2.699  11.958  0.0736  0.0314 -0.0434
16185TIP3    H169970   0.319   2.792  11.956  0.3643  0.1096  0.3912
16185TIP3    H269971   0.324   2.668  11.869 -0.0583  0.4872 -0.1770
16186TIP3   OH269972   2.954   1.186  12.899  0.4357  0.4299 -0.2480
16186TIP3    H169973   2.863   1.158  12.882  0.8226 -0.5504 -0.7516
16186TIP3    H269974   2.973   1.248  12.828 -0.2022  1.5115  0.4974
16187TIP3   OH269975   5.000   5.665   5.924  0.5817 -0.1945  0.6365
16187TIP3    H169976   5.044   5.633   6.002 -0.1023 -0.5540  0.8783
16187TIP3    H269977   5.035   5.611   5.853  0.7764 -0.2561  0.7800
16188TIP3   OH269978   3.216   2.807  14.575 -0.3530 -0.1067 -0.0396
16188TIP3    H169979   3.301   2.804  14.532 -1.3813  1.5354 -2.2905
16188TIP3    H269980   3.233   2.776  14.664  2.1287 -2.0322 -1.1293
16189TIP3   OH269981   6.192   2.952  13.990 -0.2956 -0.5593  0.2995
16189TIP3    H169982   6.234   2.876  14.030  0.3242  0.6463  1.9600
16189TIP3    H269983   6.104   2.921  13.968 -0.7995 -1.1311  2.9637
16190TIP3   OH269984   4.195   2.813   1.300 -0.3165 -0.6024 -0.4637
16190TIP3    H169985   4.115   2.760   1.299 -0.2053 -0.9626  3.4297
16190TIP3    H269986   4.165   2.901   1.322  0.2597 -0.5682  0.2037
16191TIP3   OH269987   6.560   4.860  15.427 -0.0091 -0.3514  0.0364
16191TIP3    H169988   6.565   4.808  15.347  1.1166 -0.6892  0.3233
16191TIP3    H269989   6.571   4.796  15.498 -1.6687 -0.1613  0.5036
16192TIP3   OH269990   1.671   2.849  13.399 -0.4737  0.3675 -0.5549
16192TIP3    H169991   1.632   2.928  13.436 -0.9785 -0.5459  0.9052
16192TIP3    H269992   1.596   2.798  13.368 -0.3192 -0.4502  0.3680
16193TIP3   OH269993   2.752   1.082  15.018  0.6746  0.1391 -0.0983
16193TIP3    H169994   2.812   1.053  15.086  0.7517 -1.2211 -0.7265
16193TIP3    H269995   2.810   1.109  14.946  0.6774  3.4894  1.0455
16194TIP3   OH269996   4.485   1.540   5.268  0.4188 -0.4831  0.2151
16194TIP3    H169997   4.474   1.543   5.363 -1.0318  1.5248  0.0082
16194TIP3    H269998   4.471   1.448   5.245  1.7425 -1.1648  2.0392
16195TIP3   OH269999   4.871   0.427  14.465  0.5944  0.2388  0.7979
16195TIP3    H170000   4.924   0.362  14.511  1.9252  0.1485 -0.8322
16195TIP3    H270001   4.818   0.468  14.534  1.7830 -0.6205  2.2450
16196TIP3   OH270002   4.125   1.937   5.247  0.0809  0.5514  0.0637
16196TIP3    H170003   4.081   1.852   5.246 -1.1498  1.1388 -2.9835
16196TIP3    H270004   4.215   1.917   5.274 -0.5798 -1.4794  0.8821
16197TIP3   OH270005   1.373   1.494   2.566  0.4133  0.0482 -0.0189
16197TIP3    H170006   1.344   1.491   2.657 -2.7740  0.3565 -0.9743
16197TIP3    H270007   1.327   1.569   2.528 -0.7145 -1.8952 -2.6453
16198TIP3   OH270008   1.850   5.208  11.154 -0.3601  0.8141 -0.1947
16198TIP3    H170009   1.928   5.255  11.186 -0.5839  1.4894 -0.6305
16198TIP3    H270010   1.794   5.200  11.230 -0.6562  1.9408 -0.2897
16199TIP3   OH270011   3.440   5.394  13.877  0.1593  0.0942  0.3355
16199TIP3    H170012   3.444   5.313  13.827  0.6027 -1.3124  2.6110
16199TIP3    H270013   3.347   5.419  13.876  0.0824 -0.2016 -0.6843
16200TIP3   OH270014   5.295   3.213  16.303  0.3521  0.3934  0.9347
16200TIP3    H170015   5.240   3.142  16.269  0.9306  0.1298  0.5452
16200TIP3    H270016   5.251   3.293  16.276  1.3157  0.1969 -1.2917
16201TIP3   OH270017   6.322   0.046  11.745 -0.1392  0.3312 -0.1522
16201TIP3    H170018   6.245   0.062  11.690 -1.9262 -1.3590  1.7999
16201TIP3    H270019   6.379  -0.009  11.690 -0.9924  0.3215 -1.0468
16202TIP3   OH270020   1.285   6.572   4.359  0.6394  0.1485 -0.6886
16202TIP3    H170021   1.217   6.591   4.294  2.7103 -1.4307 -3.4312
16202TIP3    H270022   1.247   6.504   4.414 -1.1805  1.5503 -0.1578
16203TIP3   OH270023   2.415   3.254  16.902  0.4060 -0.2453 -0.0585
16203TIP3    H170024   2.331   3.297  16.915  0.7942  0.7066 -0.6951
16203TIP3    H270025   2.393   3.172  16.857  0.2465  2.2548 -4.8067
16204TIP3   OH270026   3.687   6.200  13.332  0.1691  0.3733  0.3785
16204TIP3    H170027   3.639   6.260  13.389  0.2738  2.1812 -1.3620
16204TIP3    H270028   3.643   6.208  13.247 -0.0797 -2.3556  0.1896
16205TIP3   OH270029   6.457   5.940  15.998 -0.5715 -1.3932  0.3115
16205TIP3    H170030   6.519   5.868  15.990  1.5182  0.4147 -0.4560
16205TIP3    H270031   6.443   5.950  16.092  0.9043 -1.3569  0.5435
16206TIP3   OH270032   1.945   3.932  11.686 -0.0999 -0.6907  0.0151
16206TIP3    H170033   2.040   3.942  11.686 -0.1545 -0.1541 -0.8828
16206TIP3    H270034   1.928   3.862  11.749  0.6267  1.6697  2.9266
16207TIP3   OH270035   2.501   5.132   5.724 -0.0398  0.3129 -0.0111
16207TIP3    H170036   2.575   5.074   5.742  0.3510  0.0155 -2.3869
16207TIP3    H270037   2.465   5.153   5.810  2.1125 -0.4543  1.1116
16208TIP3   OH270038   3.828   5.971  11.438 -0.1363  0.0540  0.6604
16208TIP3    H170039   3.885   6.047  11.446 -0.1299  0.2123 -0.7865
16208TIP3    H270040   3.782   5.984  11.355 -0.0256 -1.5975  0.3191
16209TIP3   OH270041   1.145   5.192   3.803  0.4571  0.2421  0.0312
16209TIP3    H170042   1.067   5.241   3.779 -0.6077 -1.4517 -0.0714
16209TIP3    H270043   1.161   5.134   3.729  3.9248  3.0115 -1.5124
16210TIP3   OH270044   5.856   4.687  12.240 -0.5147 -0.0865  0.0078
16210TIP3    H170045   5.832   4.777  12.219 -0.2036  0.2517  1.0657
16210TIP3    H270046   5.892   4.691  12.328  0.1140 -1.1494 -0.1816
16211TIP3   OH270047   0.372   0.493   3.838  0.1700  0.0584 -0.3481
16211TIP3    H170048   0.295   0.436   3.830  0.5580 -0.2934 -1.8961
16211TIP3    H270049   0.337   0.577   3.866 -0.6463 -0.4272  0.0938
16212TIP3   OH270050   0.690   1.342  11.007  0.2598  0.3403 -0.2698
16212TIP3    H170051   0.736   1.262  11.029  1.0000  0.6147 -0.8090
16212TIP3    H270052   0.599   1.325  11.032  0.7528  0.0070  1.3386
16213TIP3   OH270053   6.776   1.000  11.055 -0.6324 -0.4245  0.3471
16213TIP3    H170054   6.791   1.095  11.060 -2.6356 -0.0928  0.3043
16213TIP3    H270055   6.698   0.985  11.107  0.5569 -2.3031  1.6655
16214TIP3   OH270056   4.338   2.494  15.798 -0.1685 -0.7999 -0.1308
16214TIP3    H170057   4.422   2.526  15.766 -0.1842 -1.2922 -0.6635
16214TIP3    H270058   4.339   2.400  15.779  1.0585 -1.7189  3.8593
16215TIP3   OH270059   5.148   5.490   5.007 -0.0229  0.3303  0.9453
16215TIP3    H170060   5.085   5.443   5.062  0.9500 -1.0740  0.9086
16215TIP3    H270061   5.095   5.537   4.943 -1.0387 -1.3636  0.4998
16216TIP3   OH270062   5.901   1.340  14.019 -0.0099  0.1762 -0.4507
16216TIP3    H170063   5.806   1.353  14.025 -0.2225 -1.2930 -0.2348
16216TIP3    H270064   5.936   1.383  14.097 -0.6673 -0.6100  0.2969
16217TIP3   OH270065   0.033   5.623   2.982 -0.0067 -0.5539  0.5224
16217TIP3    H170066   0.010   5.661   3.067  0.0141 -0.3402  0.4329
16217TIP3    H270067   0.119   5.583   2.996  0.6068  0.6476  0.2518
16218TIP3   OH270068   3.610   5.819  13.175  0.3174  0.1820  0.2396
16218TIP3    H170069   3.686   5.877  13.168  0.2110  0.2237 -0.6763
16218TIP3    H270070   3.619   5.760  13.100 -0.5510  0.1707  0.1466
16219TIP3   OH270071   4.907   1.305   6.591 -0.3405 -0.0220  0.1045
16219TIP3    H170072   4.939   1.330   6.678 -0.2890 -1.5793  0.5442
16219TIP3    H270073   4.937   1.215   6.579 -0.5021  0.1257 -1.4583
16220TIP3   OH270074   3.659   4.849   3.070  0.0969  0.4105 -0.5007
16220TIP3    H170075   3.667   4.935   3.112 -0.8506  1.5200 -2.5336
16220TIP3    H270076   3.607   4.797   3.132  0.7808  1.2525  0.8059
16221TIP3   OH270077   3.575   4.246  11.689  0.2274  0.2732 -0.1831
16221TIP3    H170078   3.556   4.333  11.723  1.1645  0.3159  0.2677
16221TIP3    H270079   3.615   4.261  11.604 -0.8388  0.2243 -0.6983
16222TIP3   OH270080   2.774   3.804   4.372  0.1289 -0.2691 -0.0636
16222TIP3    H170081   2.792   3.828   4.463  0.3504  2.8732 -0.8839
16222TIP3    H270082   2.858   3.769   4.340 -0.0593 -1.7701  1.0255
16223TIP3   OH270083   3.832   5.930  13.121  0.9436  0.5703  0.4084
16223TIP3    H170084   3.899   5.893  13.063  0.5484  0.6220 -0.0806
16223TIP3    H270085   3.869   6.013  13.150  1.2418  0.4372  0.4147
16224TIP3   OH270086   5.038   3.407  15.707  0.3299  0.6723 -0.0208
16224TIP3    H170087   5.060   3.432  15.797 -0.0352  2.8027 -0.4940
16224TIP3    H270088   4.943   3.416  15.703  0.0842 -1.6737  0.0192
16225TIP3   OH270089   2.959   4.911   4.207 -0.0078  0.1164  0.0063
16225TIP3    H170090   2.868   4.885   4.189 -0.5231  2.9286 -1.6347
16225TIP3    H270091   3.007   4.887   4.128  0.3468  0.2248  0.1860
16226TIP3   OH270092   0.385   6.618  14.148  0.8284 -0.8606  0.5156
16226TIP3    H170093   0.387   6.652  14.237  0.4218 -1.2062  0.6621
16226TIP3    H270094   0.428   6.685  14.095  0.2412 -0.2259  0.8335
16227TIP3   OH270095   5.452   1.470  11.457  0.0044 -0.3327  0.4012
16227TIP3    H170096   5.460   1.511  11.543  2.5416 -1.1661  0.6158
16227TIP3    H270097   5.486   1.381  11.470 -3.0261 -1.7095 -0.6310
16228TIP3   OH270098   5.408   0.519  15.925  0.4286 -0.4546 -0.1822
16228TIP3    H170099   5.474   0.472  15.873  1.0761  0.7859 -0.5003
16228TIP3    H270100   5.375   0.586  15.865 -2.2649 -2.0480 -0.5463
16229TIP3   OH270101   4.844   1.684   6.042  0.0100  0.1824 -0.7421
16229TIP3    H170102   4.898   1.756   6.010 -2.1536  1.2982 -1.9542
16229TIP3    H270103   4.776   1.673   5.975  0.4208 -3.1439 -0.7197
16230TIP3   OH270104   2.825   6.623  12.374 -0.1423 -0.5438  0.2470
16230TIP3    H170105   2.910   6.581  12.367 -0.5426 -1.4121  0.5986
16230TIP3    H270106   2.844   6.710  12.411  0.4010 -1.4139  2.0837
16231TIP3   OH270107   4.430   6.303   4.833 -0.1209  0.0719  0.9083
16231TIP3    H170108   4.418   6.363   4.760 -1.6508 -0.2333  0.8975
16231TIP3    H270109   4.469   6.357   4.902 -0.9945  0.9485  0.7229
16232TIP3   OH270110   3.445   4.269   4.130 -0.5259  0.1004  0.0928
16232TIP3    H170111   3.439   4.331   4.058 -1.9451 -0.2153 -0.0882
16232TIP3    H270112   3.505   4.201   4.100 -0.7358  0.2298 -0.6103
16233TIP3   OH270113   5.801   5.912   4.822 -0.6097 -0.4878  0.0611
16233TIP3    H170114   5.750   5.841   4.861 -2.6397  0.1268 -1.3741
16233TIP3    H270115   5.781   5.907   4.728  1.4592  0.2144 -0.4394
16234TIP3   OH270116   4.431   5.436  13.226  0.0238 -0.0959 -0.8382
16234TIP3    H170117   4.386   5.374  13.283  1.2042 -1.1329 -1.0053
16234TIP3    H270118   4.366   5.459  13.160 -0.5198 -0.9669 -0.6148
16235TIP3   OH270119   0.845   5.003   4.412 -0.0156 -0.2351 -0.1298
16235TIP3    H170120   0.831   5.098   4.420  0.1464 -0.2847  0.7947
16235TIP3    H270121   0.833   4.970   4.501 -0.2637 -1.1110 -0.4877
16236TIP3   OH270122   0.317   5.663  13.512  0.0314 -0.0328 -0.1961
16236TIP3    H170123   0.321   5.712  13.594  0.8013  0.7005 -0.6665
16236TIP3    H270124   0.392   5.604  13.515  0.6202  0.6730 -0.7930
16237TIP3   OH270125   4.277   0.846   3.070  0.5118 -0.2043 -0.7165
16237TIP3    H170126   4.370   0.864   3.076  0.6215 -1.0785  0.4978
16237TIP3    H270127   4.239   0.925   3.032  1.4476  1.1059  0.9672
16238TIP3   OH270128   3.653   4.796  14.459  0.5488 -0.2838  0.0725
16238TIP3    H170129   3.691   4.762  14.378  0.2460  0.1453 -0.2489
16238TIP3    H270130   3.710   4.869  14.483  1.1771 -0.9883  0.7468
16239TIP3   OH270131   2.150   4.685  14.058 -0.7600 -0.3972  0.4109
16239TIP3    H170132   2.103   4.623  14.002 -1.8972  0.4038  0.4478
16239TIP3    H270133   2.104   4.681  14.142 -0.2202 -0.2386  0.7178
16240TIP3   OH270134   3.926   1.262  14.013 -0.1622 -0.2352 -0.0838
16240TIP3    H170135   3.926   1.277  13.919  1.8440  0.7088  0.0191
16240TIP3    H270136   3.902   1.170  14.024 -1.8646  0.0346 -1.4179
16241TIP3   OH270137   4.723   2.605   3.454 -0.0763 -0.2625 -0.2264
16241TIP3    H170138   4.707   2.524   3.406 -0.3250  0.1022 -0.7584
16241TIP3    H270139   4.638   2.628   3.491  0.3494 -1.1344  1.3146
16242TIP3   OH270140   5.161   4.281   5.940 -0.2948 -0.6866 -0.0436
16242TIP3    H170141   5.111   4.278   6.022 -0.1990 -1.0144  0.0009
16242TIP3    H270142   5.252   4.292   5.968 -0.3424 -0.0682 -0.1265
16243TIP3   OH270143   2.783   6.184  16.476 -0.0918  0.5051  0.3486
16243TIP3    H170144   2.775   6.209  16.568 -1.7459  2.1511 -0.2194
16243TIP3    H270145   2.703   6.136  16.456 -0.2574  1.1262 -0.5271
16244TIP3   OH270146   2.843   6.215  14.687 -0.2589 -0.0742 -0.9036
16244TIP3    H170147   2.815   6.139  14.636 -0.4945  0.1051 -1.0453
16244TIP3    H270148   2.829   6.290  14.628 -0.7064  0.1536 -0.5154
16245TIP3   OH270149   4.261   6.309   1.098 -0.1693  0.5962  0.1957
16245TIP3    H170150   4.239   6.355   1.017 -0.2110  1.8460  0.9107
16245TIP3    H270151   4.329   6.362   1.139  1.3534 -1.1313 -0.0193
16246TIP3   OH270152   0.723   1.472  15.758 -0.2835 -0.0455 -0.2969
16246TIP3    H170153   0.775   1.545  15.789 -0.3322 -0.1279 -0.0204
16246TIP3    H270154   0.636   1.486  15.796 -0.4371  0.0380 -0.6731
16247TIP3   OH270155   1.862   0.396   2.232 -0.6577 -0.0704  0.2855
16247TIP3    H170156   1.841   0.480   2.272  2.6997  2.3732 -2.7143
16247TIP3    H270157   1.804   0.391   2.156 -0.6480 -0.3344  0.2961
16248TIP3   OH270158   4.875   0.649  12.650 -0.1112  0.2451 -0.8646
16248TIP3    H170159   4.865   0.559  12.680  0.4759  1.1009  2.0714
16248TIP3    H270160   4.951   0.647  12.592  1.9593 -0.6219  1.7862
16249TIP3   OH270161   2.969   1.362   5.064  0.3629  0.8191 -0.7161
16249TIP3    H170162   2.899   1.299   5.079  0.7507  0.6657  0.4650
16249TIP3    H270163   2.997   1.346   4.974  0.0996 -0.3220 -0.5965
16250TIP3   OH270164   6.074   0.438   1.418 -0.6140 -0.3635 -0.1652
16250TIP3    H170165   6.011   0.459   1.349 -0.1381  0.8844 -0.2399
16250TIP3    H270166   6.033   0.368   1.468 -1.3281 -0.7015 -1.2146
16251TIP3   OH270167   5.404   5.301  15.735  0.3971  0.0147 -0.5288
16251TIP3    H170168   5.346   5.254  15.795  1.1041 -0.9883 -0.6243
16251TIP3    H270169   5.389   5.259  15.650  1.1079 -0.0907 -0.5987
16252TIP3   OH270170   1.709   6.345   4.812  0.7019 -0.2525 -0.6922
16252TIP3    H170171   1.739   6.433   4.832 -0.1215 -0.4297  1.4716
16252TIP3    H270172   1.635   6.357   4.754 -0.5940  0.5985  1.0947
16253TIP3   OH270173   2.329   3.852   0.857  0.5816 -0.1781 -0.9287
16253TIP3    H170174   2.265   3.806   0.911 -0.7956  0.8647 -1.6459
16253TIP3    H270175   2.410   3.801   0.867 -0.4102 -1.6452 -0.1980
16254TIP3   OH270176   6.557   6.414   6.255  0.0045 -0.0310 -0.3623
16254TIP3    H170177   6.622   6.360   6.299 -0.0536 -0.3163 -0.6249
16254TIP3    H270178   6.595   6.502   6.254  0.0311 -0.0345  0.2026
16255TIP3   OH270179   4.261   1.917  13.629  0.0774 -0.0430 -0.6467
16255TIP3    H170180   4.261   2.013  13.625 -1.7844 -0.0258 -0.8655
16255TIP3    H270181   4.280   1.896  13.720  1.5170  0.5037 -0.8111
16256TIP3   OH270182   6.577   2.909   2.280  0.1214 -0.1692  0.6713
16256TIP3    H170183   6.495   2.931   2.235  1.2663  0.2246 -1.2584
16256TIP3    H270184   6.550   2.889   2.370 -1.8772  1.6936  0.5241
16257TIP3   OH270185   1.920   0.431  11.734  0.1122 -0.1292 -0.1100
16257TIP3    H170186   1.989   0.494  11.756  0.5570 -0.7976  0.4187
16257TIP3    H270187   1.966   0.359  11.690 -0.2277 -0.6233  0.3291
16258TIP3   OH270188   6.086   1.200   3.152  0.0136 -0.1455  0.5251
16258TIP3    H170189   6.069   1.131   3.087 -0.0246  0.6447 -0.3103
16258TIP3    H270190   6.103   1.152   3.233  3.5633 -1.3262 -0.8099
16259TIP3   OH270191   5.791   1.457   1.174  0.2776  0.2230  0.0089
16259TIP3    H170192   5.810   1.539   1.128  0.5303 -0.2125 -0.6692
16259TIP3    H270193   5.877   1.418   1.189  0.1277 -0.1571 -0.1158
16260TIP3   OH270194   3.276   6.320   5.480 -0.3688 -0.4983 -0.7188
16260TIP3    H170195   3.274   6.329   5.576 -1.7060  0.4010 -0.8179
16260TIP3    H270196   3.184   6.331   5.454  0.1678  0.4770 -2.2150
16261TIP3   OH270197   4.772   0.507   2.258 -0.0235  0.3291  0.2531
16261TIP3    H170198   4.795   0.564   2.184 -0.1946  2.2677  1.6507
16261TIP3    H270199   4.854   0.494   2.305  0.3454 -1.9529 -0.9284
16262TIP3   OH270200   4.121   1.236  14.939  0.2078  0.1790  0.0057
16262TIP3    H170201   4.148   1.160  14.990 -0.3877  0.3845  0.6283
16262TIP3    H270202   4.093   1.199  14.855  0.7374 -0.2018 -0.0052
16263TIP3   OH270203   2.784   0.922  15.712  0.2505 -0.0495  0.2551
16263TIP3    H170204   2.718   0.854  15.703  1.1930 -0.9725  0.1519
16263TIP3    H270205   2.765   0.984  15.641 -1.5375  0.6153  1.2757
16264TIP3   OH270206   0.333   0.556   2.166  0.3224 -0.4562 -0.0659
16264TIP3    H170207   0.390   0.549   2.089  0.8779 -0.5583  0.3479
16264TIP3    H270208   0.392   0.583   2.236 -0.2998  0.2816  0.1836
16265TIP3   OH270209   1.755   0.724   1.158 -0.3168  0.0408 -0.1886
16265TIP3    H170210   1.694   0.777   1.209  0.9299  0.4309  0.9206
16265TIP3    H270211   1.713   0.638   1.151 -0.1591 -0.2341  2.1369
16266TIP3   OH270212   4.914   1.010   3.554 -0.0718  0.7926  0.2322
16266TIP3    H170213   4.862   0.951   3.607  0.8671  0.6832  1.0395
16266TIP3    H270214   4.868   1.094   3.560  0.1802  0.8541  1.4562
16267TIP3   OH270215   1.644   3.667   1.103  0.4660  0.8546  0.1280
16267TIP3    H170216   1.707   3.607   1.144 -0.7072 -0.2028  0.4019
16267TIP3    H270217   1.559   3.640   1.137 -0.3884  0.8891 -1.8822
16268TIP3   OH270218   5.616   5.326  13.696 -0.7052 -0.4817  0.4015
16268TIP3    H170219   5.561   5.338  13.618  1.7461 -0.2465 -1.3617
16268TIP3    H270220   5.575   5.379  13.763 -1.9338  0.6756 -1.2249
16269TIP3   OH270221   1.251   4.593   0.338 -0.2195  0.4634  0.3335
16269TIP3    H170222   1.209   4.678   0.328  2.9706  1.9855 -1.1017
16269TIP3    H270223   1.275   4.567   0.249 -0.0740 -1.3584  0.8738
16270TIP3   OH270224   3.413   0.544  16.530  0.2921 -0.1076 -0.4737
16270TIP3    H170225   3.320   0.555  16.512  0.7104  1.6441 -1.7153
16270TIP3    H270226   3.457   0.578  16.451  2.0296  1.3823  1.0723
16271TIP3   OH270227   6.383   5.579   4.278 -0.5260  0.6403 -0.0872
16271TIP3    H170228   6.456   5.527   4.245 -1.7832  0.0006 -1.8721
16271TIP3    H270229   6.317   5.515   4.304 -0.6652  1.2361  1.0740
16272TIP3   OH270230   3.709   5.321   5.686 -0.3913  0.0701 -0.4350
16272TIP3    H170231   3.740   5.403   5.648 -0.7667  0.7526  0.7130
16272TIP3    H270232   3.715   5.335   5.781  0.4477 -1.5663 -0.2291
16273TIP3   OH270233   4.081   5.391  11.459  0.1481  0.0079 -0.4141
16273TIP3    H170234   4.029   5.417  11.536 -0.1125  3.0348 -1.5394
16273TIP3    H270235   4.076   5.295  11.459 -0.6245 -0.0376  2.7900
16274TIP3   OH270236   1.102   4.869  12.339  0.0638 -0.6404 -0.0371
16274TIP3    H170237   1.111   4.807  12.411 -0.5385  0.2063  0.7768
16274TIP3    H270238   1.020   4.915  12.356  0.4780  0.3618 -0.6407
16275TIP3   OH270239   4.837   3.352   0.202 -0.1764  0.3497 -0.0902
16275TIP3    H170240   4.758   3.308   0.169 -1.6038  2.5097  0.3317
16275TIP3    H270241   4.804   3.419   0.262  1.7712  3.3372 -2.2146
16276TIP3   OH270242   0.882   4.914   5.684  0.6055  0.2137 -0.0088
16276TIP3    H170243   0.871   4.857   5.608  1.7207 -0.0556  0.0312
16276TIP3    H270244   0.867   4.858   5.759  1.9013 -0.0699  0.0357
16277TIP3   OH270245   4.735   5.086  16.486 -0.2453  0.7192 -0.1254
16277TIP3    H170246   4.764   5.072  16.396  1.3703 -1.6526  0.7065
16277TIP3    H270247   4.724   4.998  16.521 -0.2169  1.6113  2.2003
16278TIP3   OH270248   3.728   2.551  17.046  0.1820 -0.0786  0.2733
16278TIP3    H170249   3.790   2.555  17.119  2.2868  1.9181 -1.5673
16278TIP3    H270250   3.677   2.632  17.053 -1.4694 -1.1432  1.0561
16279TIP3   OH270251   4.686   5.046   5.952  0.3513 -0.3749 -0.5163
16279TIP3    H170252   4.778   5.021   5.960  0.5460  0.0648 -1.3122
16279TIP3    H270253   4.657   5.007   5.870  0.4776  1.4084 -1.4357
16280TIP3   OH270254   6.729   0.813  16.127 -0.4482  0.1755 -0.0870
16280TIP3    H170255   6.663   0.848  16.188 -0.4359 -0.0341  0.0494
16280TIP3    H270256   6.812   0.822  16.174 -0.2962  1.0967 -0.5406
16281TIP3   OH270257   3.602   3.080  14.969  0.2229  0.0381 -0.2268
16281TIP3    H170258   3.692   3.068  14.940 -0.1630  3.0110 -2.9881
16281TIP3    H270259   3.555   3.003  14.938  1.5627 -0.9515  0.1871
16282TIP3   OH270260   0.055   3.777  16.166 -0.6068  0.5200 -0.1338
16282TIP3    H170261   0.124   3.833  16.134  1.0406 -0.4628  1.6011
16282TIP3    H270262   0.029   3.725  16.090 -0.8979  2.3366 -1.2909
16283TIP3   OH270263   2.619   6.020   0.320  1.1869 -0.2890 -0.1000
16283TIP3    H170264   2.602   6.089   0.257  0.5541 -1.5243 -1.3104
16283TIP3    H270265   2.535   5.974   0.328  1.8822 -1.5857 -0.1418
16284TIP3   OH270266   6.196   5.812  10.620 -0.1209 -0.4162  0.8610
16284TIP3    H170267   6.253   5.887  10.636 -1.6473  0.7655  0.8243
16284TIP3    H270268   6.109   5.850  10.605 -1.1406 -2.2458  1.9571
16285TIP3   OH270269   2.829   3.485  16.915 -0.2127  0.2452  0.2456
16285TIP3    H170270   2.764   3.551  16.889 -1.1897 -0.7564  0.0960
16285TIP3    H270271   2.787   3.401  16.895  1.3533 -0.4067 -0.3233
16286TIP3   OH270272   4.350   3.708  16.033  0.8370  0.2452  0.2338
16286TIP3    H170273   4.395   3.668  16.107  2.3722  1.0381 -0.2370
16286TIP3    H270274   4.316   3.634  15.982  1.0422 -0.3473  0.9577
16287TIP3   OH270275   3.058   6.462   0.569 -0.0436  1.0226 -0.4025
16287TIP3    H170276   3.053   6.465   0.473  0.9372 -0.4550 -0.5197
16287TIP3    H270277   2.978   6.416   0.595  0.3138  0.2541 -0.6185
16288TIP3   OH270278   6.565   5.490   4.767  0.2349  0.7519  0.1288
16288TIP3    H170279   6.506   5.442   4.824 -0.7925  0.7337 -0.9469
16288TIP3    H270280   6.556   5.582   4.794 -0.8621  0.8441 -0.5578
16289TIP3   OH270281   1.284   4.374  16.107 -0.0098 -0.6247 -0.3113
16289TIP3    H170282   1.217   4.308  16.126  0.1875 -1.5517 -2.7089
16289TIP3    H270283   1.333   4.339  16.033 -0.1099  2.3569 -1.8676
16290TIP3   OH270284   0.332   1.662  16.259  0.4467 -0.2982 -0.0898
16290TIP3    H170285   0.413   1.694  16.220  0.6205  1.1890  1.4144
16290TIP3    H270286   0.269   1.734  16.246 -0.5384 -1.2976 -0.9461
16291TIP3   OH270287   3.145   3.096   0.903 -0.2930 -0.3554 -0.0225
16291TIP3    H170288   3.065   3.069   0.858  0.1473  0.1593 -1.1269
16291TIP3    H270289   3.215   3.080   0.840  0.4074 -0.1952  0.7021
16292TIP3   OH270290   4.768   0.536  11.382  0.1042 -0.5032  0.0360
16292TIP3    H170291   4.826   0.578  11.318  0.0295 -0.6229 -0.1103
16292TIP3    H270292   4.809   0.451  11.400  0.6863 -0.0312  0.9458
16293TIP3   OH270293   4.159   5.408  17.107  0.0083  0.1822 -0.6543
16293TIP3    H170294   4.075   5.366  17.089 -0.3295  0.9387 -0.8417
16293TIP3    H270295   4.166   5.407  17.202  1.3455 -2.9415 -0.7176
16294TIP3   OH270296   1.478   3.289  14.341 -0.3245  0.4927  0.2845
16294TIP3    H170297   1.391   3.261  14.313 -0.6991  0.2093  1.6650
16294TIP3    H270298   1.462   3.363  14.399  0.2156 -0.6297  1.9169
16295TIP3   OH270299   5.132   0.314   2.602  0.6821  0.2151  0.0985
16295TIP3    H170300   5.225   0.335   2.597  0.6482  0.3442  0.0292
16295TIP3    H270301   5.116   0.299   2.695  0.8032  0.0498  0.0946
16296TIP3   OH270302   0.706   6.572  14.612  0.7344 -0.0855  0.3316
16296TIP3    H170303   0.724   6.503  14.547  0.2679 -0.5251  0.6590
16296TIP3    H270304   0.742   6.538  14.693  1.0391  0.3268  0.3633
16297TIP3   OH270305   4.568   5.709   2.205 -0.2934  0.3024  0.2791
16297TIP3    H170306   4.522   5.683   2.285 -1.2915  0.4937 -0.2251
16297TIP3    H270307   4.622   5.783   2.231  1.7438 -1.5561  1.4870
16298TIP3   OH270308   4.684   3.691  13.763  0.5168 -0.3288 -0.9259
16298TIP3    H170309   4.681   3.648  13.848 -2.4627  0.4348 -0.5888
16298TIP3    H270310   4.702   3.783  13.784  2.2972 -0.5583 -1.3346
16299TIP3   OH270311   3.244   2.898  12.484 -0.1672  0.8597 -0.1492
16299TIP3    H170312   3.199   2.972  12.443 -2.7703 -0.7614 -0.2769
16299TIP3    H270313   3.213   2.898  12.575  0.4421  0.4038  0.0636
16300TIP3   OH270314   1.374   2.706  15.436 -0.3480 -0.0689 -0.4946
16300TIP3    H170315   1.290   2.736  15.472  0.3845  0.9985  0.3975
16300TIP3    H270316   1.366   2.611  15.431 -1.4427 -0.0121  0.0352
16301TIP3   OH270317   1.911   2.537  11.640  0.6631 -0.4069 -0.4310
16301TIP3    H170318   1.859   2.560  11.563 -1.7443 -0.7544  1.0388
16301TIP3    H270319   1.911   2.616  11.693  1.2857 -0.5405 -0.2342
16302TIP3   OH270320   4.937   6.274  15.684 -0.0254 -1.0751 -0.0646
16302TIP3    H170321   4.882   6.205  15.647 -3.1390  1.0913  0.2903
16302TIP3    H270322   4.909   6.280  15.775 -0.1875  0.9855 -0.2318
16303TIP3   OH270323   5.810   4.519  15.481  0.4308 -0.1841 -0.5339
16303TIP3    H170324   5.828   4.612  15.488 -0.2749  0.2524 -3.9260
16303TIP3    H270325   5.715   4.513  15.471  0.4875 -1.2646 -0.5452
16304TIP3   OH270326   3.656   4.417  14.191  0.2806  0.1918  0.2893
16304TIP3    H170327   3.563   4.407  14.211  0.3294  0.8220  0.8739
16304TIP3    H270328   3.658   4.451  14.102 -0.0694  0.5748  0.4224
16305TIP3   OH270329   1.687   4.791   1.321 -0.2081  0.3647 -0.0388
16305TIP3    H170330   1.661   4.804   1.230  1.2045  0.8393 -0.3945
16305TIP3    H270331   1.631   4.721   1.353 -2.9325  2.3430 -0.3154
16306TIP3   OH270332   0.632   0.268   0.788 -0.2692  0.2842  0.0496
16306TIP3    H170333   0.663   0.355   0.762  1.4351 -0.4047 -0.3052
16306TIP3    H270334   0.658   0.211   0.716  2.0353 -1.1538  1.9367
16307TIP3   OH270335   0.323   2.810   3.485 -0.1475 -0.1491 -0.1437
16307TIP3    H170336   0.289   2.720   3.479  0.9347 -0.7194  1.8351
16307TIP3    H270337   0.246   2.865   3.469 -1.0223 -1.4199 -0.4464
16308TIP3   OH270338   1.681   4.403   0.829 -0.0146 -0.1467  0.3738
16308TIP3    H170339   1.682   4.462   0.754 -0.6974 -2.1975 -1.2993
16308TIP3    H270340   1.758   4.347   0.816 -0.3802 -0.7947  0.9734
16309TIP3   OH270341   2.976   1.218   2.347 -0.1366 -0.3851 -0.5541
16309TIP3    H170342   3.063   1.208   2.386 -0.0965 -0.3791 -0.6420
16309TIP3    H270343   2.984   1.176   2.262 -1.0803 -3.1752  0.6669
16310TIP3   OH270344   4.515   6.220   6.334 -0.1765  0.1572 -0.2749
16310TIP3    H170345   4.422   6.237   6.319 -0.1915 -0.4259 -0.8655
16310TIP3    H270346   4.524   6.217   6.429 -0.6382  0.8726 -0.2067
16311TIP3   OH270347   1.617   3.038   5.577 -0.2781 -0.5772  0.1933
16311TIP3    H170348   1.707   3.025   5.548 -0.7992  0.1060 -1.7757
16311TIP3    H270349   1.619   3.015   5.670  1.6442 -1.8301 -0.1143
16312TIP3   OH270350   1.411   6.263   4.426  0.1429  0.1790 -0.2748
16312TIP3    H170351   1.433   6.170   4.423  0.4436  0.2142  0.6757
16312TIP3    H270352   1.317   6.266   4.444  0.4857  0.0555  1.6778
16313TIP3   OH270353   3.082   3.436  14.652  0.1563  0.0383 -0.2945
16313TIP3    H170354   3.174   3.413  14.669 -0.3099 -0.5426  1.5360
16313TIP3    H270355   3.039   3.352  14.638 -0.5692  0.1194  1.3424
16314TIP3   OH270356   0.517   3.381   0.443 -0.0024  0.2371  0.2571
16314TIP3    H170357   0.502   3.287   0.455  1.0658 -0.1055 -1.0515
16314TIP3    H270358   0.442   3.411   0.392  0.2184 -0.1383 -0.2988
16315TIP3   OH270359   4.132   1.277   3.577 -0.5579 -0.2679 -0.0872
16315TIP3    H170360   4.065   1.345   3.569  2.2821  2.6340 -0.3148
16315TIP3    H270361   4.144   1.245   3.487 -0.3381  0.5195 -0.3405
16316TIP3   OH270362   0.296   3.893  16.387 -0.1082 -0.5270 -0.5421
16316TIP3    H170363   0.202   3.906  16.401 -0.1012  0.3735 -1.3122
16316TIP3    H270364   0.307   3.899  16.292  0.2900 -3.6123 -0.7427
16317TIP3   OH270365   4.561   1.626  16.252 -0.0626  0.2462  0.5550
16317TIP3    H170366   4.585   1.704  16.301 -1.2010  2.0159 -1.5918
16317TIP3    H270367   4.533   1.659  16.166 -0.0482 -2.5595 -0.5950
16318TIP3   OH270368   6.194   2.252   2.689  0.3040 -0.1711  0.4712
16318TIP3    H170369   6.192   2.302   2.770 -0.3598 -0.0299  0.3676
16318TIP3    H270370   6.191   2.317   2.619  0.1367 -0.3225  0.3348
16319TIP3   OH270371   5.066   0.442   3.834 -0.0351 -0.5379  0.0610
16319TIP3    H170372   5.019   0.512   3.790  0.3721  1.0464  2.0443
16319TIP3    H270373   5.028   0.440   3.922  1.5568 -1.2287  0.7471
16320TIP3   OH270374   1.082   4.056  15.919  0.1789  0.1349  0.1295
16320TIP3    H170375   1.133   4.123  15.875 -0.3726  1.7400  1.8780
16320TIP3    H270376   0.992   4.088  15.916 -0.2920 -1.1790 -0.2094
16321TIP3   OH270377   4.048   4.417   0.591  0.1265  0.1048  0.6597
16321TIP3    H170378   3.977   4.477   0.613 -0.1137 -0.7280  2.2035
16321TIP3    H270379   4.099   4.409   0.672  0.4136 -1.4041  0.3410
16322TIP3   OH270380   0.649   1.133   3.038 -0.1040  0.3766  0.0203
16322TIP3    H170381   0.573   1.075   3.038 -0.5562  0.9497 -1.1211
16322TIP3    H270382   0.723   1.075   3.019 -0.1563 -0.2882  1.7870
16323TIP3   OH270383   2.474   5.306  16.672  0.2235  0.7567 -0.4146
16323TIP3    H170384   2.391   5.351  16.689  0.1754  0.9748 -1.1951
16323TIP3    H270385   2.450   5.213  16.671 -0.0036  0.8132 -0.5418
16324TIP3   OH270386   2.676   3.784  12.261  0.4951 -0.2175 -0.3012
16324TIP3    H170387   2.723   3.839  12.325  1.1645  0.1965 -1.1406
16324TIP3    H270388   2.720   3.699  12.267 -0.6987 -0.7517  1.1739
16325TIP3   OH270389   5.278   4.424   0.474 -0.7765 -0.2271  0.3035
16325TIP3    H170390   5.232   4.502   0.505 -0.8394 -0.2280  0.2128
16325TIP3    H270391   5.247   4.412   0.385 -1.2206 -0.7050  0.5161
16326TIP3   OH270392   6.275   2.086   3.577  0.3223  0.0958 -0.5594
16326TIP3    H170393   6.261   1.992   3.591  3.1199 -0.1407  1.0554
16326TIP3    H270394   6.215   2.129   3.638  0.3347 -0.6945  0.0140
16327TIP3   OH270395   2.904   1.075  16.987 -0.1722  0.5793 -0.0257
16327TIP3    H170396   2.854   0.993  16.992  0.9226 -0.0915  0.1245
16327TIP3    H270397   2.954   1.077  17.069  0.0597  1.2333 -0.1824
16328TIP3   OH270398   4.652   2.572   2.035 -0.6043  0.7402 -0.4897
16328TIP3    H170399   4.674   2.660   2.065  0.6274  0.1507  0.4135
16328TIP3    H270400   4.650   2.578   1.940  1.3225  1.3457 -0.5172
16329TIP3   OH270401   5.126   6.007  12.081 -0.0368  0.6792 -0.0140
16329TIP3    H170402   5.100   5.938  12.142  0.6706  1.1291  0.8122
16329TIP3    H270403   5.047   6.027  12.031 -0.4881 -0.0555  0.4098
16330TIP3   OH270404   0.632   1.263   1.279  0.2376  0.3390 -0.5724
16330TIP3    H170405   0.585   1.303   1.206 -2.0784 -0.2030  0.5618
16330TIP3    H270406   0.660   1.177   1.246  0.4506  0.6673 -1.2555
16331TIP3   OH270407   4.300   3.274  14.811  0.6716 -0.8596  0.2160
16331TIP3    H170408   4.393   3.295  14.805  1.1311 -3.2060 -1.8624
16331TIP3    H270409   4.293   3.215  14.886  0.5502  0.7053  1.4597
16332TIP3   OH270410   4.706   4.129  11.801 -0.0835  0.3784  0.0285
16332TIP3    H170411   4.612   4.114  11.807 -0.3199  1.9201  0.3842
16332TIP3    H270412   4.733   4.150  11.890  1.1175 -2.7694  0.4667
16333TIP3   OH270413   4.564   3.010   4.319 -0.6733  0.0848  0.1878
16333TIP3    H170414   4.592   3.092   4.359 -1.5949 -0.0251  1.0802
16333TIP3    H270415   4.641   2.979   4.271 -0.1872  1.2379  0.2263
16334TIP3   OH270416   2.844   2.627   6.255  0.1226  0.3200  0.3048
16334TIP3    H170417   2.752   2.653   6.260 -0.6960 -2.2201 -0.8812
16334TIP3    H270418   2.889   2.705   6.223 -1.8998  1.0102 -0.9796
16335TIP3   OH270419   6.727   0.786  14.922  0.0882  0.8338  0.1015
16335TIP3    H170420   6.659   0.765  14.987  0.1984 -1.4295 -0.4727
16335TIP3    H270421   6.680   0.837  14.855 -1.3924 -1.7356 -0.9041
16336TIP3   OH270422   3.417   0.338  13.823  0.0327  0.1305 -0.0878
16336TIP3    H170423   3.375   0.392  13.889  1.4621  0.1786  0.8086
16336TIP3    H270424   3.482   0.395  13.783  0.6068 -0.5142 -0.0864
16337TIP3   OH270425   4.081   5.444  12.405  1.0477  0.0471 -0.8137
16337TIP3    H170426   4.000   5.436  12.456  2.0269  1.0766  0.9316
16337TIP3    H270427   4.051   5.461  12.316 -0.6838 -1.0536 -0.4833
16338TIP3   OH270428   0.539   2.664  16.079  0.7562 -0.1297 -0.0525
16338TIP3    H170429   0.486   2.744  16.074 -0.1246 -0.8036 -2.2054
16338TIP3    H270430   0.475   2.593  16.087  1.5312 -0.6405  1.8430
16339TIP3   OH270431   2.245   5.211  11.231  1.1016  0.1285 -0.2880
16339TIP3    H170432   2.249   5.216  11.135 -1.2098 -0.7496 -0.4654
16339TIP3    H270433   2.200   5.292  11.257 -0.3658 -0.7231 -0.1365
16340TIP3   OH270434   5.888   4.884   5.115 -0.1780 -0.0082  0.3275
16340TIP3    H170435   5.939   4.916   5.040  0.1317 -0.6880  0.2409
16340TIP3    H270436   5.862   4.963   5.162 -2.3014  0.5770 -1.7404
16341TIP3   OH270437   4.080   5.129   0.208  0.4134  0.1771 -0.2977
16341TIP3    H170438   3.991   5.160   0.223 -0.0031 -0.2482 -1.7805
16341TIP3    H270439   4.072   5.067   0.135  1.1735 -3.5511  2.6665
16342TIP3   OH270440   0.883   5.888   0.282 -1.0383 -0.4998 -0.5344
16342TIP3    H170441   0.967   5.886   0.236 -0.3437 -1.8909  0.7416
16342TIP3    H270442   0.828   5.826   0.234 -1.1825  0.0510 -1.0826
16343TIP3   OH270443   5.920   0.385  10.437 -0.2281  0.6743 -0.3662
16343TIP3    H170444   6.001   0.354  10.478 -0.5974 -0.2527 -0.3250
16343TIP3    H270445   5.922   0.480  10.449 -0.4259  0.4197  1.9981
16344TIP3   OH270446   5.813   5.830  14.486 -0.1052 -0.0845  0.1962
16344TIP3    H170447   5.786   5.854  14.574 -0.8642  0.2975 -0.1318
16344TIP3    H270448   5.746   5.868  14.429  1.1256  0.8643 -0.6457
16345TIP3   OH270449   0.566   6.126  14.757 -0.0367  0.1539 -0.6424
16345TIP3    H170450   0.566   6.068  14.680  0.1506  1.1318 -1.3835
16345TIP3    H270451   0.616   6.078  14.823 -1.1842 -1.2109 -0.7302
16346TIP3   OH270452   4.043   4.290  14.761 -0.2348 -0.0135 -0.1318
16346TIP3    H170453   4.075   4.369  14.717 -0.6077 -0.5164 -1.3257
16346TIP3    H270454   4.008   4.321  14.844  0.0307  1.0165 -0.4004
16347TIP3   OH270455   1.618   4.803  11.876 -0.3669 -0.1699 -0.6267
16347TIP3    H170456   1.658   4.797  11.963 -2.4526  0.7735  0.4465
16347TIP3    H270457   1.529   4.770  11.889 -0.8706  0.5239 -2.2741
16348TIP3   OH270458   6.059   1.078  17.229 -0.0844 -0.0732  0.1488
16348TIP3    H170459   5.970   1.051  17.206  0.4465 -2.3469  0.5997
16348TIP3    H270460   6.108   1.070  17.147 -0.3094  1.3215 -0.1332
16349TIP3   OH270461   5.776   4.437   5.010  0.0903 -0.0306  0.3358
16349TIP3    H170462   5.843   4.452   5.077  1.3610  1.3038 -1.1844
16349TIP3    H270463   5.803   4.493   4.937 -2.7506  0.5916 -0.2809
16350TIP3   OH270464   6.240   4.878   1.505 -0.1291  0.0986  0.3264
16350TIP3    H170465   6.235   4.972   1.520 -0.9532  0.4537 -2.0503
16350TIP3    H270466   6.327   4.864   1.467  0.1939 -0.1956  1.1438
16351TIP3   OH270467   0.181   3.946  16.686  0.3684 -0.3862  0.0332
16351TIP3    H170468   0.115   3.960  16.617  1.3478 -0.3793 -0.9209
16351TIP3    H270469   0.130   3.936  16.766 -0.8102 -0.5481 -0.7166
16352TIP3   OH270470   5.862   1.006  13.650  0.4343  0.3760 -0.1479
16352TIP3    H170471   5.858   0.949  13.727  0.5045  0.4498 -0.0893
16352TIP3    H270472   5.892   0.949  13.580 -0.9077 -0.0151 -0.4271
16353TIP3   OH270473   2.185   1.801  16.405 -0.3105  0.2767  0.2258
16353TIP3    H170474   2.111   1.782  16.463 -0.0922  0.4162  0.5569
16353TIP3    H270475   2.173   1.744  16.329 -1.3954  1.1515 -0.2625
16354TIP3   OH270476   4.844   1.823   0.801  0.2908  0.0748 -0.5149
16354TIP3    H170477   4.890   1.769   0.866  0.2440  1.8657  1.0380
16354TIP3    H270478   4.762   1.848   0.845 -0.4389  0.0374 -1.8440
16355TIP3   OH270479   0.376   6.704   6.517 -0.3297  0.1305  0.2037
16355TIP3    H170480   0.354   6.797   6.511  0.6599  0.2891 -1.2063
16355TIP3    H270481   0.293   6.661   6.534 -0.7584  1.2958  1.1204
16356TIP3   OH270482   4.360   3.643   6.247  0.4897 -0.6001 -0.7884
16356TIP3    H170483   4.439   3.589   6.237  0.3711 -0.6863 -1.3115
16356TIP3    H270484   4.394   3.732   6.263  0.7288 -0.3319 -2.6153
16357TIP3   OH270485   1.599   2.849  15.488 -0.4069  0.3296  0.2787
16357TIP3    H170486   1.620   2.872  15.579 -1.8511 -1.7522  1.1941
16357TIP3    H270487   1.516   2.801  15.495  0.8146 -2.1745 -1.8292
16358TIP3   OH270488   6.202   3.739  11.264 -0.0898  0.0014  0.6412
16358TIP3    H170489   6.137   3.809  11.273  1.3277  1.5272 -0.5772
16358TIP3    H270490   6.159   3.673  11.210 -1.0335  0.4263  0.8524
16359TIP3   OH270491   4.185   5.460   0.647  0.6255 -0.5088  0.1810
16359TIP3    H170492   4.171   5.366   0.659 -1.3992 -0.1080  1.0974
16359TIP3    H270493   4.243   5.485   0.718 -0.1904 -0.7536  0.9394
16360TIP3   OH270494   3.073   4.205   2.907  0.2437  0.1723  0.0705
16360TIP3    H170495   3.047   4.114   2.899  0.3827  0.2110 -0.9099
16360TIP3    H270496   2.993   4.255   2.888  0.4431  0.2590 -0.5802
16361TIP3   OH270497   2.096   6.208   3.696  0.5004  0.4117 -0.1713
16361TIP3    H170498   2.057   6.241   3.615 -0.3234  2.1395  0.9148
16361TIP3    H270499   2.169   6.153   3.666  0.7133  1.6576 -2.0645
16362TIP3   OH270500   3.078   4.238  15.899 -0.0351  0.5089  0.2946
16362TIP3    H170501   3.023   4.315  15.886  0.3020  0.5797 -0.7505
16362TIP3    H270502   3.046   4.175  15.835  1.8076  0.9350 -1.0674
16363TIP3   OH270503   5.519   4.789  11.106 -0.0366  0.2520 -0.3335
16363TIP3    H170504   5.433   4.747  11.106  0.2060 -0.2515 -0.1327
16363TIP3    H270505   5.510   4.862  11.168 -0.0567 -0.3524  0.3812
16364TIP3   OH270506   1.401   5.741  11.188  0.4700 -1.1090  0.6186
16364TIP3    H170507   1.420   5.806  11.121  2.0649 -1.4994  0.6502
16364TIP3    H270508   1.484   5.693  11.198  0.4346 -0.6922  3.2492
16365TIP3   OH270509   6.631   4.958   4.376 -0.3262  0.4279  0.1990
16365TIP3    H170510   6.588   4.886   4.421 -0.4929 -0.6037 -1.5618
16365TIP3    H270511   6.562   5.024   4.364 -0.5266  0.2757  0.5202
16366TIP3   OH270512   5.841   0.050   4.026  0.2720  0.2671  0.3861
16366TIP3    H170513   5.912   0.104   3.991 -0.4872 -0.3838 -2.2723
16366TIP3    H270514   5.763   0.103   4.014 -0.2412 -0.6903 -0.6215
16367TIP3   OH270515   1.511   1.394  14.114  0.2179  0.1781 -0.2360
16367TIP3    H170516   1.591   1.411  14.065  1.0680  0.8075  1.3689
16367TIP3    H270517   1.444   1.447  14.070  1.4320  2.4421  0.6162
16368TIP3   OH270518   3.412   2.877   4.306  0.1114 -0.2003 -0.3784
16368TIP3    H170519   3.364   2.852   4.227 -0.0843 -0.2621 -0.2391
16368TIP3    H270520   3.502   2.893   4.275 -0.0401  0.0942 -0.6689
16369TIP3   OH270521   0.169   1.847  14.928  0.0237 -0.3685 -0.0354
16369TIP3    H170522   0.262   1.847  14.951  0.1293  1.4534 -0.3453
16369TIP3    H270523   0.125   1.814  15.006  0.8894 -0.6433  0.3417
16370TIP3   OH270524   4.935   6.205   1.121 -0.4530 -0.2757  0.1937
16370TIP3    H170525   5.006   6.244   1.071  0.0714  1.4640  2.2214
16370TIP3    H270526   4.885   6.154   1.056 -0.6026  2.9851 -2.3956
16371TIP3   OH270527   5.426   4.145   0.993 -0.1813  0.2410  0.0669
16371TIP3    H170528   5.515   4.113   1.008 -0.6628 -1.2689 -0.2094
16371TIP3    H270529   5.375   4.067   0.974 -1.7229  1.0262  0.8704
16372TIP3   OH270530   6.332   2.857   4.808  0.2031 -0.5824 -0.0375
16372TIP3    H170531   6.294   2.854   4.721  0.9813  0.4059 -0.4150
16372TIP3    H270532   6.282   2.792   4.858 -1.7074  0.4246 -0.6118
16373TIP3   OH270533   4.569   5.268  13.484 -0.7132 -0.0235  0.0459
16373TIP3    H170534   4.597   5.178  13.469  0.4131  0.4272 -0.5740
16373TIP3    H270535   4.622   5.320  13.424 -0.9375  1.1157  0.8250
16374TIP3   OH270536   2.798   3.096  15.044 -0.1483  0.8852  0.4243
16374TIP3    H170537   2.808   3.096  14.949 -0.6251 -0.2601  0.3751
16374TIP3    H270538   2.872   3.149  15.075 -0.0524  1.3561 -0.5797
16375TIP3   OH270539   5.268   1.471  14.329 -0.2185 -0.5715  0.0043
16375TIP3    H170540   5.299   1.477  14.419 -1.9168 -1.8737  0.7074
16375TIP3    H270541   5.335   1.516  14.277  0.1469  1.3276  2.0401
16376TIP3   OH270542   2.542   6.265   5.302 -0.0387 -0.8608  0.3461
16376TIP3    H170543   2.566   6.310   5.221 -1.1419 -1.4364 -0.3015
16376TIP3    H270544   2.447   6.266   5.304 -0.1160 -3.6046  0.0613
16377TIP3   OH270545   5.430   3.031  13.609  0.0905 -0.0453  0.2164
16377TIP3    H170546   5.413   2.947  13.651  1.0444 -0.1506  0.4001
16377TIP3    H270547   5.344   3.074  13.606 -0.3430 -0.8887  0.4062
16378TIP3   OH270548   4.136   5.238  16.080  0.2491  0.2817 -0.0582
16378TIP3    H170549   4.180   5.309  16.125 -0.3215  0.5250  0.1118
16378TIP3    H270550   4.050   5.232  16.122  0.3386 -0.5831  0.0073
16379TIP3   OH270551   5.494   6.259   4.807  0.0326 -0.1913 -0.0174
16379TIP3    H170552   5.413   6.258   4.859  1.1056 -1.0563  1.6877
16379TIP3    H270553   5.464   6.262   4.717 -1.8869  1.4503  0.6430
16380TIP3   OH270554   3.095   3.515  13.625  0.6299 -0.1276 -0.0836
16380TIP3    H170555   3.155   3.446  13.651  1.0919  0.8240  1.3745
16380TIP3    H270556   3.068   3.557  13.707 -0.6074  0.6330 -0.8534
16381TIP3   OH270557   3.554   4.578   4.087 -0.0519  0.1834  0.2889
16381TIP3    H170558   3.565   4.508   4.022  0.5805  0.1214  0.4662
16381TIP3    H270559   3.462   4.603   4.079 -0.3188 -0.7567  0.3071
16382TIP3   OH270560   3.724   0.012   0.180  0.0799  0.5245 -0.0596
16382TIP3    H170561   3.664   0.085   0.193 -1.0481 -0.6256  1.3024
16382TIP3    H270562   3.800   0.034   0.234  0.0346  1.0222 -0.1958
16383TIP3   OH270563   3.420   3.817  10.683  0.1796 -0.0309  0.0220
16383TIP3    H170564   3.410   3.904  10.644 -0.1963  0.1141  0.4386
16383TIP3    H270565   3.495   3.779  10.637  0.7967  0.7880  0.3273
16384TIP3   OH270566   0.420   5.726  14.149  0.4471  0.1322  0.0975
16384TIP3    H170567   0.424   5.698  14.240  1.4497  1.4994  0.4948
16384TIP3    H270568   0.504   5.769  14.133  0.2654 -0.0605 -1.4601
16385TIP3   OH270569   0.237   3.110   0.926 -0.1292  0.1353 -0.3502
16385TIP3    H170570   0.148   3.092   0.896 -0.7051  1.2758  0.6339
16385TIP3    H270571   0.227   3.174   0.997  1.3318 -1.0985  1.0168
16386TIP3   OH270572   0.870   4.707  12.508 -0.3899 -0.7001 -0.6375
16386TIP3    H170573   0.854   4.802  12.515  0.2500 -0.7803  4.0438
16386TIP3    H270574   0.965   4.699  12.514 -0.5939 -1.6939  2.3702
16387TIP3   OH270575   0.188   5.027   0.001 -0.0085 -0.2839  0.0380
16387TIP3    H170576   0.244   5.073  -0.061  0.4393  0.1407  0.7530
16387TIP3    H270577   0.130   5.095   0.036 -1.2389 -0.7798 -0.9685
16388TIP3   OH270578   3.848   4.496  13.682 -0.2828 -0.3787 -0.1824
16388TIP3    H170579   3.927   4.445  13.701  0.4441 -0.3595 -2.9467
16388TIP3    H270580   3.834   4.484  13.588 -2.8832  0.6184  0.0457
16389TIP3   OH270581   5.763   1.987   1.632 -0.4962 -0.2001  0.1505
16389TIP3    H170582   5.838   1.991   1.573 -0.3381 -0.4974  0.3288
16389TIP3    H270583   5.717   1.907   1.608  0.0163 -0.7441  0.9596
16390TIP3   OH270584   1.258   2.000   2.334  0.4213 -0.2649 -0.1998
16390TIP3    H170585   1.172   1.965   2.358  0.0493  1.2381  0.7239
16390TIP3    H270586   1.262   1.992   2.239 -0.5343 -0.7840 -0.1997
16391TIP3   OH270587   6.363   1.598  16.682  0.1363  0.5003 -0.1025
16391TIP3    H170588   6.281   1.605  16.732 -0.0600  0.1729 -0.3685
16391TIP3    H270589   6.392   1.508  16.697 -0.2161  0.2261 -1.0125
16392TIP3   OH270590   4.940   2.921   6.235 -0.2139  0.0555 -0.3768
16392TIP3    H170591   4.916   3.011   6.256  2.6403  0.8999 -0.5201
16392TIP3    H270592   4.999   2.895   6.305  0.8852 -0.8454 -1.6040
16393TIP3   OH270593   1.186   3.186   3.553  0.4260 -0.1729  0.5385
16393TIP3    H170594   1.238   3.193   3.472  0.1560  1.2381  0.4804
16393TIP3    H270595   1.251   3.191   3.623  0.5389 -0.2263  0.4389
16394TIP3   OH270596   1.563   2.558  15.633  0.4507  0.3131  0.1315
16394TIP3    H170597   1.482   2.552  15.582 -1.1761 -0.5192  2.6872
16394TIP3    H270598   1.551   2.636  15.687  3.0775  2.4314 -2.2402
16395TIP3   OH270599   1.930   2.074   0.955  0.6846 -0.6231 -0.2743
16395TIP3    H170600   1.997   2.116   0.900  0.4895  1.0513  0.7113
16395TIP3    H270601   1.849   2.083   0.904  0.3955  1.4495  0.5041
16396TIP3   OH270602   5.393   5.573   3.521  0.1554  0.3772  0.4566
16396TIP3    H170603   5.482   5.584   3.551  0.1370  0.2833  0.5432
16396TIP3    H270604   5.362   5.662   3.504  0.5727  0.3628 -0.4577
16397TIP3   OH270605   6.733   3.858  12.252 -0.5289  0.3583 -0.0052
16397TIP3    H170606   6.711   3.769  12.224 -0.9663  0.2521  0.6574
16397TIP3    H270607   6.739   3.907  12.170 -3.3750  0.4030 -0.2494
16398TIP3   OH270608   5.692   0.146  11.624  0.5724  0.2273 -0.1645
16398TIP3    H170609   5.674   0.224  11.572  2.2525  1.1840  0.6506
16398TIP3    H270610   5.636   0.156  11.701 -1.3939 -0.8445 -1.4198
16399TIP3   OH270611   6.150   6.351  17.171  0.2849  0.3733 -0.3990
16399TIP3    H170612   6.157   6.412  17.097 -2.0196  0.5139 -0.5153
16399TIP3    H270613   6.174   6.404  17.248  0.1075  0.9244 -0.7243
16400TIP3   OH270614   1.635   2.609   1.350 -0.6629  0.0336  0.1331
16400TIP3    H170615   1.598   2.574   1.431 -0.6120  1.1408  0.6392
16400TIP3    H270616   1.564   2.601   1.286 -0.0787 -2.6508 -0.2314
16401TIP3   OH270617   4.760   3.939  13.863 -0.1287 -0.2789 -0.4222
16401TIP3    H170618   4.793   3.951  13.774 -0.7395  0.9667 -0.4948
16401TIP3    H270619   4.806   4.004  13.915  0.7309 -1.4592  0.3220
16402TIP3   OH270620   5.062   4.559  12.631  0.6830 -0.2171  0.2357
16402TIP3    H170621   5.038   4.594  12.545  0.4542 -0.6071  0.1382
16402TIP3    H270622   5.047   4.465  12.623 -0.8770 -0.0697  1.1874
16403TIP3   OH270623   5.892   6.184   4.467 -0.4212 -0.8377  0.1753
16403TIP3    H170624   5.892   6.258   4.406  0.0397 -1.8055 -1.0305
16403TIP3    H270625   5.855   6.112   4.416  1.7335 -2.1503  0.4384
16404TIP3   OH270626   2.290   5.058   5.212 -0.2470  0.1078 -0.1717
16404TIP3    H170627   2.204   5.053   5.255  0.3980 -0.1914  1.1162
16404TIP3    H270628   2.277   5.014   5.128 -1.4617  0.4364 -0.1706
16405TIP3   OH270629   4.281   1.037   5.375 -0.6119  0.0588 -0.4577
16405TIP3    H170630   4.188   1.039   5.355 -0.8252  1.5448  0.5752
16405TIP3    H270631   4.290   1.095   5.451  1.3558  1.0830 -1.4380
16406TIP3   OH270632   4.239   4.067   1.170  0.2443  0.3078 -0.3308
16406TIP3    H170633   4.227   4.162   1.171  0.5462  0.3575 -0.9668
16406TIP3    H270634   4.237   4.044   1.077  1.4093 -0.1413 -0.2553
16407TIP3   OH270635   5.438   2.736  14.545  0.6086 -0.1786  0.6474
16407TIP3    H170636   5.490   2.799  14.595  0.7059 -1.3103  1.9968
16407TIP3    H270637   5.357   2.726  14.596 -0.3634  0.5060 -0.7126
16408TIP3   OH270638   2.521   3.865   1.160 -0.0024 -0.2622  0.4136
16408TIP3    H170639   2.568   3.874   1.077 -1.0006  0.6793 -0.0582
16408TIP3    H270640   2.530   3.772   1.183 -2.1711 -1.1983 -2.2219
16409TIP3   OH270641   5.647   5.082   1.116 -0.0811 -0.8945 -0.1904
16409TIP3    H170642   5.718   5.145   1.103 -0.3192 -0.5844  0.0132
16409TIP3    H270643   5.688   5.007   1.159  0.0474 -0.5639  0.2612
16410TIP3   OH270644   4.143   5.950   0.388 -0.2184 -0.3971  0.0120
16410TIP3    H170645   4.186   5.954   0.302  1.9263  2.0704  1.1274
16410TIP3    H270646   4.215   5.954   0.451 -1.8818 -0.3645  1.9540
16411TIP3   OH270647   6.210   1.194  10.856  0.4520 -0.0029  0.3771
16411TIP3    H170648   6.230   1.218  10.766  0.0617 -1.2147 -0.0461
16411TIP3    H270649   6.172   1.273  10.895 -1.7788 -0.2164 -1.2756
16412TIP3   OH270650   5.919   4.327   1.640  0.2701  0.4440  0.2345
16412TIP3    H170651   5.982   4.397   1.625  1.0174  0.0605  1.5358
16412TIP3    H270652   5.966   4.247   1.620  0.2760  0.1387  1.4460
16413TIP3   OH270653   4.670   3.063  16.728  0.1520  1.0063 -0.0718
16413TIP3    H170654   4.663   3.044  16.634 -3.4804  0.4710  0.2125
16413TIP3    H270655   4.738   3.129  16.734 -0.1219  1.6641 -3.2054
16414TIP3   OH270656   0.369   4.092   1.412  0.3358 -0.3544 -0.0023
16414TIP3    H170657   0.409   4.116   1.496 -1.3862 -0.2034  0.7955
16414TIP3    H270658   0.396   4.002   1.398  1.1016 -0.2003  0.4353
16415TIP3   OH270659   1.649   0.042   0.576 -0.1628  0.0399  0.0141
16415TIP3    H170660   1.700   0.012   0.652  0.1409  0.2990 -0.0829
16415TIP3    H270661   1.571  -0.013   0.576  0.0686 -0.2919  0.2285
16416TIP3   OH270662   0.056   4.601   3.956  0.0105 -0.5674 -0.2144
16416TIP3    H170663  -0.008   4.530   3.943 -1.0260  0.4438 -0.7111
16416TIP3    H270664   0.124   4.583   3.891 -0.7096 -0.6037 -0.9859
16417TIP3   OH270665   4.699   6.156   5.032 -0.4537 -0.3004 -0.3307
16417TIP3    H170666   4.665   6.137   5.120  0.9638 -0.8231  0.1140
16417TIP3    H270667   4.654   6.237   5.006 -1.7782 -0.7971  0.3740
16418TIP3   OH270668   2.290   1.600  16.643 -0.1028 -0.4758  0.6671
16418TIP3    H170669   2.350   1.595  16.717  1.3204  1.3637 -0.3248
16418TIP3    H270670   2.231   1.673  16.665  1.0362  0.8174 -0.4905
16419TIP3   OH270671   1.241   6.527   1.502  0.9397 -0.5284  0.2089
16419TIP3    H170672   1.215   6.521   1.410  0.0502 -0.0993  0.4283
16419TIP3    H270673   1.174   6.581   1.543  0.9351 -1.3174  1.2674
16420TIP3   OH270674   0.993   5.907  13.853 -0.1189  0.2669  0.6779
16420TIP3    H170675   0.924   5.972  13.863 -1.7488 -0.9142 -2.0829
16420TIP3    H270676   1.060   5.951  13.800  0.2766  0.7488  1.5857
16421TIP3   OH270677   3.503   0.503  11.554 -0.0259 -0.0631 -0.3007
16421TIP3    H170678   3.597   0.490  11.567 -0.4685 -0.7035  2.8145
16421TIP3    H270679   3.491   0.597  11.562  0.4984  0.1765 -2.0864
16422TIP3   OH270680   0.226   5.664   6.775  0.2026  0.2101 -0.0724
16422TIP3    H170681   0.266   5.734   6.722  0.2690  0.9265  0.9139
16422TIP3    H270682   0.132   5.673   6.758  0.1032  1.3488  1.0182
16423TIP3   OH270683   6.118   1.657   2.692  0.1867 -0.1063 -0.4214
16423TIP3    H170684   6.075   1.574   2.713  2.2864 -1.5179 -1.4999
16423TIP3    H270685   6.065   1.723   2.735 -1.0559 -2.0852  1.1907
16424TIP3   OH270686   0.673   4.030  11.798  0.0503 -0.0474  0.0844
16424TIP3    H170687   0.746   4.085  11.827 -1.8681  2.4311  0.3677
16424TIP3    H270688   0.661   3.966  11.869  1.7752 -0.3150  0.1413
16425TIP3   OH270689   2.295   2.565   2.471  1.0314 -0.1145 -0.6036
16425TIP3    H170690   2.382   2.595   2.497 -0.1267  1.7777  1.2332
16425TIP3    H270691   2.276   2.494   2.532  0.9567  0.0164 -0.4745
16426TIP3   OH270692   1.267   4.540   3.226 -0.2690  0.3115 -0.4614
16426TIP3    H170693   1.235   4.503   3.309  1.5717  0.0409  0.1409
16426TIP3    H270694   1.207   4.613   3.208 -2.1978 -1.1751 -0.1984
16427TIP3   OH270695   2.546   3.887   1.844 -0.2557 -0.0276  0.0498
16427TIP3    H170696   2.462   3.886   1.799 -0.2097 -1.0627 -0.0358
16427TIP3    H270697   2.546   3.967   1.895 -1.4378 -0.2004  0.3235
16428TIP3   OH270698   1.674   6.004   0.658 -0.1040 -0.4779  0.1561
16428TIP3    H170699   1.610   5.968   0.720  0.7403 -2.4514 -0.1029
16428TIP3    H270700   1.621   6.052   0.594 -1.2720 -1.4855  0.3599
16429TIP3   OH270701   0.993   2.056   5.566 -0.0794  0.4651  0.0598
16429TIP3    H170702   0.936   1.982   5.546  2.0803 -0.9694 -1.0604
16429TIP3    H270703   0.955   2.130   5.518 -0.5191 -0.6556 -1.3439
16430TIP3   OH270704   4.215   5.533  16.020 -0.1720 -0.1646 -0.0890
16430TIP3    H170705   4.259   5.509  16.102  0.2773 -0.6964 -0.4921
16430TIP3    H270706   4.223   5.629  16.017  0.8165 -0.2395 -0.0815
16431TIP3   OH270707   5.907   6.587   3.194 -0.5913 -0.0833  0.0045
16431TIP3    H170708   5.858   6.526   3.139 -0.5657 -1.2558  1.2356
16431TIP3    H270709   5.906   6.546   3.281  1.1991  0.6460  0.3932
16432TIP3   OH270710   1.161   6.343   5.646 -0.4011  0.6189 -0.1786
16432TIP3    H170711   1.138   6.273   5.584  1.2446  0.6678 -0.8745
16432TIP3    H270712   1.091   6.408   5.635 -1.6449 -0.6596  0.0707
16433TIP3   OH270713   3.095   3.919  16.507 -0.1303 -0.2637  0.3305
16433TIP3    H170714   3.083   4.008  16.472  1.8688 -0.1949 -0.2709
16433TIP3    H270715   3.158   3.878  16.447 -1.8064 -2.4586  0.0271
16434TIP3   OH270716   3.268   2.912   2.188  0.1639  0.5680 -0.1770
16434TIP3    H170717   3.327   2.986   2.197  0.5148  0.2013  0.5722
16434TIP3    H270718   3.203   2.940   2.124  0.9043  1.1265 -0.6791
16435TIP3   OH270719   3.351   6.755   4.330  0.4169 -0.5245 -0.2361
16435TIP3    H170720   3.323   6.845   4.318  1.7972 -0.1467 -0.6255
16435TIP3    H270721   3.444   6.755   4.311  0.1949 -2.2829 -1.5072
16436TIP3   OH270722   5.570   3.834   0.999 -0.2424  0.2853 -0.4023
16436TIP3    H170723   5.620   3.808   1.076  0.3891  4.5893  0.7742
16436TIP3    H270724   5.480   3.837   1.029 -0.2417  0.0468 -0.3761
16437TIP3   OH270725   3.312   5.836   3.318 -0.1544  0.2848  0.9829
16437TIP3    H170726   3.367   5.758   3.319 -1.1879 -0.4731  0.1110
16437TIP3    H270727   3.238   5.813   3.374 -2.1543 -0.6586 -1.9237
16438TIP3   OH270728   0.594   1.093   1.885 -0.2471 -0.2212  0.3490
16438TIP3    H170729   0.646   1.168   1.855  0.9263 -1.1673 -0.0575
16438TIP3    H270730   0.543   1.067   1.809 -0.2871 -0.1279  0.3446
16439TIP3   OH270731   3.824   3.778  11.075  0.1045  0.8562 -0.3955
16439TIP3    H170732   3.745   3.808  11.030 -1.8280 -1.5842  1.2440
16439TIP3    H270733   3.796   3.701  11.125  3.6721 -0.5019 -0.3164
16440TIP3   OH270734   5.605   6.058   6.440  0.2094  0.0482 -1.0569
16440TIP3    H170735   5.663   5.982   6.442 -3.0512 -2.5180 -1.2053
16440TIP3    H270736   5.639   6.115   6.509  3.3609 -0.9787 -1.6504
16441TIP3   OH270737   4.615   6.687  11.759  0.1859  0.6675  0.1324
16441TIP3    H170738   4.544   6.709  11.699  0.2674  2.1461  0.5507
16441TIP3    H270739   4.579   6.704  11.846 -0.0586 -1.8221  0.5699
16442TIP3   OH270740   6.278   3.197  15.456 -0.3251 -0.0412  0.1181
16442TIP3    H170741   6.200   3.176  15.507 -1.2571  0.3197 -1.1388
16442TIP3    H270742   6.343   3.132  15.483 -1.6531 -1.5451 -0.2227
16443TIP3   OH270743   1.102   1.157   2.234  0.0504 -0.1939 -0.2242
16443TIP3    H170744   1.051   1.202   2.167 -1.4609  0.8091  1.5620
16443TIP3    H270745   1.157   1.225   2.273 -0.2027 -0.4550  0.5948
16444TIP3   OH270746   5.381   1.018  14.223  0.2531  0.4276  0.0600
16444TIP3    H170747   5.340   1.104  14.225  1.7742  1.2483 -2.6778
16444TIP3    H270748   5.475   1.035  14.236  0.6139 -0.7634 -0.8379
16445TIP3   OH270749   1.113   1.832   1.843  0.6944 -0.0512 -0.1828
16445TIP3    H170750   1.116   1.907   1.903  1.9620  1.1857 -1.7475
16445TIP3    H270751   1.068   1.764   1.892  1.1939  1.1214  1.9628
16446TIP3   OH270752   2.665   1.779  11.838 -0.6647 -0.4086  0.5460
16446TIP3    H170753   2.572   1.800  11.846 -0.4613  0.5928  0.4200
16446TIP3    H270754   2.684   1.725  11.915 -0.9071  1.0771  1.6741
16447TIP3   OH270755   3.377   6.396  11.910 -0.2407 -0.0667  0.1615
16447TIP3    H170756   3.393   6.440  11.993 -3.1181  2.1698 -0.3920
16447TIP3    H270757   3.446   6.427  11.852  0.0364  0.6707  0.8851
16448TIP3   OH270758   5.478   6.693  11.113 -0.3684 -0.0519  0.1005
16448TIP3    H170759   5.505   6.666  11.025 -1.1042 -1.5999  0.3262
16448TIP3    H270760   5.396   6.741  11.100  0.1746  0.8131 -0.1684
16449TIP3   OH270761   2.293   2.385   5.297  0.0124  0.0064 -0.4243
16449TIP3    H170762   2.267   2.355   5.384  0.5631 -1.5190 -0.7776
16449TIP3    H270763   2.213   2.379   5.244  0.3123 -1.6452 -0.7029
16450TIP3   OH270764   2.989   2.843   2.488  0.2169 -0.6117  0.1663
16450TIP3    H170765   2.968   2.831   2.580 -1.5260  0.4684 -0.0612
16450TIP3    H270766   3.085   2.844   2.485  0.2964 -1.3618  1.8561
16451TIP3   OH270767   3.252   0.336   4.646 -0.3313 -0.5115  0.0412
16451TIP3    H170768   3.316   0.406   4.653  1.3428 -1.6270 -3.2971
16451TIP3    H270769   3.302   0.256   4.662 -1.2798 -1.2746 -0.7458
16452TIP3   OH270770   2.182   0.197   6.213  0.1326  0.5366 -0.5822
16452TIP3    H170771   2.269   0.157   6.214 -0.5411 -0.9677  0.6086
16452TIP3    H270772   2.154   0.194   6.305 -0.5334  2.4291 -0.7223
16453TIP3   OH270773   4.055   2.468  14.990 -0.1173 -0.5031 -0.4758
16453TIP3    H170774   4.106   2.389  15.006  0.5982 -0.4716 -2.4237
16453TIP3    H270775   3.967   2.437  14.970  0.3765 -0.8952 -2.1415
16454TIP3   OH270776   2.119   3.794  11.011  0.5412  0.3193  0.7118
16454TIP3    H170777   2.087   3.882  10.992 -1.8553 -1.0911 -2.3133
16454TIP3    H270778   2.201   3.787  10.963  0.0687  0.5053 -0.1485
16455TIP3   OH270779   4.537   0.455   2.962  0.3748 -0.2312  0.4229
16455TIP3    H170780   4.593   0.391   2.919 -1.6266 -1.3874 -0.5542
16455TIP3    H270781   4.488   0.404   3.026 -1.0780  0.3598 -0.2008
16456TIP3   OH270782   0.453   1.658   5.139 -0.4142 -0.4243  0.0547
16456TIP3    H170783   0.389   1.635   5.072 -2.5104  0.3781  1.7224
16456TIP3    H270784   0.512   1.583   5.143 -1.3749 -1.2718 -1.3712
16457TIP3   OH270785   6.172   0.559   5.411  0.3584 -0.1761 -0.4194
16457TIP3    H170786   6.265   0.548   5.392  0.2290 -0.2214 -1.0194
16457TIP3    H270787   6.168   0.560   5.507  1.1036  0.8914 -0.3877
16458TIP3   OH270788   3.330   1.883  14.243  0.5728 -0.2779 -0.2153
16458TIP3    H170789   3.388   1.859  14.316 -0.1643 -1.1975  0.0819
16458TIP3    H270790   3.388   1.915  14.175  1.3235  0.0527  0.5723
16459TIP3   OH270791   4.187   5.515  13.806 -0.2327  0.1192  0.5661
16459TIP3    H170792   4.129   5.458  13.856 -2.5087  1.3470 -0.6124
16459TIP3    H270793   4.150   5.517  13.718  1.6367  0.8973 -0.2368
16460TIP3   OH270794   6.728   5.286  12.800 -0.2294 -0.3397 -0.0466
16460TIP3    H170795   6.639   5.251  12.811 -0.4619 -0.2305 -1.5151
16460TIP3    H270796   6.747   5.330  12.883 -2.4358  1.6484 -0.5462
16461TIP3   OH270797   6.009   3.962  14.549  0.0552  0.0811  0.7157
16461TIP3    H170798   5.966   4.020  14.486 -0.4070 -0.8324  0.1745
16461TIP3    H270799   6.042   3.889  14.495 -2.3669 -1.8890  1.8115
16462TIP3   OH270800   1.074   1.506  15.162 -0.0340  0.4455  0.3055
16462TIP3    H170801   1.072   1.454  15.243  0.8301  0.2021  0.1690
16462TIP3    H270802   0.999   1.565  15.170  0.2644  0.6702  1.4424
16463TIP3   OH270803   1.584   0.346  16.513  0.1811 -0.1265 -0.2776
16463TIP3    H170804   1.588   0.411  16.443 -0.4103 -1.9989 -2.1234
16463TIP3    H270805   1.666   0.297  16.506  0.0552 -0.4242  0.2505
16464TIP3   OH270806   5.012   5.958  11.619  0.2352 -0.2670 -0.0301
16464TIP3    H170807   4.990   5.865  11.626 -0.2004 -0.2676 -1.2181
16464TIP3    H270808   5.104   5.962  11.643 -0.1575 -0.7748  1.5893
16465TIP3   OH270809   5.250   4.443  16.184 -0.4311  0.1533  0.3315
16465TIP3    H170810   5.337   4.434  16.144 -0.3118  0.6391  0.4853
16465TIP3    H270811   5.259   4.402  16.270 -0.8882 -1.5712 -0.4117
16466TIP3   OH270812   1.016   2.074   6.722 -0.6121 -0.2243 -0.2479
16466TIP3    H170813   0.950   2.027   6.671 -0.3414 -1.4714  0.5265
16466TIP3    H270814   1.087   2.012   6.733  0.4925  0.9523 -0.6597
16467TIP3   OH270815   0.672   0.222  11.632  0.0031 -0.2629  0.6686
16467TIP3    H170816   0.590   0.241  11.677 -1.4235 -2.2502 -0.9999
16467TIP3    H270817   0.648   0.216  11.539  2.1136 -0.4903  0.1011
16468TIP3   OH270818   1.382   1.227  11.760 -0.4697 -0.0707  1.1211
16468TIP3    H170819   1.292   1.203  11.783 -0.7355  0.3232  0.4843
16468TIP3    H270820   1.374   1.307  11.709  0.2412 -0.0646  1.0128
16469TIP3   OH270821   4.479   1.903   1.639 -0.6263 -0.1771  0.5809
16469TIP3    H170822   4.406   1.937   1.586 -0.7671  0.9358  1.4735
16469TIP3    H270823   4.553   1.958   1.616 -0.8851  0.8593  2.1247
16470TIP3   OH270824   3.459   5.158  14.715 -0.3836 -0.0374 -0.4573
16470TIP3    H170825   3.482   5.075  14.757 -1.2344  0.2345  0.5463
16470TIP3    H270826   3.391   5.134  14.652 -1.6971  0.1406  0.8952
16471TIP3   OH270827   5.296   0.979   4.792 -0.2361  0.6443  0.1342
16471TIP3    H170828   5.308   0.890   4.825 -0.5094  0.9439  1.0700
16471TIP3    H270829   5.341   0.980   4.708  0.3543 -0.1897  0.4317
16472TIP3   OH270830   4.046   2.425  17.174 -0.3556 -0.6452 -0.0447
16472TIP3    H170831   3.972   2.371  17.201  0.8900 -0.7297  3.3460
16472TIP3    H270832   4.122   2.368  17.183  0.6359  0.7773  0.8026
16473TIP3   OH270833   3.641   2.334   5.656 -0.3094 -0.1707  0.4071
16473TIP3    H170834   3.618   2.410   5.710 -0.1607 -0.4422  0.8501
16473TIP3    H270835   3.732   2.348   5.632  0.0879 -0.8305  1.5161
16474TIP3   OH270836   3.867   3.432   0.060  0.4372  0.5384 -0.3273
16474TIP3    H170837   3.838   3.347   0.026 -1.1199  1.4425 -1.3603
16474TIP3    H270838   3.786   3.478   0.081  1.3043  1.3699  1.2438
16475TIP3   OH270839   6.559   1.795  11.867  0.2822  0.4126  0.3443
16475TIP3    H170840   6.494   1.799  11.796 -0.4287  0.4791  0.9875
16475TIP3    H270841   6.582   1.887  11.883  0.1742  0.4250  0.4340
16476TIP3   OH270842   5.077   1.995  16.374  0.0221 -0.2524 -0.5497
16476TIP3    H170843   5.118   2.081  16.382 -0.3973 -0.1392  0.5839
16476TIP3    H270844   5.147   1.937  16.343  0.1759  0.5886 -1.8056
16477TIP3   OH270845   4.171   0.863   2.647 -0.3128 -0.0755 -0.0875
16477TIP3    H170846   4.141   0.849   2.737 -0.5921 -1.8622 -0.4488
16477TIP3    H270847   4.264   0.882   2.655 -0.9715  3.0501  0.8431
16478TIP3   OH270848   4.222   3.849  16.997 -0.3476  0.2722 -0.1937
16478TIP3    H170849   4.140   3.854  16.950 -0.2058 -0.4612 -0.5225
16478TIP3    H270850   4.238   3.755  17.009  0.1361  0.4200  0.3970
16479TIP3   OH270851   1.398   4.349   5.677 -0.4291  0.6099  0.0505
16479TIP3    H170852   1.481   4.375   5.637  0.0453 -0.3905  0.3550
16479TIP3    H270853   1.332   4.400   5.631  0.3129  1.1184 -0.4728
16480TIP3   OH270854   6.460   0.199  13.512 -0.4608 -0.2290 -0.4935
16480TIP3    H170855   6.372   0.164  13.530  0.0631 -0.8352  0.9090
16480TIP3    H270856   6.445   0.264  13.443 -1.9051 -0.8929 -0.8317
16481TIP3   OH270857   6.239   1.775   4.602  0.1618  0.5866 -0.8545
16481TIP3    H170858   6.291   1.707   4.644 -0.8749 -0.4959 -1.2924
16481TIP3    H270859   6.300   1.848   4.590  1.3600 -0.3618 -0.6204
16482TIP3   OH270860   2.976   2.759   2.020 -0.3702  0.3934  0.0019
16482TIP3    H170861   2.954   2.843   2.060  0.4423  0.7770 -0.3642
16482TIP3    H270862   3.000   2.779   1.930 -0.5486 -0.2765 -0.2029
16483TIP3   OH270863   6.039   2.269   6.517  0.5777  0.2824  0.2246
16483TIP3    H170864   5.984   2.337   6.479  0.2142 -1.4506 -2.4993
16483TIP3    H270865   6.082   2.228   6.441  2.6840 -0.8779  1.9947
16484TIP3   OH270866   4.614   1.202   4.514 -0.2384  0.5601 -0.6712
16484TIP3    H170867   4.545   1.162   4.568  1.2177 -1.3421 -0.1368
16484TIP3    H270868   4.600   1.165   4.426  0.9150 -0.9626 -0.2472
16485TIP3   OH270869   3.505   2.513   3.595 -0.3838 -0.4187  0.0295
16485TIP3    H170870   3.449   2.508   3.518 -2.2098 -0.0715  1.2803
16485TIP3    H270871   3.549   2.598   3.588  0.3314 -0.8857 -1.1880
16486TIP3   OH270872   3.391   6.210   3.289 -0.2318 -0.3591 -0.0359
16486TIP3    H170873   3.340   6.260   3.353 -0.8317 -1.1189  0.0913
16486TIP3    H270874   3.436   6.277   3.237  0.4571  0.2492  1.3375
16487TIP3   OH270875   2.369   0.604   2.839 -0.2507 -0.6359 -0.3916
16487TIP3    H170876   2.348   0.526   2.787  0.6686 -0.7201 -0.6522
16487TIP3    H270877   2.287   0.627   2.882 -0.3013 -2.3447  0.4732
16488TIP3   OH270878   1.358   4.993   0.637  0.0074 -0.4077 -0.2797
16488TIP3    H170879   1.287   4.973   0.576 -3.8910  1.5329  3.3095
16488TIP3    H270880   1.386   5.081   0.613  2.0523 -1.5789 -2.3743
16489TIP3   OH270881   2.496   5.233  11.953 -0.3584  0.5763  0.2365
16489TIP3    H170882   2.546   5.307  11.919 -1.3933  0.0726 -2.5373
16489TIP3    H270883   2.538   5.155  11.916 -0.3552 -0.1375  1.6866
16490TIP3   OH270884   5.686   2.284   3.399  0.3690 -0.0717 -0.0272
16490TIP3    H170885   5.692   2.195   3.362  1.7303  0.8627 -2.1871
16490TIP3    H270886   5.604   2.284   3.448 -0.1049 -2.2623 -0.7287
16491TIP3   OH270887   2.733   3.033  17.201  0.3499 -0.2407  0.0217
16491TIP3    H170888   2.647   3.072  17.185 -0.3683 -2.5065 -1.8895
16491TIP3    H270889   2.739   3.027  17.296 -2.0787 -0.9940  0.1693
16492TIP3   OH270890   4.406   3.638   0.483 -0.7336 -0.2700 -0.5181
16492TIP3    H170891   4.438   3.727   0.469  1.3189 -1.0355 -1.0178
16492TIP3    H270892   4.323   3.648   0.528 -0.3917  1.8924 -0.3327
16493TIP3   OH270893   1.673   2.802  15.757  0.5813 -0.0279  0.2643
16493TIP3    H170894   1.657   2.753  15.838  0.5987  0.2168  0.4173
16493TIP3    H270895   1.736   2.870  15.783 -0.2546  0.7391  0.2999
16494TIP3   OH270896   1.230   5.961  14.300 -0.0866 -0.1105 -0.2245
16494TIP3    H170897   1.248   6.054  14.283  2.6871 -0.4786  0.4774
16494TIP3    H270898   1.212   5.925  14.214 -0.5988  0.9477 -0.5793
16495TIP3   OH270899   3.219   0.535  13.665  0.5663 -0.8250 -0.0440
16495TIP3    H170900   3.297   0.480  13.656  0.3339 -1.0918 -0.4450
16495TIP3    H270901   3.174   0.527  13.581  1.2257  1.0490 -0.6030
16496TIP3   OH270902   0.116   5.190   4.372 -0.1503  0.2171  0.1205
16496TIP3    H170903   0.023   5.208   4.386 -0.5651 -1.8064  0.1420
16496TIP3    H270904   0.146   5.154   4.455  0.6903  0.9989  0.1582
16497TIP3   OH270905   0.129   1.337   2.343  0.3067  0.1303  0.4942
16497TIP3    H170906   0.154   1.424   2.374 -1.2209  0.4179  0.9494
16497TIP3    H270907   0.043   1.350   2.303  1.0673 -0.7547 -1.4480
16498TIP3   OH270908   0.576   1.861   3.775  0.3419 -0.0439 -0.4108
16498TIP3    H170909   0.580   1.766   3.780 -1.3904 -0.0567  1.5176
16498TIP3    H270910   0.612   1.891   3.859 -3.7765  0.8094  1.1636
16499TIP3   OH270911   3.062   4.146   0.262 -0.1179  0.0778 -0.2616
16499TIP3    H170912   3.044   4.234   0.296 -1.0105 -0.3578  0.4296
16499TIP3    H270913   3.156   4.134   0.275  0.0495  1.0079 -0.5587
16500TIP3   OH270914   5.113   5.644  14.264  0.4835  0.1711 -0.0886
16500TIP3    H170915   5.042   5.687  14.312  2.5847  2.5242  0.9761
16500TIP3    H270916   5.106   5.678  14.175  0.3658  0.4959  0.0461
16501TIP3   OH270917   1.260   2.342   5.794  0.5027 -0.0902 -0.5142
16501TIP3    H170918   1.339   2.381   5.758  0.0785  0.8026 -0.4902
16501TIP3    H270919   1.217   2.413   5.841  0.2120 -0.8313  0.3594
16502TIP3   OH270920   0.193   5.279  16.475  0.2568 -0.8184  0.4434
16502TIP3    H170921   0.135   5.252  16.546  0.2585  0.8984  1.1024
16502TIP3    H270922   0.241   5.354  16.509 -0.7652  0.9483 -1.8213
16503TIP3   OH270923   4.250   0.332  17.136  0.0201  0.3672 -0.2612
16503TIP3    H170924   4.249   0.248  17.183 -1.0053 -0.0231 -0.9755
16503TIP3    H270925   4.189   0.320  17.064 -1.1656  2.2014  0.4135
16504TIP3   OH270926   4.488   3.405  15.624  0.5095  0.0502  0.2686
16504TIP3    H170927   4.582   3.389  15.613  0.2877  0.0623 -1.7977
16504TIP3    H270928   4.483   3.488  15.672  1.5443 -0.1590  0.7613
16505TIP3   OH270929   1.373   0.499  14.710 -0.2003 -0.3332  0.1233
16505TIP3    H170930   1.337   0.418  14.673 -2.1272  0.4494  0.2669
16505TIP3    H270931   1.352   0.494  14.803 -3.7725  2.0689 -0.4582
16506TIP3   OH270932   4.656   2.472  11.487  0.2146 -0.3667  0.0830
16506TIP3    H170933   4.602   2.397  11.512  0.9983 -1.2761 -0.9230
16506TIP3    H270934   4.682   2.454  11.397 -0.1222  1.4335 -0.3998
16507TIP3   OH270935   2.075   6.358  16.293  0.3158 -0.2917  0.1175
16507TIP3    H170936   2.047   6.267  16.292 -1.2398  0.1747 -1.4590
16507TIP3    H270937   2.044   6.394  16.210  1.3891  1.5413  0.4634
16508TIP3   OH270938   5.950   2.623  10.697 -0.1590 -0.1235  0.2535
16508TIP3    H170939   5.982   2.714  10.696 -0.4147 -0.0353 -1.0567
16508TIP3    H270940   6.021   2.573  10.658  1.0345 -0.8824  3.2512
16509TIP3   OH270941   3.907   3.777  14.070 -0.7167 -0.1837  0.2171
16509TIP3    H170942   3.943   3.793  13.983 -0.7606 -0.1865  0.1983
16509TIP3    H270943   3.867   3.690  14.064 -0.6319 -0.2266  0.2696
16510TIP3   OH270944   2.524   5.466  14.213 -0.4623  0.2602  0.1649
16510TIP3    H170945   2.477   5.509  14.142 -0.2362 -1.3640 -0.9869
16510TIP3    H270946   2.490   5.377  14.214  1.3589 -0.4616  0.4338
16511TIP3   OH270947   0.919   4.451   5.280  0.3534 -0.0133  0.4100
16511TIP3    H170948   0.991   4.388   5.275 -0.0024 -0.4429  0.6145
16511TIP3    H270949   0.928   4.504   5.200  0.3878 -0.6185  0.0064
16512TIP3   OH270950   3.951   1.809  13.568  0.1348 -0.1241  0.1626
16512TIP3    H170951   3.904   1.836  13.647  0.8738  0.4558  0.4026
16512TIP3    H270952   4.043   1.819  13.590  0.4269 -2.1106  0.0010
16513TIP3   OH270953   4.980   2.980   2.578  0.3786 -0.2222  0.0790
16513TIP3    H170954   5.018   2.996   2.665  0.9903  1.9939 -0.5691
16513TIP3    H270955   5.046   2.928   2.532  0.8924  0.2388  0.2928
16514TIP3   OH270956   4.817   1.035  14.125 -0.3645  0.3445 -0.3352
16514TIP3    H170957   4.880   0.991  14.183  0.6265 -1.1677 -2.4709
16514TIP3    H270958   4.858   1.120  14.106  1.1522 -0.7009 -1.8527
16515TIP3   OH270959   3.421   4.052   4.820 -0.2466  0.4001  0.2223
16515TIP3    H170960   3.513   4.025   4.815  0.5929  2.8827  1.3330
16515TIP3    H270961   3.390   4.049   4.729  1.0859  0.0390 -0.2353
16516TIP3   OH270962   1.509   4.828   0.215  0.0515 -0.4976 -0.1861
16516TIP3    H170963   1.569   4.880   0.268 -0.2972 -0.7158  0.4359
16516TIP3    H270964   1.528   4.737   0.238 -0.4123 -0.5742 -0.0948
16517TIP3   OH270965   1.148   0.166  11.760 -0.1815 -0.1798 -0.2452
16517TIP3    H170966   1.074   0.198  11.708 -1.0245 -1.2686  0.2432
16517TIP3    H270967   1.123   0.077  11.784  1.3596 -0.6057 -0.1704
16518TIP3   OH270968   4.522   1.092   3.261 -0.4045  0.2691  0.0372
16518TIP3    H170969   4.517   1.017   3.320  2.2653  0.1944  0.2205
16518TIP3    H270970   4.521   1.168   3.318  1.5376  0.2175  0.1457
16519TIP3   OH270971   6.187   5.477  16.426  0.1566  0.1749 -0.1108
16519TIP3    H170972   6.241   5.552  16.403 -2.3384  2.7097  1.8806
16519TIP3    H270973   6.124   5.512  16.489 -1.9442 -3.2883 -0.1736
16520TIP3   OH270974   4.390   3.170   4.740 -0.0586 -0.4396  0.5610
16520TIP3    H170975   4.344   3.094   4.705  0.4376 -0.9361  0.9641
16520TIP3    H270976   4.463   3.133   4.790 -0.8266  0.2437  2.2296
16521TIP3   OH270977   0.532   0.983  14.026  0.3086  0.4371  0.0787
16521TIP3    H170978   0.589   0.942  13.961 -0.7233 -1.3040  0.2491
16521TIP3    H270979   0.564   1.073  14.032  1.4105  0.1921 -1.6901
16522TIP3   OH270980   1.868   1.296  12.588 -0.8750  0.6699  0.3502
16522TIP3    H170981   1.795   1.240  12.613  0.8341 -0.7502  2.4081
16522TIP3    H270982   1.904   1.255  12.510  0.4593 -1.2766  1.9254
16523TIP3   OH270983   3.145   4.584   2.834 -0.0756  0.1109 -0.0783
16523TIP3    H170984   3.150   4.512   2.771 -0.3713  0.4455 -0.4815
16523TIP3    H270985   3.069   4.635   2.807 -0.6936 -0.2012  1.0329
16524TIP3   OH270986   0.145   1.419   3.010  0.2678  0.2236 -0.6150
16524TIP3    H170987   0.071   1.421   2.950  0.3169  0.1325 -0.6785
16524TIP3    H270988   0.171   1.327   3.014  0.0158  0.1694 -0.1477
16525TIP3   OH270989   6.468   3.201  13.061  0.3015 -0.7615 -0.3299
16525TIP3    H170990   6.413   3.272  13.094 -0.0219 -0.8860 -0.5997
16525TIP3    H270991   6.557   3.236  13.066  0.4984 -1.4847  2.5939
16526TIP3   OH270992   3.695   5.737  15.284 -0.5954 -0.1143  0.4527
16526TIP3    H170993   3.760   5.763  15.219 -0.6133 -0.6159  0.2319
16526TIP3    H270994   3.676   5.817  15.332 -0.9662  0.3869 -0.4974
16527TIP3   OH270995   1.957   0.101   3.128 -0.0482 -0.0164 -0.0427
16527TIP3    H170996   1.932   0.008   3.124 -0.7904  0.2027 -0.5790
16527TIP3    H270997   1.980   0.115   3.220  0.3433 -0.8020 -0.0113
16528TIP3   OH270998   5.779   2.870   0.720  0.8240  0.1990 -0.2852
16528TIP3    H170999   5.810   2.936   0.658  2.5986 -1.4101 -1.1613
16528TIP3    H271000   5.684   2.865   0.704  0.4934  3.1838  0.4842
16529TIP3   OH271001   6.362   4.975   4.523 -0.1027 -0.0679  0.2416
16529TIP3    H171002   6.291   4.960   4.459  0.6018 -1.0394 -0.3177
16529TIP3    H271003   6.359   4.899   4.580  2.0727 -1.3173 -1.2759
16530TIP3   OH271004   1.998   2.105   6.459 -0.2833 -0.5333  0.2421
16530TIP3    H171005   2.088   2.133   6.476 -0.3802 -0.1257  0.0947
16530TIP3    H271006   1.947   2.187   6.457 -0.8061 -0.8230  1.2087
16531TIP3   OH271007   6.302   6.339   6.611 -0.0349  0.2198 -0.2336
16531TIP3    H171008   6.264   6.257   6.578  0.5752 -0.3188  0.3938
16531TIP3    H271009   6.251   6.359   6.690  0.9835 -0.5252  0.6325
16532TIP3   OH271010   6.328   5.952  11.839 -0.2269  0.1656 -0.3289
16532TIP3    H171011   6.418   5.927  11.816 -0.5180 -0.3198 -0.9359
16532TIP3    H271012   6.295   5.878  11.890  0.4778  1.3122  1.8647
16533TIP3   OH271013   0.858   1.449  13.706  0.4473  0.0721  0.3058
16533TIP3    H171014   0.785   1.395  13.676  0.6385 -0.3113  0.5283
16533TIP3    H271015   0.821   1.536  13.718  0.4368  0.3135 -1.3910
16534TIP3   OH271016   3.767   5.418  13.354 -0.2257 -0.2701 -0.0258
16534TIP3    H171017   3.846   5.365  13.343  0.6816  0.8958  0.8255
16534TIP3    H271018   3.798   5.508  13.346 -1.0223  0.3011  3.0484
16535TIP3   OH271019   3.738   3.949  16.757 -0.0770 -0.5751 -0.5365
16535TIP3    H171020   3.714   3.857  16.766 -1.6345 -0.0933  0.5502
16535TIP3    H271021   3.761   3.958  16.664  1.4698 -2.3500 -0.3477
16536TIP3   OH271022   3.236   6.512   1.142  0.4040 -0.1481  0.0342
16536TIP3    H171023   3.293   6.467   1.079  1.2063 -0.7242  1.1542
16536TIP3    H271024   3.297   6.554   1.203 -0.3599  1.3035 -0.1936
16537TIP3   OH271025   2.939   1.377   4.255 -0.1684 -0.2128 -0.1674
16537TIP3    H171026   2.858   1.348   4.213 -0.5381  0.6026 -0.0287
16537TIP3    H271027   2.960   1.459   4.212  0.6390 -0.4685 -0.2654
16538TIP3   OH271028   5.132   2.761   5.884 -0.3588  0.6189 -0.2014
16538TIP3    H171029   5.102   2.728   5.969 -2.2496  1.0667 -0.6737
16538TIP3    H271030   5.120   2.856   5.890  1.1054  0.8246 -0.3733
16539TIP3   OH271031   0.005   0.130  13.163 -0.5266 -0.7440 -0.0229
16539TIP3    H171032  -0.027   0.117  13.253 -3.3081 -0.0558 -0.8874
16539TIP3    H271033   0.047   0.216  13.165 -2.6373  0.3211  0.1051
16540TIP3   OH271034   4.040   4.432   3.524 -0.7166  0.4398  0.3065
16540TIP3    H171035   4.125   4.425   3.481 -1.5084  0.0195 -1.2247
16540TIP3    H271036   3.978   4.449   3.453 -1.9472  0.4846  1.3675
16541TIP3   OH271037   2.754   4.150   1.687  0.1486  0.1905  0.0760
16541TIP3    H171038   2.749   4.088   1.614  0.9958 -0.0917  0.2479
16541TIP3    H271039   2.749   4.236   1.645  2.1929  0.0631 -0.4819
16542TIP3   OH271040   1.455   2.356   4.356  1.0005  0.2351 -0.2610
16542TIP3    H171041   1.404   2.414   4.299  0.1197  0.6312  0.9082
16542TIP3    H271042   1.393   2.328   4.424  1.5886 -1.5584 -0.4356
16543TIP3   OH271043   4.784   2.795   2.110  0.3101  0.7335 -0.0456
16543TIP3    H171044   4.768   2.875   2.160  0.6560 -0.2047  1.5886
16543TIP3    H271045   4.878   2.780   2.118  0.7388  1.7481 -2.8064
16544TIP3   OH271046   6.375   0.332   5.823  0.4711  0.1696  0.0235
16544TIP3    H171047   6.324   0.269   5.875 -1.2685  2.1078  0.7333
16544TIP3    H271048   6.442   0.279   5.780 -1.2264 -2.2325  0.2484
16545TIP3   OH271049   1.988   4.865   4.234 -0.0828  0.1511 -0.0605
16545TIP3    H171050   2.002   4.785   4.285  1.1994  0.0968 -0.4620
16545TIP3    H271051   1.918   4.911   4.279 -1.1800 -1.4463 -0.1173
16546TIP3   OH271052   3.231   4.595   4.558 -0.1610  0.1629 -0.7034
16546TIP3    H171053   3.208   4.582   4.466 -0.1743 -3.4132 -0.2901
16546TIP3    H271054   3.327   4.593   4.559 -0.0794  2.4630 -0.8691
16547TIP3   OH271055   3.411   0.038   3.637 -0.3939  0.4143  0.0442
16547TIP3    H171056   3.435   0.062   3.547  0.6989 -0.5382  0.0657
16547TIP3    H271057   3.448   0.107   3.691  0.6440 -0.0162 -0.0935
16548TIP3   OH271058   3.508   2.458  11.832  0.1842  0.3539  0.1759
16548TIP3    H171059   3.488   2.390  11.895 -0.9702 -0.0346 -0.5990
16548TIP3    H271060   3.520   2.537  11.884  0.1629 -0.1574  0.9530
16549TIP3   OH271061   4.546   6.190  14.441  0.5342 -1.0281 -0.1954
16549TIP3    H171062   4.566   6.245  14.517  0.4130 -0.3990 -0.6155
16549TIP3    H271063   4.455   6.210  14.420  0.7825 -0.6707 -0.9446
16550TIP3   OH271064   2.587   1.308  14.186 -0.1554  0.5818  0.3447
16550TIP3    H171065   2.522   1.323  14.254 -1.2333 -3.4636  0.3318
16550TIP3    H271066   2.670   1.298  14.233 -0.6512 -0.7748  0.9364
16551TIP3   OH271067   2.653   2.962   5.195  0.3059 -0.0245  0.1718
16551TIP3    H171068   2.608   2.920   5.121  0.0829  0.3785  0.0736
16551TIP3    H271069   2.733   2.997   5.158 -0.2972  1.0821 -0.1087
16552TIP3   OH271070   6.314   0.061   2.063  0.1523 -0.2654 -0.1657
16552TIP3    H171071   6.286   0.147   2.031  2.3890 -0.2256 -2.1074
16552TIP3    H271072   6.403   0.074   2.095  0.2251 -1.6855  0.2488
16553TIP3   OH271073   4.379   3.203  15.355  0.3424 -0.0292  0.0066
16553TIP3    H171074   4.319   3.221  15.284  0.3314  1.8942  0.4673
16553TIP3    H271075   4.359   3.113  15.382 -0.7439 -0.2018 -1.3304
16554TIP3   OH271076   1.455   4.454  13.450 -0.3972  0.2540  0.5271
16554TIP3    H171077   1.412   4.519  13.395 -1.1228  0.3098  1.1592
16554TIP3    H271078   1.426   4.370  13.414 -1.2620  0.2908  1.1234
16555TIP3   OH271079   1.828   0.510   3.343 -0.2358  0.0568 -0.6050
16555TIP3    H171080   1.822   0.432   3.288  0.9983 -0.4680 -0.0193
16555TIP3    H271081   1.756   0.501   3.406 -0.9583  0.1027 -1.4166
16556TIP3   OH271082   4.304   4.931   1.018  0.4518  0.5605  0.6193
16556TIP3    H171083   4.249   4.970   1.085 -0.9277 -0.6914  0.2367
16556TIP3    H271084   4.260   4.953   0.935  0.6739 -0.2244  0.2894
16557TIP3   OH271085   4.520   2.690   4.116 -0.3412  0.6583 -0.0185
16557TIP3    H171086   4.551   2.772   4.079  0.9974 -0.4513 -1.4508
16557TIP3    H271087   4.425   2.695   4.112 -0.2421  1.7075 -1.0276
16558TIP3   OH271088   3.854   4.430   1.292 -0.4356 -0.7161 -0.0850
16558TIP3    H171089   3.768   4.453   1.256  0.6037  0.3582 -2.0054
16558TIP3    H271090   3.836   4.365   1.359 -2.6879 -1.1085 -1.0301
16559TIP3   OH271091   5.993   6.750   1.417  0.5881 -0.2831  0.2946
16559TIP3    H171092   6.009   6.730   1.325 -2.2203 -1.1711 -0.0274
16559TIP3    H271093   5.978   6.665   1.458 -1.0097  0.3174  0.9913
16560TIP3   OH271094   0.315   4.077   3.511  0.6707  0.6431 -0.7943
16560TIP3    H171095   0.264   4.156   3.492 -1.7885 -0.6147  0.3898
16560TIP3    H271096   0.377   4.105   3.579 -1.8364  1.0071  1.4412
16561TIP3   OH271097   4.428   0.971   3.766  0.6065 -0.5286 -0.4950
16561TIP3    H171098   4.333   0.967   3.759  0.5040 -1.2964  1.1608
16561TIP3    H271099   4.448   0.939   3.854  2.3551  0.2686 -0.5683
16562TIP3   OH271100   2.486   5.799   5.995  0.5903  0.2465  0.7979
16562TIP3    H171101   2.493   5.893   6.008 -1.3114  0.3131  1.4268
16562TIP3    H271102   2.521   5.784   5.907 -1.6635  1.8892 -0.3979
16563TIP3   OH271103   5.827   5.849   2.466  0.6199  0.1296  0.5145
16563TIP3    H171104   5.892   5.872   2.532  0.8498 -1.5432  0.8944
16563TIP3    H271105   5.878   5.828   2.388  0.5874 -1.6088  0.9396
16564TIP3   OH271106   1.388   6.457  16.375  0.3644 -0.0547 -0.4592
16564TIP3    H171107   1.350   6.428  16.458 -1.5063  0.4825 -1.0821
16564TIP3    H271108   1.390   6.553  16.382  1.7765 -0.0897 -0.3729
16565TIP3   OH271109   3.469   2.321   4.249  0.1233 -0.2714  0.1625
16565TIP3    H171110   3.558   2.295   4.224 -0.8677 -2.0189 -1.6880
16565TIP3    H271111   3.435   2.366   4.172 -1.0524 -0.7712  0.3805
16566TIP3   OH271112   6.060   0.555   5.158  0.3063 -0.5917 -0.0570
16566TIP3    H171113   5.965   0.549   5.167  0.2023  0.4864 -0.2593
16566TIP3    H271114   6.094   0.550   5.247  0.0163 -0.4404  0.0621
16567TIP3   OH271115   3.116   6.565   3.375  0.0127  0.0685 -0.0925
16567TIP3    H171116   3.100   6.648   3.420 -0.8499 -1.4471  2.4389
16567TIP3    H271117   3.208   6.547   3.391  0.1021  0.3224 -0.3075
16568TIP3   OH271118   4.232   1.091   5.985 -0.0943  0.9579 -0.2826
16568TIP3    H171119   4.171   1.032   6.029 -1.4397  0.9546 -2.0597
16568TIP3    H271120   4.226   1.173   6.034 -2.3393  1.2771 -0.9847
16569TIP3   OH271121   0.863   5.949   5.883 -0.6647  0.3738  0.1091
16569TIP3    H171122   0.840   6.002   5.960 -0.1800  0.1401  0.4193
16569TIP3    H271123   0.957   5.933   5.892 -0.5068  0.7613 -0.8021
16570TIP3   OH271124   3.335   0.034   2.418  0.4393 -0.6681  0.1035
16570TIP3    H171125   3.410   0.022   2.359 -0.8639 -1.7077 -1.3835
16570TIP3    H271126   3.319   0.128   2.418  1.5939 -0.4597  0.2609
16571TIP3   OH271127   1.675   3.317  10.192  0.8655 -0.7227 -0.3608
16571TIP3    H171128   1.698   3.246  10.251  3.2140  0.1376 -0.2232
16571TIP3    H271129   1.748   3.379  10.197 -0.3383  0.8828 -1.7750
16572TIP3   OH271130   1.325   1.860   2.088  0.2167  0.6269 -0.5264
16572TIP3    H171131   1.280   1.776   2.081  1.5043 -0.0512 -0.8095
16572TIP3    H271132   1.264   1.923   2.051 -1.2041 -0.0084  0.6509
16573TIP3   OH271133   5.804   6.380   3.948 -0.6310 -0.3937  0.4708
16573TIP3    H171134   5.831   6.452   4.004 -0.6157 -1.0900  1.3692
16573TIP3    H271135   5.716   6.404   3.917 -0.8100 -0.2069  1.1354
16574TIP3   OH271136   5.838   3.793  11.854 -0.3134 -0.1977 -0.6744
16574TIP3    H171137   5.893   3.859  11.811 -0.9886  2.6330  2.6344
16574TIP3    H271138   5.897   3.719  11.869  1.4772  1.1140 -1.0482
16575TIP3   OH271139   5.531   3.402   0.585  0.3450 -0.1384 -0.2366
16575TIP3    H171140   5.494   3.332   0.639  1.4181  1.4138  2.6059
16575TIP3    H271141   5.465   3.472   0.588 -0.2420 -0.5670 -2.1959
16576TIP3   OH271142   4.164   1.960  13.325 -0.2154 -0.1968  0.0007
16576TIP3    H171143   4.166   2.053  13.350 -1.2113  0.7785 -3.2585
16576TIP3    H271144   4.256   1.936  13.314  0.0410  0.4493  0.6736
16577TIP3   OH271145   2.389   1.053   2.591 -0.0197  0.2050 -0.2664
16577TIP3    H171146   2.408   0.969   2.549 -1.0959  0.0701 -0.4978
16577TIP3    H271147   2.371   1.112   2.518 -3.2891 -0.3722  0.0192
16578TIP3   OH271148   3.402   1.366  14.833 -0.2608  0.2784  0.1723
16578TIP3    H171149   3.498   1.356  14.834 -0.2343  0.5669  1.1069
16578TIP3    H271150   3.378   1.374  14.925 -1.1701  0.4249 -0.0743
16579TIP3   OH271151   5.855   4.469   4.586  0.4468 -0.1721  0.5449
16579TIP3    H171152   5.829   4.509   4.503  1.1554  5.5016  2.8248
16579TIP3    H271153   5.790   4.401   4.602 -1.8556  1.1236 -2.8542
16580TIP3   OH271154   5.519   3.937  10.694 -0.2837  0.0477  0.1743
16580TIP3    H171155   5.599   3.906  10.736  1.0428 -1.5034 -3.2435
16580TIP3    H271156   5.533   4.031  10.683  1.5588 -0.3483 -1.2436
16581TIP3   OH271157   3.752   1.405  12.538  0.2886 -0.1096 -0.2488
16581TIP3    H171158   3.750   1.323  12.489  0.1201 -0.6041  0.5579
16581TIP3    H271159   3.700   1.386  12.617  0.1954  0.7929 -0.0861
16582TIP3   OH271160   3.209   0.182   2.790  0.3723 -0.3566  0.4561
16582TIP3    H171161   3.150   0.216   2.857 -0.0739 -0.5510  0.1634
16582TIP3    H271162   3.296   0.207   2.820  0.4059 -2.6247  2.4119
16583TIP3   OH271163   1.936   6.739  16.168  0.1876 -0.0776  0.3947
16583TIP3    H171164   1.937   6.692  16.251 -0.4220 -0.7989 -0.0008
16583TIP3    H271165   1.942   6.670  16.102 -1.0405  0.3692 -0.1941
16584TIP3   OH271166   5.880   0.885  14.179 -0.0515 -0.4130  0.6627
16584TIP3    H171167   5.802   0.869  14.231 -1.3587  0.0590 -1.1215
16584TIP3    H271168   5.897   0.802  14.135  2.1026 -1.3654  3.1444
16585TIP3   OH271169   2.834   5.397  12.527 -0.5288  0.0925 -0.1162
16585TIP3    H171170   2.874   5.471  12.573  2.4841 -1.9669  0.7120
16585TIP3    H271171   2.740   5.407  12.543  0.1272  1.5281  3.3252
16586TIP3   OH271172   3.483   5.789   1.549 -0.1824 -0.2455  0.3039
16586TIP3    H171173   3.473   5.860   1.486  0.4329 -1.7289 -1.5241
16586TIP3    H271174   3.502   5.833   1.632 -1.4431  1.7596 -0.4353
16587TIP3   OH271175   5.426   3.911  11.818 -0.4732  0.4682 -0.2040
16587TIP3    H171176   5.461   3.989  11.776  0.2965  0.3339  0.1672
16587TIP3    H271177   5.334   3.908  11.792 -0.9499  2.4286  1.1421
16588TIP3   OH271178   0.812   0.188  16.081  0.1812 -0.4676 -0.8583
16588TIP3    H171179   0.835   0.208  16.172  3.0743 -0.9149 -1.4504
16588TIP3    H271180   0.830   0.095  16.072  0.1043 -0.3826 -1.9310
16589TIP3   OH271181   2.760   6.764  10.543  0.3228 -0.0857 -0.0783
16589TIP3    H171182   2.852   6.787  10.528  0.8024 -1.7622  0.1651
16589TIP3    H271183   2.764   6.681  10.590 -1.3304 -0.1849 -0.0907
16590TIP3   OH271184   5.411   3.528  12.732 -0.2557 -0.0281  0.3150
16590TIP3    H171185   5.319   3.550  12.746 -0.2214  1.3628 -1.3958
16590TIP3    H271186   5.426   3.549  12.640  1.2389 -2.2255  0.0378
16591TIP3   OH271187   5.214   0.243  14.009  0.0893 -0.8056 -0.0509
16591TIP3    H171188   5.247   0.274  14.093  0.4048 -0.7518 -0.1894
16591TIP3    H271189   5.129   0.285  13.998  0.8179  0.5710 -0.5574
16592TIP3   OH271190   0.287   3.067  11.324  0.3200 -0.7054  0.2306
16592TIP3    H171191   0.251   3.079  11.236  1.2011 -0.9515 -0.1653
16592TIP3    H271192   0.250   3.139  11.374  0.4075 -0.1275 -0.5245
16593TIP3   OH271193   3.150   0.241   2.522 -0.2234 -1.1119 -0.1654
16593TIP3    H171194   3.238   0.262   2.555 -0.0816 -1.0366 -0.5964
16593TIP3    H271195   3.123   0.165   2.574 -0.5936 -0.1105  1.1511
16594TIP3   OH271196   0.738   0.478  11.656  0.7365  0.2702  0.1872
16594TIP3    H171197   0.806   0.488  11.723 -0.4923  0.5425  1.4214
16594TIP3    H271198   0.704   0.390  11.669 -1.9090  1.5112  2.3019
16595TIP3   OH271199   5.049   0.026   0.208 -0.1501 -1.3685  0.3329
16595TIP3    H171200   5.074   0.008   0.298 -1.3536 -1.0130  0.7511
16595TIP3    H271201   5.120  -0.010   0.155  1.3905 -0.1004  1.4842
16596TIP3   OH271202   6.108   0.448  15.940 -0.4645 -0.5848 -0.3182
16596TIP3    H171203   6.046   0.376  15.929 -0.1599 -1.0511  0.9743
16596TIP3    H271204   6.120   0.483  15.851 -1.3106 -1.5401 -0.8145
16597TIP3   OH271205   0.252   5.810   3.356 -0.3565 -0.2440 -0.4916
16597TIP3    H171206   0.347   5.806   3.347 -0.1341 -0.6073  1.7788
16597TIP3    H271207   0.235   5.899   3.387 -0.6853 -0.3962 -0.2260
16598TIP3   OH271208   6.384   5.841  14.624 -0.1350 -0.0997 -0.3570
16598TIP3    H171209   6.354   5.816  14.537 -0.9036  0.6933 -0.3236
16598TIP3    H271210   6.475   5.868  14.611  0.3713 -1.7956 -0.5777
16599TIP3   OH271211   2.044   3.184  10.995  0.8640  0.1963  0.0556
16599TIP3    H171212   1.985   3.117  10.959 -0.3450  0.5621  1.3283
16599TIP3    H271213   2.115   3.134  11.035  0.2346 -0.3133  0.5471
16600TIP3   OH271214   3.592   1.050  12.941 -0.4724  0.1560 -0.0477
16600TIP3    H171215   3.671   1.030  12.892 -0.9685  2.1086 -1.7350
16600TIP3    H271216   3.584   0.980  13.005  0.7918 -1.8986 -2.0753
16601TIP3   OH271217   5.780   1.651   2.571  0.2955 -0.0016  0.5173
16601TIP3    H171218   5.826   1.663   2.487 -0.9697  1.5778  0.0235
16601TIP3    H271219   5.839   1.692   2.635  2.6272 -3.6966  0.8846
16602TIP3   OH271220   3.622   3.460   5.233 -0.1739  0.0623 -0.2752
16602TIP3    H171221   3.573   3.471   5.315 -0.6168 -0.8670 -0.4048
16602TIP3    H271222   3.699   3.515   5.243  0.0200 -0.4266  0.9697
16603TIP3   OH271223   0.303   3.007   2.121 -0.1487 -0.9120 -0.2933
16603TIP3    H171224   0.256   2.924   2.116 -1.2065 -0.4049  0.7711
16603TIP3    H271225   0.368   2.993   2.190 -0.9195 -0.5905  0.5134
16604TIP3   OH271226   6.471   4.890  14.339 -0.2860  0.0510 -0.1888
16604TIP3    H171227   6.412   4.939  14.395 -0.4015  1.0295 -1.1552
16604TIP3    H271228   6.544   4.950  14.322  0.4444 -0.7469  0.0866
16605TIP3   OH271229   2.876   6.391  16.312 -0.5384 -0.2358  0.2351
16605TIP3    H171230   2.893   6.463  16.373  2.2835 -0.9524  0.3291
16605TIP3    H271231   2.835   6.324  16.366 -1.2433  0.4520  0.5806
16606TIP3   OH271232   6.521   4.213   3.770 -0.4675 -0.1000 -0.5885
16606TIP3    H171233   6.533   4.120   3.749 -1.9260 -0.3410 -0.4059
16606TIP3    H271234   6.448   4.241   3.715 -0.7573  0.6485  0.1689
16607TIP3   OH271235   4.532   3.115   0.631 -0.0857 -0.8280  0.0321
16607TIP3    H171236   4.442   3.136   0.605  0.0425 -1.9378 -1.4040
16607TIP3    H271237   4.577   3.199   0.635 -1.3399 -0.2071  1.3570
16608TIP3   OH271238   6.559   4.738  15.165  0.0109  0.2176 -0.2266
16608TIP3    H171239   6.566   4.650  15.129  1.0315 -0.2044  0.9849
16608TIP3    H271240   6.465   4.754  15.170 -0.1725 -0.6477 -0.8275
16609TIP3   OH271241   3.761   3.403   0.365  0.2505  0.4044  0.1918
16609TIP3    H171242   3.781   3.412   0.459  0.2235  1.7906  0.0758
16609TIP3    H271243   3.801   3.320   0.340  0.7386  0.2858  1.3189
16610TIP3   OH271244   6.130   1.283  13.882  0.4870 -0.7384  0.0628
16610TIP3    H171245   6.139   1.351  13.948 -0.9803  0.8036 -1.2849
16610TIP3    H271246   6.039   1.253  13.890 -0.4002  1.0078 -2.6456
16611TIP3   OH271247   3.867   1.772   5.124  0.3055 -0.6047  0.3754
16611TIP3    H171248   3.852   1.863   5.152 -0.7017 -1.0454  1.3143
16611TIP3    H271249   3.891   1.779   5.032 -0.2426  0.5899  0.3118
16612TIP3   OH271250   5.027   0.718   4.738 -0.0310  0.0860 -0.1527
16612TIP3    H171251   4.952   0.659   4.746 -0.6582  0.5926 -1.9770
16612TIP3    H271252   4.988   0.803   4.719  0.9884  0.4816 -0.5237
16613TIP3   OH271253   1.022   1.271  11.635  0.6742 -0.3673  0.2714
16613TIP3    H171254   0.931   1.299  11.649  0.1010 -2.2846  0.4770
16613TIP3    H271255   1.054   1.329  11.566  0.2267  2.2360  2.1582
16614TIP3   OH271256   4.126   5.970  16.435  0.0386  0.6193 -0.4235
16614TIP3    H171257   4.089   5.984  16.523  0.7043 -0.7684  0.0958
16614TIP3    H271258   4.065   6.014  16.376 -1.3078  0.1830  0.6082
16615TIP3   OH271259   4.337   0.570  17.231 -0.6300 -0.3132  0.2032
16615TIP3    H171260   4.304   0.488  17.193 -0.7019  0.1077 -0.6667
16615TIP3    H271261   4.274   0.636  17.203 -0.1676  0.1630  0.2788
16616TIP3   OH271262   6.658   1.879   0.334 -0.3098 -0.0279  0.1345
16616TIP3    H171263   6.637   1.934   0.259  1.8140  0.2569 -0.2599
16616TIP3    H271264   6.602   1.912   0.404 -1.2852  0.6161 -0.9308
16617TIP3   OH271265   3.695   2.953   2.426  0.7384 -0.3212  0.5720
16617TIP3    H171266   3.682   2.890   2.355  2.4938 -0.6574  0.5290
16617TIP3    H271267   3.782   2.990   2.410  0.3433  1.0277  1.4468
16618TIP3   OH271268   5.394   5.461   5.346  0.1651 -0.0226 -0.5071
16618TIP3    H171269   5.376   5.369   5.328 -0.8690 -0.0870  0.7549
16618TIP3    H271270   5.414   5.464   5.440 -2.0295  1.3206 -0.0312
16619TIP3   OH271271   4.754   1.072  15.404  0.0086  0.2054 -0.2659
16619TIP3    H171272   4.821   1.011  15.373  0.6075  2.5874 -3.9914
16619TIP3    H271273   4.803   1.131  15.462  0.1849 -0.6675  0.4885
16620TIP3   OH271274   3.112   3.450   0.617  0.0198  0.4220 -0.7621
16620TIP3    H171275   3.183   3.387   0.626  0.5384  0.9473 -1.0797
16620TIP3    H271276   3.088   3.446   0.524  0.8848  1.5616 -1.0456
16621TIP3   OH271277   6.371   3.149  12.003  0.4766  0.0959 -0.1577
16621TIP3    H171278   6.426   3.211  12.050  0.2406 -0.5404  0.9723
16621TIP3    H271279   6.322   3.103  12.071  0.3107 -1.0075 -0.9963
16622TIP3   OH271280   5.809   4.565  13.844  0.1656  0.2056  0.4819
16622TIP3    H171281   5.897   4.602  13.845  0.1230  0.3203 -0.2120
16622TIP3    H271282   5.786   4.557  13.937  1.9234 -2.2884  0.7503
16623TIP3   OH271283   6.534   1.918   5.268  0.6418 -0.3625 -0.0043
16623TIP3    H171284   6.610   1.875   5.228  2.4135 -0.2651  3.0661
16623TIP3    H271285   6.504   1.857   5.335 -0.2851  0.7624  0.6315
16624TIP3   OH271286   5.529   4.514  15.400  0.1874 -0.0776  0.3384
16624TIP3    H171287   5.433   4.505  15.401  0.1475  0.3580  0.2769
16624TIP3    H271288   5.544   4.607  15.388  0.6197  0.0871  2.0374
16625TIP3   OH271289   3.847   0.988  14.066  0.0061  0.3701  0.0754
16625TIP3    H171290   3.906   0.920  14.034  1.6586  0.6039  2.4588
16625TIP3    H271291   3.763   0.969  14.024  0.6843 -2.5685 -0.0598
16626TIP3   OH271292   0.740   2.410  16.072  0.6464  0.1984  0.0573
16626TIP3    H171293   0.798   2.335  16.056  0.3191  0.1465 -0.9259
16626TIP3    H271294   0.679   2.379  16.139  2.5561  0.6944  2.0724
16627TIP3   OH271295   1.072   0.252  10.578  0.3940  0.0277  0.7745
16627TIP3    H171296   1.101   0.170  10.617 -0.3228  0.1307  1.5288
16627TIP3    H271297   1.109   0.320  10.634  1.9456  0.2723 -0.4891
16628TIP3   OH271298   2.615   1.009  14.700 -0.5386  0.4485  0.4806
16628TIP3    H171299   2.564   1.046  14.771 -1.3838  0.4912 -0.1330
16628TIP3    H271300   2.557   1.015  14.624 -0.2796 -1.1038  0.1424
16629TIP3   OH271301   2.670   1.729  10.969 -0.4063  0.0525  0.5352
16629TIP3    H171302   2.624   1.683  11.039 -1.0272 -1.2372 -0.6983
16629TIP3    H271303   2.601   1.760  10.911  0.1769 -0.2984 -0.3539
16630TIP3   OH271304   1.840   5.683  16.277  0.6787 -0.0615  0.3338
16630TIP3    H171305   1.830   5.778  16.266 -0.4754 -0.0006  1.7004
16630TIP3    H271306   1.848   5.649  16.187  2.0448  1.4045 -0.1222
16631TIP3   OH271307   4.866   0.298  11.555 -0.4376 -0.7912 -0.5151
16631TIP3    H171308   4.957   0.286  11.525 -0.2772 -0.3080 -0.2212
16631TIP3    H271309   4.873   0.305  11.650 -0.9537 -2.4099 -0.3425
16632TIP3   OH271310   2.087   3.777   4.480 -0.1897  0.8979  0.1978
16632TIP3    H171311   2.151   3.846   4.463  1.5660 -0.7106  0.1407
16632TIP3    H271312   2.140   3.700   4.504 -2.1286 -0.1809  1.1777
16633TIP3   OH271313   5.208   2.385   0.716  0.1671  0.3472  0.2575
16633TIP3    H171314   5.163   2.469   0.706 -0.4385  0.0810  0.6729
16633TIP3    H271315   5.272   2.400   0.786 -0.8147  0.1251  1.2248
16634TIP3   OH271316   1.091   1.950  14.176 -0.0210 -0.1316 -0.4632
16634TIP3    H171317   1.021   1.939  14.240  0.0136  1.5460 -0.1093
16634TIP3    H271318   1.050   1.934  14.091 -0.5028 -0.5179 -0.1584
16635TIP3   OH271319   2.521   0.763   6.005  0.6319  0.3162 -0.5715
16635TIP3    H171320   2.448   0.704   6.022 -0.5789  1.7771 -0.5820
16635TIP3    H271321   2.594   0.725   6.054 -0.1731 -1.0615 -0.4012
16636TIP3   OH271322   1.493   3.893  13.470  0.0246 -0.2702 -0.1087
16636TIP3    H171323   1.569   3.835  13.465  0.0917 -0.2643  0.7332
16636TIP3    H271324   1.431   3.846  13.526 -0.2652  0.0865 -0.1291
16637TIP3   OH271325   5.513   3.890  14.457 -0.5293 -0.2070  0.7378
16637TIP3    H171326   5.421   3.915  14.447 -0.2704 -0.1238 -1.6090
16637TIP3    H271327   5.510   3.812  14.513 -2.1213 -0.9052 -0.2780
16638TIP3   OH271328   3.530   0.280   1.666  0.0200  0.3815  0.4832
16638TIP3    H171329   3.610   0.320   1.701 -0.5880  1.3615  0.7693
16638TIP3    H271330   3.496   0.228   1.738  1.3466 -1.5113 -0.1990
16639TIP3   OH271331   3.110   1.441   1.970 -0.0602  0.0819  0.7217
16639TIP3    H171332   3.147   1.510   1.916 -1.0547  0.3719  0.3995
16639TIP3    H271333   3.017   1.438   1.946 -0.0810 -1.2078  0.8867
16640TIP3   OH271334   0.479   3.122  13.635 -0.6825  0.2373  0.1528
16640TIP3    H171335   0.473   3.145  13.543  0.4922  1.7705  0.4371
16640TIP3    H271336   0.555   3.172  13.667 -0.2897 -1.2729  1.6425
16641TIP3   OH271337   3.261   6.612  17.000 -0.1599  0.3417  0.7164
16641TIP3    H171338   3.241   6.651  17.085 -0.2295  1.7098  0.0846
16641TIP3    H271339   3.241   6.681  16.936  1.7472  0.0141 -0.2844
16642TIP3   OH271340   1.707   0.164   2.149 -0.3953  0.6536 -0.3017
16642TIP3    H171341   1.725   0.158   2.055 -2.6083 -1.1629 -0.6679
16642TIP3    H271342   1.729   0.077   2.183  1.6070  1.6716  1.1405
16643TIP3   OH271343   5.794   2.110  13.913  0.1970  0.0275  0.2836
16643TIP3    H171344   5.713   2.060  13.924 -0.3706  0.4678 -1.7237
16643TIP3    H271345   5.859   2.046  13.885  0.0012  0.0479 -0.2150
16644TIP3   OH271346   2.761   0.939   3.788 -0.2102 -0.4695  0.5034
16644TIP3    H171347   2.674   0.962   3.821  0.4905  0.0418  2.0861
16644TIP3    H271348   2.775   0.850   3.820 -0.2320 -0.6253  0.0774
16645TIP3   OH271349   5.914   6.292   3.066  0.0852  0.5599 -0.4515
16645TIP3    H171350   5.951   6.293   3.155  0.5433  0.7032 -0.6394
16645TIP3    H271351   5.951   6.213   3.026  0.1110  0.6508 -0.6087
16646TIP3   OH271352   1.835   6.756   2.806 -0.5912 -0.2921 -0.2656
16646TIP3    H171353   1.825   6.843   2.767 -1.2835  0.0070  0.5559
16646TIP3    H271354   1.925   6.754   2.839 -0.7779  0.3541  0.2911
16647TIP3   OH271355   0.650   1.937  15.236  0.7226 -0.4799 -0.1059
16647TIP3    H171356   0.678   1.980  15.155  0.1499  0.8181  0.3654
16647TIP3    H271357   0.581   1.994  15.271  1.3872 -0.6826  1.6156
16648TIP3   OH271358   5.709   5.213  15.312 -0.7340  0.7272  0.0869
16648TIP3    H171359   5.689   5.304  15.293  2.0330  1.3302 -0.0788
16648TIP3    H271360   5.676   5.165  15.236  0.0076  1.8728 -0.9846
16649TIP3   OH271361   0.539   2.498   0.498 -0.0963  0.4745 -0.0316
16649TIP3    H171362   0.450   2.473   0.522 -0.4744  2.6878  1.0035
16649TIP3    H271363   0.549   2.468   0.408 -1.1126 -1.7639  0.5813
16650TIP3   OH271364   4.031   0.097   5.963 -0.4385  0.2611  0.0003
16650TIP3    H171365   4.063   0.055   6.043 -1.4757 -1.8802 -0.6805
16650TIP3    H271366   3.938   0.111   5.978 -0.8626 -1.1448 -1.2403
16651TIP3   OH271367   1.100   2.820   2.769  0.2616 -0.3051 -0.0898
16651TIP3    H171368   1.007   2.798   2.774  0.2659 -0.0655  1.3573
16651TIP3    H271369   1.127   2.828   2.860  1.1582  1.9043 -0.5224
16652TIP3   OH271370   2.192   0.235   6.483 -0.0996  0.4631  0.0680
16652TIP3    H171371   2.187   0.174   6.556 -1.9551  0.2107 -0.2328
16652TIP3    H271372   2.255   0.301   6.510 -0.7558  0.3622  1.8857
16653TIP3   OH271373   4.487   1.173  16.029  0.3205  0.7288 -0.4334
16653TIP3    H171374   4.449   1.245  16.079  1.5892  1.2577 -0.2222
16653TIP3    H271375   4.444   1.178  15.943 -0.0535  1.3295 -0.2117
16654TIP3   OH271376   6.475   4.602  14.359  0.1138  0.1464  0.2150
16654TIP3    H171377   6.392   4.598  14.311  1.6394 -2.1732 -2.4179
16654TIP3    H271378   6.511   4.688  14.338 -0.4458  0.1648 -0.6897
16655TIP3   OH271379   1.144   4.285   1.685 -0.0463  0.4184  0.2553
16655TIP3    H171380   1.074   4.261   1.745 -0.0623  1.6631  0.7492
16655TIP3    H271381   1.164   4.204   1.638 -0.2647 -0.4972  1.7017
16656TIP3   OH271382   4.313   5.064   4.115 -0.0354 -0.0921  0.0040
16656TIP3    H171383   4.286   5.012   4.190  0.3139 -1.7303 -0.9864
16656TIP3    H271384   4.236   5.064   4.057 -0.4923  1.6153  0.5782
16657TIP3   OH271385   0.406   1.174  10.748  0.1709  0.0152 -0.1791
16657TIP3    H171386   0.494   1.138  10.732 -0.4823 -1.7170 -0.0140
16657TIP3    H271387   0.417   1.234  10.821  1.1205 -0.6486  0.2355
16658TIP3   OH271388   5.242   1.868  15.201 -0.4491 -0.3335  0.1500
16658TIP3    H171389   5.189   1.832  15.272 -1.2984 -0.7204 -0.6473
16658TIP3    H271390   5.185   1.859  15.124  0.4314  0.1256 -0.5517
16659TIP3   OH271391   2.389   5.366   5.663 -0.1205  0.3527 -0.2144
16659TIP3    H171392   2.429   5.285   5.695 -0.9376 -0.1086 -0.3451
16659TIP3    H271393   2.458   5.432   5.672  0.3528 -0.2249  0.4810
16660TIP3   OH271394   5.426   3.238  11.603 -0.6305  0.3218 -0.6006
16660TIP3    H171395   5.431   3.204  11.514  3.4644 -0.2817 -0.2659
16660TIP3    H271396   5.497   3.302  11.608  0.3280 -0.8885  2.6737
16661TIP3   OH271397   3.372   2.539   2.668 -0.1120  0.5338  0.2240
16661TIP3    H171398   3.283   2.562   2.641 -0.1928  1.5755  1.3558
16661TIP3    H271399   3.369   2.534   2.763  0.4730 -1.9187  0.1528
16662TIP3   OH271400   2.231   1.587  14.977  0.0832  0.4521 -0.1070
16662TIP3    H171401   2.289   1.661  14.958  1.5369 -0.5100  0.5441
16662TIP3    H271402   2.268   1.514  14.927 -1.7808  0.3125 -1.3608
16663TIP3   OH271403   5.283   3.726   4.800  0.1643  0.2131  0.2971
16663TIP3    H171404   5.271   3.657   4.866 -1.1464 -0.1953 -0.3484
16663TIP3    H271405   5.200   3.774   4.800 -0.8024 -1.3314 -2.7754
16664TIP3   OH271406   3.665   1.521  17.034  0.0463  0.6150  0.5323
16664TIP3    H171407   3.717   1.595  17.065  1.4262 -0.0111 -0.2809
16664TIP3    H271408   3.585   1.561  16.999 -0.2798  1.5308  2.2737
16665TIP3   OH271409   3.444   2.487   4.474  0.7061 -0.1408 -0.2466
16665TIP3    H171410   3.421   2.455   4.387  1.1982  0.3940 -0.5765
16665TIP3    H271411   3.488   2.414   4.516 -1.0841 -1.0013  0.1957
16666TIP3   OH271412   2.737   4.190   0.998 -0.0653  0.5696 -0.1956
16666TIP3    H171413   2.817   4.169   0.949  1.1780  0.0780  1.9813
16666TIP3    H271414   2.760   4.175   1.089 -2.3550  1.4295  0.5615
16667TIP3   OH271415   2.558   2.310   3.977 -0.2462  0.3031  0.2776
16667TIP3    H171416   2.504   2.247   4.023 -0.6205  0.7504  0.4548
16667TIP3    H271417   2.514   2.394   3.989  0.9852  0.8279  1.2367
16668TIP3   OH271418   1.860   3.610   1.903 -0.2636 -0.4441 -0.8042
16668TIP3    H171419   1.884   3.669   1.831 -0.5823  0.3266 -0.2779
16668TIP3    H271420   1.942   3.565   1.924  0.0518  0.0234 -1.0111
16669TIP3   OH271421   1.730   0.347   4.950  0.2109 -0.0850 -0.5711
16669TIP3    H171422   1.681   0.333   4.869 -1.6792 -1.5073  0.7677
16669TIP3    H271423   1.814   0.305   4.934 -0.2009 -0.5015 -1.7347
16670TIP3   OH271424   4.987   5.644   4.443 -0.7246 -0.3711  0.2809
16670TIP3    H171425   5.062   5.675   4.391 -1.5476  1.4847  0.1617
16670TIP3    H271426   4.994   5.692   4.525 -0.8254 -1.4822  0.9472
16671TIP3   OH271427   4.550   0.916   3.052  0.1638  0.0607 -0.4945
16671TIP3    H171428   4.542   0.987   3.115 -0.4921 -0.8137  0.4289
16671TIP3    H271429   4.613   0.856   3.092 -0.4105 -0.6012 -0.5810
16672TIP3   OH271430   1.771   3.266  15.781 -0.3039 -0.6093 -0.3700
16672TIP3    H171431   1.821   3.344  15.805 -0.2912 -1.5971  3.1850
16672TIP3    H271432   1.693   3.299  15.736  0.0493  1.4248  0.4709
16673TIP3   OH271433   4.301   1.662  12.744  0.3061  0.2731  0.3139
16673TIP3    H171434   4.255   1.579  12.731  1.3516 -0.1349 -0.8718
16673TIP3    H271435   4.342   1.681  12.659  0.6564  1.6408  0.7760
16674TIP3   OH271436   1.160   5.187  12.411 -0.0046  0.1805 -0.0959
16674TIP3    H171437   1.118   5.120  12.464  0.2165 -0.4764 -0.7386
16674TIP3    H271438   1.096   5.207  12.343 -0.0405  0.5612  0.0516
16675TIP3   OH271439   6.341   4.696   5.049  0.6268 -0.0629 -0.6951
16675TIP3    H171440   6.357   4.687   5.143 -0.4525  0.3828 -0.4702
16675TIP3    H271441   6.412   4.646   5.009  0.4472 -1.2211  0.3807
16676TIP3   OH271442   1.190   5.766  15.409  0.6047 -0.4819 -0.1828
16676TIP3    H171443   1.164   5.770  15.501  0.1648  0.3090 -0.3360
16676TIP3    H271444   1.120   5.715  15.367  0.6561 -0.5982 -0.1275
16677TIP3   OH271445   6.111   6.570   1.596 -0.2983  0.1913 -0.4135
16677TIP3    H171446   6.131   6.578   1.690 -0.4303  1.0440 -0.4602
16677TIP3    H271447   6.188   6.604   1.552 -0.8909  1.2915 -0.6057
16678TIP3   OH271448   3.458   5.621   3.378 -0.3269 -0.6543  0.6370
16678TIP3    H171449   3.545   5.596   3.408 -0.6082 -2.0071  0.3352
16678TIP3    H271450   3.398   5.581   3.442 -0.8049 -1.2893 -0.2014
16679TIP3   OH271451   4.262   3.400   4.650  0.0015  0.3399  0.6037
16679TIP3    H171452   4.200   3.422   4.719 -1.5696  0.3193 -0.7794
16679TIP3    H271453   4.297   3.314   4.676 -3.8807 -1.8014 -0.7907
16680TIP3   OH271454   0.936   4.455  16.212  0.6256  0.5730 -0.3801
16680TIP3    H171455   0.900   4.449  16.123  0.4813  0.9406 -0.3468
16680TIP3    H271456   1.009   4.393  16.213 -0.3924 -0.6571 -0.2710
16681TIP3   OH271457   0.896   5.500   0.078 -0.0326 -0.1766  0.1121
16681TIP3    H171458   0.986   5.531   0.066  0.2576 -1.3333 -0.7651
16681TIP3    H271459   0.853   5.519  -0.006 -0.8035  0.9957  0.7607
16682TIP3   OH271460   4.482   2.016  13.869  0.5484  0.3726 -0.1205
16682TIP3    H171461   4.523   2.083  13.814 -1.7765  1.1138 -1.0082
16682TIP3    H271462   4.417   2.064  13.922  0.2035 -0.8885  0.6228
16683TIP3   OH271463   6.598   5.939   3.122  0.4790  0.4742 -0.5227
16683TIP3    H171464   6.676   5.934   3.176 -0.8327 -0.3160  1.3356
16683TIP3    H271465   6.570   6.031   3.129  1.5726  0.9114 -1.7037
16684TIP3   OH271466   5.466   5.265   3.223 -0.2378  0.3368  0.0251
16684TIP3    H171467   5.472   5.339   3.163 -0.9672 -0.1950 -0.7107
16684TIP3    H271468   5.530   5.202   3.190  0.6677  0.7944  0.8836
16685TIP3   OH271469   2.689   3.069  10.765 -0.8332  0.2997 -0.0943
16685TIP3    H171470   2.701   2.979  10.795 -0.8243  0.8492  1.6334
16685TIP3    H271471   2.778   3.103  10.756 -0.8513  0.4842  0.3938
16686TIP3   OH271472   0.711   0.914   3.338  0.4458 -0.0377  0.5414
16686TIP3    H171473   0.744   0.879   3.255 -0.1610 -0.7185  0.5757
16686TIP3    H271474   0.633   0.861   3.356  0.9659 -0.3582  1.8902
16687TIP3   OH271475   0.266   1.551   4.913  0.8126 -0.1871  0.1262
16687TIP3    H171476   0.222   1.479   4.869  1.1400 -0.3836  0.1148
16687TIP3    H271477   0.255   1.626   4.855  1.5192 -0.5199 -0.4497
16688TIP3   OH271478   1.721   0.770  14.289  0.6030 -0.0361 -0.1068
16688TIP3    H171479   1.800   0.719  14.271  0.7838 -0.0805  0.7817
16688TIP3    H271480   1.655   0.704  14.311  0.6242  0.0618  0.2576
16689TIP3   OH271481   6.366   1.173  13.332 -0.2692 -0.3853 -0.0560
16689TIP3    H171482   6.415   1.128  13.401  1.6903 -1.7638 -2.2442
16689TIP3    H271483   6.295   1.113  13.310  0.4877 -1.0387 -0.7960
16690TIP3   OH271484   5.277   6.738  13.546 -0.2061 -0.0952 -0.1139
16690TIP3    H171485   5.267   6.813  13.603 -0.4928  0.0248 -0.3260
16690TIP3    H271486   5.199   6.738  13.491  0.7366  0.6148 -1.4767
16691TIP3   OH271487   6.570   1.893   2.735 -0.4833  0.5281  0.3148
16691TIP3    H171488   6.540   1.897   2.644  0.3523  0.0681  0.0175
16691TIP3    H271489   6.527   1.816   2.771  0.3213 -0.1295 -0.1121
16692TIP3   OH271490   2.538   0.636   0.473 -0.1347 -0.5367  0.1240
16692TIP3    H171491   2.582   0.644   0.388  2.1225 -2.9482  0.9862
16692TIP3    H271492   2.599   0.676   0.535 -0.1055 -1.9592  1.0446
16693TIP3   OH271493   2.938   6.635   0.110 -0.5366  0.0749  0.3933
16693TIP3    H171494   2.905   6.582   0.037 -0.6603  0.6753  0.0151
16693TIP3    H271495   2.859   6.667   0.154 -0.4828 -1.6286  1.7816
16694TIP3   OH271496   4.656   1.065   2.352  0.3336 -0.3227  0.4797
16694TIP3    H171497   4.606   1.091   2.275  1.3606 -1.2689 -0.5244
16694TIP3    H271498   4.702   1.145   2.379  2.7759 -0.7584 -2.0533
16695TIP3   OH271499   3.362   5.456  13.367 -0.3020 -0.1041 -0.4304
16695TIP3    H171500   3.274   5.489  13.383 -0.0617  0.8947 -1.1603
16695TIP3    H271501   3.417   5.505  13.429 -0.3588 -1.2475  0.5357
16696TIP3   OH271502   0.478   1.864  12.672  0.0668  0.4956  0.2728
16696TIP3    H171503   0.461   1.792  12.611  0.1845  1.2633 -0.6932
16696TIP3    H271504   0.530   1.824  12.742  1.1013 -0.1354 -0.8124
16697TIP3   OH271505   5.175   3.871  15.941 -0.0319 -0.2159 -0.0254
16697TIP3    H171506   5.149   3.837  15.855 -0.6918  0.4762 -0.0992
16697TIP3    H271507   5.095   3.907  15.979  0.5717  0.9212  0.2058
16698TIP3   OH271508   6.207   0.012  11.500 -0.0884  0.1074 -0.1223
16698TIP3    H171509   6.292   0.045  11.470 -0.7552  1.8016 -0.2336
16698TIP3    H271510   6.151   0.014  11.422  0.4289 -3.5053 -0.6827
16699TIP3   OH271511   5.370   3.447   2.630 -0.4724  1.0032  0.3395
16699TIP3    H171512   5.399   3.485   2.713  1.4661 -1.0893  0.7019
16699TIP3    H271513   5.435   3.476   2.566  0.5046 -0.8059  0.4468
16700TIP3   OH271514   1.372   0.800   2.708 -0.5377  0.2496  0.3794
16700TIP3    H171515   1.399   0.876   2.657  1.9783 -0.3988  0.6873
16700TIP3    H271516   1.289   0.774   2.670 -0.2353  1.6756 -1.3107
16701TIP3   OH271517   6.176   0.567   5.714 -0.0961 -0.2558  0.2765
16701TIP3    H171518   6.137   0.482   5.732 -0.0687 -0.2388  0.4172
16701TIP3    H271519   6.113   0.630   5.748 -0.4425 -0.2033 -0.4625
16702TIP3   OH271520   3.835   4.968  14.543 -0.1712 -0.2701  0.3935
16702TIP3    H171521   3.863   5.028  14.473 -0.1518  0.3791  0.9495
16702TIP3    H271522   3.888   4.889  14.529 -1.3413 -0.7910 -1.3079
16703TIP3   OH271523   4.173   4.855   2.112  0.0846 -0.1795 -0.4543
16703TIP3    H171524   4.086   4.852   2.073  0.1413 -0.2949 -0.5690
16703TIP3    H271525   4.172   4.933   2.167  0.0374  0.0271 -0.7527
16704TIP3   OH271526   6.188   1.702  16.158 -0.3602 -0.2675 -0.3290
16704TIP3    H171527   6.134   1.639  16.110 -0.7508  0.9545 -1.5494
16704TIP3    H271528   6.181   1.676  16.250 -0.6326 -1.8932 -0.8021
16705TIP3   OH271529   6.500   0.478   4.203  0.5762  0.3801  0.5981
16705TIP3    H171530   6.496   0.545   4.134 -0.6300  0.9243  1.1845
16705TIP3    H271531   6.581   0.429   4.184  0.6800  1.0341 -0.7227
16706TIP3   OH271532   6.190   5.373   5.138  0.1971  0.1155  0.1082
16706TIP3    H171533   6.257   5.353   5.073  1.8079  1.4482  1.3269
16706TIP3    H271534   6.196   5.301   5.201  1.0199  0.6239  0.6214
16707TIP3   OH271535   0.390   0.938   1.418 -0.3971  0.6749 -0.1547
16707TIP3    H171536   0.344   0.905   1.341 -1.3963  1.1888  0.2144
16707TIP3    H271537   0.441   0.863   1.449 -1.2442  0.0029 -0.3667
16708TIP3   OH271538   1.444   3.173   4.022 -0.2076  0.0649  0.1297
16708TIP3    H171539   1.404   3.110   4.082  0.5505  0.7973  1.4227
16708TIP3    H271540   1.535   3.144   4.014 -0.3990 -0.2720 -1.0169
16709TIP3   OH271541   4.866   5.144  12.801 -0.1539 -0.4622  0.2034
16709TIP3    H171542   4.943   5.199  12.817 -0.6659  0.3233 -0.0009
16709TIP3    H271543   4.809   5.161  12.875 -0.1192 -1.0682  0.3695
16710TIP3   OH271544   5.296   4.662  11.033 -0.2619  0.0487 -0.6723
16710TIP3    H171545   5.296   4.566  11.028  4.1518 -0.0583 -0.3452
16710TIP3    H271546   5.277   4.690  10.943  0.9642 -1.1681 -1.3253
16711TIP3   OH271547   2.775   0.800   3.521 -0.5019  0.1841  0.1846
16711TIP3    H171548   2.748   0.829   3.608 -4.8706  1.9918 -1.6140
16711TIP3    H271549   2.704   0.742   3.491  1.4280 -1.2822 -1.7786
16712TIP3   OH271550   2.317   1.314  15.586  0.0959 -0.0180  0.1287
16712TIP3    H171551   2.382   1.333  15.654 -0.1969 -0.4551  0.5317
16712TIP3    H271552   2.314   1.219  15.581  0.1566  0.0182 -0.5362
16713TIP3   OH271553   2.443   4.336  15.357  0.1112 -0.4219 -0.1270
16713TIP3    H171554   2.453   4.248  15.318 -1.2170 -0.7385  0.2265
16713TIP3    H271555   2.361   4.368  15.320  0.6876  0.7617 -0.3929
16714TIP3   OH271556   5.936   0.311  14.247  0.6338 -0.4314 -0.8542
16714TIP3    H171557   6.002   0.245  14.266 -0.1653 -0.6257  1.4246
16714TIP3    H271558   5.872   0.302  14.317  1.0170  3.4617  0.1273
16715TIP3   OH271559   6.720   6.342   0.943  0.1590 -0.1104 -0.3270
16715TIP3    H171560   6.777   6.414   0.969 -0.3043  0.4818 -0.9455
16715TIP3    H271561   6.778   6.282   0.896  0.5184 -0.0839  0.0788
16716TIP3   OH271562   5.953   3.201   3.683 -0.0784  0.2370 -0.3029
16716TIP3    H171563   5.927   3.111   3.697 -0.9142  0.5390  0.1034
16716TIP3    H271564   5.877   3.253   3.709  0.3044  1.0449 -0.7632
16717TIP3   OH271565   3.718   6.247   3.110  0.1236 -0.6891 -0.3302
16717TIP3    H171566   3.774   6.179   3.073  1.0715 -0.5616  0.8217
16717TIP3    H271567   3.629   6.220   3.089  0.6369 -0.5382 -2.7863
16718TIP3   OH271568   1.330   0.670   5.489  0.1409 -0.1005  0.0869
16718TIP3    H171569   1.331   0.584   5.447  2.2115  0.1044 -0.3431
16718TIP3    H271570   1.389   0.660   5.564  2.7176  1.7123 -1.6190
16719TIP3   OH271571   5.705   0.597  16.937 -0.3405  0.1665 -0.2344
16719TIP3    H171572   5.627   0.591  16.992 -0.2824  0.8879 -0.0700
16719TIP3    H271573   5.727   0.506  16.916 -0.9244 -0.0611  0.1401
16720TIP3   OH271574   1.885   3.969   1.856 -0.5296 -0.0521 -0.2480
16720TIP3    H171575   1.814   4.017   1.814 -0.3931 -2.6523 -3.6632
16720TIP3    H271576   1.842   3.903   1.910 -0.6931  0.8845  0.7794
16721TIP3   OH271577   0.515   0.759  16.109  0.4787 -0.0364 -0.0517
16721TIP3    H171578   0.544   0.850  16.110 -0.1893  0.2214  4.3232
16721TIP3    H271579   0.593   0.708  16.132  0.5289 -0.4848 -1.1776
16722TIP3   OH271580   1.058   3.174  11.862  0.1538  0.2466 -0.5492
16722TIP3    H171581   1.041   3.119  11.784 -1.8785  1.2420 -0.8608
16722TIP3    H271582   1.011   3.256  11.843  0.5184  0.8864  1.2796
16723TIP3   OH271583   4.574   2.310   0.696  0.1351  0.2892 -0.3206
16723TIP3    H171584   4.506   2.248   0.668  0.6693 -0.1240 -0.7322
16723TIP3    H271585   4.611   2.270   0.774 -0.0295  0.4670 -0.1512
16724TIP3   OH271586   5.602   4.358  12.395  0.1865 -0.0748 -0.1118
16724TIP3    H171587   5.653   4.332  12.318 -0.3903 -0.0647 -0.4963
16724TIP3    H271588   5.605   4.454  12.394 -1.3524 -0.0192 -1.1602
16725TIP3   OH271589   1.661   1.605  13.715 -0.3519  0.0700  0.7043
16725TIP3    H171590   1.713   1.619  13.794 -0.1332  0.1762  0.5399
16725TIP3    H271591   1.650   1.693  13.677  2.7560 -0.4062 -1.4282
16726TIP3   OH271592   2.876   5.257   1.412 -0.3229 -0.2569  0.5606
16726TIP3    H171593   2.925   5.301   1.342  0.0527 -0.0235  0.9626
16726TIP3    H271594   2.784   5.273   1.391 -0.1778  2.1547  1.5930
16727TIP3   OH271595   0.563   4.991   3.401 -0.1628 -0.3321  0.6985
16727TIP3    H171596   0.491   5.013   3.342 -0.5806 -1.3955  0.7917
16727TIP3    H271597   0.641   4.994   3.346 -0.4749 -0.7010  0.2336
16728TIP3   OH271598   5.469   1.637   0.418 -0.8618  1.0707 -0.0747
16728TIP3    H171599   5.529   1.710   0.429 -0.3229  0.3166  2.0588
16728TIP3    H271600   5.384   1.671   0.446 -0.7947  1.1377  0.0442
16729TIP3   OH271601   4.477   1.147  15.141 -0.2269  0.6089  0.1992
16729TIP3    H171602   4.498   1.232  15.179 -2.0061  1.2468 -0.1944
16729TIP3    H271603   4.527   1.144  15.059 -0.4142  1.4162  0.0513
16730TIP3   OH271604   0.792   6.266   5.891  0.4968  0.3522 -0.3104
16730TIP3    H171605   0.728   6.221   5.945  0.7859 -1.8422 -1.6944
16730TIP3    H271606   0.860   6.294   5.952  0.2671 -1.0464  0.6145
16731TIP3   OH271607   6.436   6.054   5.914 -0.3652 -0.7830 -0.0855
16731TIP3    H171608   6.401   5.997   5.983 -4.2399  1.2820 -0.2303
16731TIP3    H271609   6.367   6.055   5.847  0.2384  2.9192 -0.7239
16732TIP3   OH271610   5.049   3.282   0.039 -0.7616 -0.4667 -0.2115
16732TIP3    H171611   4.967   3.279   0.089 -0.5081 -1.7504  0.1334
16732TIP3    H271612   5.114   3.242   0.096  0.3511  1.4543 -0.0767
16733TIP3   OH271613   4.199   6.295  14.104  0.2138 -0.1356  0.0025
16733TIP3    H171614   4.123   6.250  14.068  0.5004 -0.4482 -0.2142
16733TIP3    H271615   4.269   6.277  14.041  0.6264 -0.3903  0.5361
16734TIP3   OH271616   3.475   3.615   2.477 -0.1766 -0.3805  0.2892
16734TIP3    H171617   3.518   3.545   2.526 -0.6115 -0.7601  0.1406
16734TIP3    H271618   3.445   3.677   2.544  0.5252 -0.1523  0.3961
16735TIP3   OH271619   0.438   1.167  14.666 -0.1181 -0.3916 -0.2304
16735TIP3    H171620   0.416   1.075  14.679 -0.3658 -0.2770  0.2151
16735TIP3    H271621   0.421   1.207  14.752 -1.1530  0.2839 -0.7359
16736TIP3   OH271622   0.030   1.988  13.517  0.1413 -0.2682 -0.3984
16736TIP3    H171623  -0.064   1.974  13.506  0.1194  0.4782 -1.2212
16736TIP3    H271624   0.053   1.938  13.596 -1.5552  2.1759  1.7454
16737TIP3   OH271625   1.094   3.555   2.905  0.4507 -0.1691 -0.5237
16737TIP3    H171626   1.125   3.611   2.975 -1.5233  0.2924  0.0026
16737TIP3    H271627   1.086   3.468   2.945 -0.5022  0.0559 -0.2332
16738TIP3   OH271628   0.574   6.336   2.320  0.6990  0.8331 -0.0550
16738TIP3    H171629   0.494   6.375   2.354  0.0967  0.7651 -1.3720
16738TIP3    H271630   0.629   6.324   2.398 -1.2910 -0.8668  1.1523
16739TIP3   OH271631   1.334   5.026   4.845 -0.1187  0.3761  0.0374
16739TIP3    H171632   1.388   5.058   4.773 -0.0759  0.9738  0.3324
16739TIP3    H271633   1.257   4.988   4.802  0.7319 -0.8931 -0.4079
16740TIP3   OH271634   3.938   3.817  14.558 -0.7075  0.2998 -0.5363
16740TIP3    H171635   3.943   3.873  14.480  1.5295 -0.0768 -0.6897
16740TIP3    H271636   3.995   3.859  14.622 -0.7287 -0.6332  0.1002
16741TIP3   OH271637   6.099   4.983  14.679 -0.2103  0.1871  0.3769
16741TIP3    H171638   6.190   4.998  14.657 -0.5411  1.1281 -0.3807
16741TIP3    H271639   6.071   5.063  14.725 -0.2233 -0.7343  2.0231
16742TIP3   OH271640   0.815   2.653  16.177  0.0521  0.1220  0.1483
16742TIP3    H171641   0.743   2.707  16.144  1.3376  0.9361 -1.3901
16742TIP3    H271642   0.819   2.579  16.116 -0.8481 -1.0579  1.4822
16743TIP3   OH271643   1.024   5.499  11.547 -0.4177  0.3423  1.1456
16743TIP3    H171644   1.060   5.477  11.633  1.0345  3.1472  1.3413
16743TIP3    H271645   1.099   5.534  11.499 -1.1119 -1.5862 -1.4573
16744TIP3   OH271646   1.292   6.692  11.499 -0.0296  0.4702 -0.7265
16744TIP3    H171647   1.201   6.698  11.471 -0.0284  0.0831 -0.8144
16744TIP3    H271648   1.288   6.669  11.591 -0.0542  3.0936 -0.0223
16745TIP3   OH271649   5.832   3.340  12.600  0.4337 -0.1875 -0.4841
16745TIP3    H171650   5.925   3.356  12.617 -0.0515  2.3766 -0.0581
16745TIP3    H271651   5.786   3.405  12.653 -1.6277 -1.6591 -0.4208
16746TIP3   OH271652   4.281   4.363  13.413  0.4164  0.1941  0.5113
16746TIP3    H171653   4.340   4.419  13.463  0.3035  0.9231 -0.1567
16746TIP3    H271654   4.300   4.385  13.322  0.5498 -1.0412  0.2358
16747TIP3   OH271655   3.706   1.919  11.586 -0.4667 -0.1315  0.3243
16747TIP3    H171656   3.700   1.867  11.666 -1.6910  0.1053  0.3885
16747TIP3    H271657   3.721   2.008  11.616  1.8607 -0.4551  0.2085
16748TIP3   OH271658   5.709   3.983   5.564  0.9112 -0.0355 -0.4721
16748TIP3    H171659   5.732   4.049   5.498  2.0705 -0.2902 -0.3424
16748TIP3    H271660   5.785   3.924   5.566 -0.0924 -1.3485 -0.5473
16749TIP3   OH271661   4.922   3.691  16.549  0.3293 -0.1365  0.0862
16749TIP3    H171662   4.914   3.757  16.480 -0.8680 -2.2276 -1.7948
16749TIP3    H271663   5.010   3.655  16.538 -0.4945 -1.7070 -1.4997
16750TIP3   OH271664   5.485   3.631   0.302 -0.2717  0.2229  0.0125
16750TIP3    H171665   5.425   3.683   0.249 -0.6124 -1.4148 -1.2342
16750TIP3    H271666   5.494   3.548   0.255 -3.5625 -2.7960  4.3034
16751TIP3   OH271667   1.625   4.808  14.042 -0.0710 -0.3210 -0.0225
16751TIP3    H171668   1.636   4.767  14.128 -1.9222 -1.6298 -0.3902
16751TIP3    H271669   1.696   4.770  13.989  1.7093  1.2636  1.1749
16752TIP3   OH271670   1.875   2.261  14.721  0.2405  0.0158 -0.1891
16752TIP3    H171671   1.923   2.252  14.639  1.0902 -0.6572  0.3596
16752TIP3    H271672   1.784   2.272  14.695  0.6603  1.0756 -1.2488
16753TIP3   OH271673   3.284   0.387  11.451 -0.2030 -1.2428 -0.0487
16753TIP3    H171674   3.299   0.394  11.357 -0.6017  1.8599  0.0456
16753TIP3    H271675   3.370   0.402  11.490 -0.6638  1.2264  0.1207
16754TIP3   OH271676   2.047   4.807   2.410  0.6024 -0.1590 -0.4459
16754TIP3    H171677   1.974   4.854   2.370  2.0024  0.5756 -2.1563
16754TIP3    H271678   2.004   4.744   2.469 -1.3360  1.8353  0.3715
16755TIP3   OH271679   0.222   3.453  16.257 -0.2541  0.0455  0.5815
16755TIP3    H171680   0.185   3.375  16.298  0.8274 -1.0461 -0.4758
16755TIP3    H271681   0.177   3.460  16.173  0.8073 -0.3912 -0.0334
16756TIP3   OH271682   6.671   6.738   0.251  0.2475 -0.4307  0.2505
16756TIP3    H171683   6.751   6.790   0.256 -0.6725  0.9916  0.6635
16756TIP3    H271684   6.679   6.689   0.169  0.2479  1.9400 -1.2252
16757TIP3   OH271685   0.494   6.387  12.770 -0.3784  0.0402  0.2326
16757TIP3    H171686   0.487   6.424  12.859 -3.1311 -0.0756  0.1220
16757TIP3    H271687   0.541   6.305  12.782 -1.0520 -0.1617  1.6677
16758TIP3   OH271688   1.562   4.023  14.613  0.5277  0.7892  0.1901
16758TIP3    H171689   1.551   3.940  14.567  0.8628  0.0389  1.4130
16758TIP3    H271690   1.536   4.090  14.550 -1.2895 -0.3279 -0.2924
16759TIP3   OH271691   0.298   5.037  14.042  0.4664 -0.0858 -0.2969
16759TIP3    H171692   0.303   4.983  14.121  0.0255 -0.2438 -0.3753
16759TIP3    H271693   0.346   5.117  14.064  0.2601 -0.0889  0.1645
16760TIP3   OH271694   2.492   1.988  16.188  0.0840 -0.3803  0.1959
16760TIP3    H171695   2.459   1.906  16.152  0.5541 -0.7938  0.6915
16760TIP3    H271696   2.444   2.056  16.141  0.8509 -0.9016 -1.3668
16761TIP3   OH271697   4.174   6.425   4.594  0.3364  0.2103 -0.7555
16761TIP3    H171698   4.144   6.514   4.577  0.1813  0.3265  0.0810
16761TIP3    H271699   4.095   6.378   4.622  0.1276 -0.5729 -2.6041
16762TIP3   OH271700   0.519   1.319  13.612  0.4973  0.7665  0.0600
16762TIP3    H171701   0.498   1.231  13.578  0.0830  1.3719 -1.3102
16762TIP3    H271702   0.558   1.303  13.697 -0.0891 -0.7334  0.0719
16763TIP3   OH271703   2.609   3.173   2.458 -0.3953 -0.2003  0.6874
16763TIP3    H171704   2.651   3.238   2.515 -1.8317  0.6679  0.7956
16763TIP3    H271705   2.681   3.135   2.408  0.3784  2.1850 -0.0777
16764TIP3   OH271706   3.157   2.595  12.392 -0.1309  0.1629 -0.1590
16764TIP3    H171707   3.103   2.610  12.469 -0.6411  0.5758 -0.5901
16764TIP3    H271708   3.207   2.676  12.381  0.0634  0.0428 -0.1667
16765TIP3   OH271709   3.382   1.412  12.865  0.2154 -0.1032 -0.2061
16765TIP3    H171710   3.338   1.442  12.944  0.0898  1.0434 -0.6976
16765TIP3    H271711   3.354   1.321  12.855 -0.2840 -0.0578  0.6989
16766TIP3   OH271712   2.752   2.797   4.348  0.1561 -0.4772 -0.8428
16766TIP3    H171713   2.701   2.749   4.413 -3.2298  0.4811 -2.6647
16766TIP3    H271714   2.783   2.874   4.395 -1.1235 -0.4721  0.0421
16767TIP3   OH271715   1.027   1.333   4.546 -0.2269  0.1377 -0.4749
16767TIP3    H171716   0.982   1.417   4.552 -1.5532 -0.5846 -0.0907
16767TIP3    H271717   1.106   1.352   4.496 -1.2993  1.3024 -1.7922
16768TIP3   OH271718   2.841   0.526   5.619  0.0164 -0.3752 -0.6686
16768TIP3    H171719   2.861   0.473   5.697  0.3142  0.9071  0.1528
16768TIP3    H271720   2.823   0.613   5.654 -1.0173 -0.0571 -1.9475
16769TIP3   OH271721   3.354   3.906   2.009  0.0458  0.4042 -0.1494
16769TIP3    H171722   3.259   3.902   2.000  0.2591  2.9642 -5.1127
16769TIP3    H271723   3.372   3.999   2.026  1.6262 -0.3453  2.6317
16770TIP3   OH271724   2.180   4.322  17.151  0.4067 -0.1453  0.0034
16770TIP3    H171725   2.181   4.413  17.178 -0.2384 -0.9543  3.0124
16770TIP3    H271726   2.087   4.297  17.151  0.7337 -1.5126  1.9906
16771TIP3   OH271727   6.237   3.226   5.572 -0.3025  0.4973 -0.1208
16771TIP3    H171728   6.258   3.134   5.586  0.0825  0.5660 -0.2420
16771TIP3    H271729   6.248   3.239   5.478 -1.2637  0.4397 -0.2495
16772TIP3   OH271730   4.171   1.252   3.854 -0.3695  0.0416  0.2962
16772TIP3    H171731   4.173   1.261   3.759 -2.9826 -0.5100  0.1447
16772TIP3    H271732   4.236   1.184   3.873  0.7845  0.7650 -1.0011
16773TIP3   OH271733   2.702   3.226  10.022  0.5899  0.1671  0.5629
16773TIP3    H171734   2.715   3.313   9.983  1.2108  0.2322  0.9162
16773TIP3    H271735   2.763   3.169   9.975 -0.0413 -0.1497  0.1128
16774TIP3   OH271736   6.154   2.981   5.181 -0.1068  0.3031 -0.0738
16774TIP3    H171737   6.123   2.894   5.156  0.1129 -0.1713  1.2501
16774TIP3    H271738   6.246   2.967   5.206  0.1566  1.0591 -0.6153
16775TIP3   OH271739   2.464   2.855   1.202  0.1131 -0.2695  0.1642
16775TIP3    H171740   2.418   2.899   1.273  0.4676  0.9292 -0.3300
16775TIP3    H271741   2.402   2.789   1.170  0.0068 -0.9069  1.6483
16776TIP3   OH271742   6.367   4.918  16.001  0.1791 -0.7129  0.4462
16776TIP3    H171743   6.332   4.897  15.915  3.1001 -1.0875 -0.7165
16776TIP3    H271744   6.451   4.872  16.005  1.3289  1.4499  2.4288
16777TIP3   OH271745   2.875   1.643  16.365 -0.0622 -0.8846  0.2617
16777TIP3    H171746   2.932   1.671  16.436 -0.6247 -0.2325  0.4617
16777TIP3    H271747   2.804   1.708  16.364 -0.3550 -1.2088 -0.5242
16778TIP3   OH271748   2.451   5.378  13.202 -0.3599 -0.7127  0.9225
16778TIP3    H171749   2.537   5.386  13.159 -0.9388  1.4031  0.0901
16778TIP3    H271750   2.414   5.297  13.165  0.3585 -0.4577 -0.4104
16779TIP3   OH271751   4.946   0.732   1.243  0.4727  0.3840 -0.3842
16779TIP3    H171752   4.892   0.691   1.311  1.8948 -0.2501  0.3894
16779TIP3    H271753   4.970   0.817   1.280  1.3840 -0.0299 -0.0202
16780TIP3   OH271754   3.818   2.423  16.027  0.0739 -0.3288 -0.0959
16780TIP3    H171755   3.836   2.419  16.120  1.6273 -0.6840 -0.4005
16780TIP3    H271756   3.893   2.472  15.990 -0.9139  0.5033 -1.0448
16781TIP3   OH271757   3.722   6.145   0.945  0.0139 -0.2560 -0.0529
16781TIP3    H171758   3.678   6.177   1.023  0.9561  0.5357  0.1643
16781TIP3    H271759   3.655   6.149   0.877 -0.8190 -0.9670  0.7091
16782TIP3   OH271760   1.245   0.912   4.366  0.0392  0.0509 -0.5447
16782TIP3    H171761   1.325   0.960   4.387 -0.2390  0.9501 -1.5077
16782TIP3    H271762   1.201   0.901   4.450  1.1554 -0.4174 -0.0178
16783TIP3   OH271763   6.375   2.474  13.045 -0.4274  0.0694  0.7898
16783TIP3    H171764   6.401   2.555  13.090  1.1719  0.1266 -0.2101
16783TIP3    H271765   6.457   2.435  13.017 -1.3500 -0.5271 -1.1450
16784TIP3   OH271766   5.717   2.147   1.199  0.1550 -0.5342 -0.3507
16784TIP3    H171767   5.758   2.171   1.116 -1.8097  0.6079 -1.0080
16784TIP3    H271768   5.732   2.222   1.256  1.5859 -1.3535  0.4068
16785TIP3   OH271769   1.332   3.984  16.654 -0.2561 -0.1103  0.0109
16785TIP3    H171770   1.411   4.004  16.605 -0.4663  0.3946 -0.1300
16785TIP3    H271771   1.336   4.041  16.731  0.8522 -2.0366  1.4111
16786TIP3   OH271772   6.082   0.913   3.128  0.1165 -0.3813  0.5773
16786TIP3    H171773   6.016   0.894   3.061 -1.0603  2.5828  0.8083
16786TIP3    H271774   6.165   0.884   3.090 -0.7214  0.0059 -1.5876
16787TIP3   OH271775   5.317   5.078   2.719  0.4909 -0.1277  0.6686
16787TIP3    H171776   5.281   5.153   2.672 -1.3325 -1.3229  0.0977
16787TIP3    H271777   5.396   5.056   2.671 -0.9297 -0.8448 -1.4339
16788TIP3   OH271778   3.579   6.339   5.422 -0.4093  0.7241 -0.5251
16788TIP3    H171779   3.638   6.376   5.488 -1.6682  3.4126 -0.8515
16788TIP3    H271780   3.509   6.298   5.473 -0.3369  1.0380 -0.1682
16789TIP3   OH271781   0.730   3.122  14.967 -0.4430 -0.1938 -0.0366
16789TIP3    H171782   0.717   3.199  14.912  0.7425  1.7648  2.3395
16789TIP3    H271783   0.821   3.128  14.996 -0.1362 -2.8446 -0.2743
16790TIP3   OH271784   2.659   1.259  16.928 -0.6140 -0.3639  0.6423
16790TIP3    H171785   2.718   1.300  16.992 -0.8886 -1.6740  1.7559
16790TIP3    H271786   2.717   1.228  16.859  0.0617 -1.7659  1.7950
16791TIP3   OH271787   6.014   5.567   4.229  0.1851  0.4603 -0.7085
16791TIP3    H171788   5.949   5.605   4.287  0.0967 -0.4766 -0.1861
16791TIP3    H271789   6.052   5.494   4.278  0.4417 -0.0502 -1.6311
16792TIP3   OH271790   1.080   1.617  15.643 -0.6583  0.4052  0.4027
16792TIP3    H171791   1.014   1.592  15.578 -0.3500 -2.4264  1.1198
16792TIP3    H271792   1.142   1.545  15.644  1.5966  2.2818  0.9462
16793TIP3   OH271793   1.971   3.598   2.908 -0.5075 -0.4237  0.5177
16793TIP3    H171794   1.921   3.677   2.887 -1.2188 -0.9629  0.1871
16793TIP3    H271795   1.954   3.538   2.835 -1.0273 -1.3819  1.4102
16794TIP3   OH271796   1.636   3.519   0.393  0.5525  0.3645 -0.3024
16794TIP3    H171797   1.709   3.460   0.411  0.1577 -0.3289 -0.9600
16794TIP3    H271798   1.560   3.476   0.432  0.8564  2.2021  2.4562
16795TIP3   OH271799   1.673   6.054  12.890  0.0719  0.2451  0.3862
16795TIP3    H171800   1.603   6.068  12.953 -0.0061  1.2023  0.0837
16795TIP3    H271801   1.628   6.032  12.808  0.1679 -0.7625  0.5959
16796TIP3   OH271802   4.283   0.369  13.683  0.1725  0.3286 -0.1024
16796TIP3    H171803   4.271   0.330  13.596 -0.1156  1.8859 -0.7690
16796TIP3    H271804   4.194   0.392  13.711  0.3931  0.9618  0.0824
16797TIP3   OH271805   5.772   3.334   0.826 -0.1616  0.1071 -0.1749
16797TIP3    H171806   5.816   3.418   0.813 -0.4772  0.5003  1.2056
16797TIP3    H271807   5.801   3.305   0.913 -1.6467 -0.2125  0.2289
16798TIP3   OH271808   6.668   6.168  13.743 -0.2131  0.4243  0.4345
16798TIP3    H171809   6.737   6.139  13.803  2.0266  0.0736 -2.2014
16798TIP3    H271810   6.664   6.263  13.754  3.4733  0.9669 -2.1153
16799TIP3   OH271811   1.829   3.597  12.173 -0.2124  0.0307 -0.2262
16799TIP3    H171812   1.919   3.628  12.178 -0.6860  1.2091  2.2995
16799TIP3    H271813   1.836   3.502  12.172  1.0630  0.1124  0.0278
16800TIP3   OH271814   0.701   1.567  12.217 -0.2222 -1.0744  0.1151
16800TIP3    H171815   0.720   1.478  12.245 -1.3203 -1.4050 -0.1978
16800TIP3    H271816   0.648   1.557  12.138  0.3734 -0.1430 -0.4181
16801TIP3   OH271817   0.486   3.548   5.763  0.8044  0.3542  0.0145
16801TIP3    H171818   0.432   3.500   5.700 -1.5997  1.3414  1.2289
16801TIP3    H271819   0.467   3.506   5.847 -0.2407  2.4825  0.8731
16802TIP3   OH271820   1.788   4.470   1.194 -0.0012 -0.2524  0.1553
16802TIP3    H171821   1.800   4.509   1.108  0.2068  0.1994  0.3886
16802TIP3    H271822   1.702   4.429   1.191  0.1616 -0.5581 -0.3891
16803TIP3   OH271823   5.503   2.889   0.370  0.1112 -0.0041 -0.0367
16803TIP3    H171824   5.497   2.852   0.458  0.1637 -3.4538 -1.4248
16803TIP3    H271825   5.592   2.868   0.341 -0.7850 -1.2657 -1.9199
16804TIP3   OH271826   1.466   3.774   2.791 -0.4484  0.2827 -0.0175
16804TIP3    H171827   1.465   3.796   2.884  1.1961 -0.9459  0.3233
16804TIP3    H271828   1.377   3.745   2.771 -0.5333 -0.4645  1.4273
16805TIP3   OH271829   6.185   6.125  11.310 -0.0817 -0.6807 -0.2583
16805TIP3    H171830   6.202   6.219  11.323 -1.3109 -0.4240 -0.3923
16805TIP3    H271831   6.204   6.110  11.218 -1.1791 -0.2470 -0.5739
16806TIP3   OH271832   6.636   0.053  16.965 -0.7353  0.7731  0.2747
16806TIP3    H171833   6.714   0.108  16.970  1.4208 -1.6692 -4.1000
16806TIP3    H271834   6.575   0.102  16.911 -0.7746  1.0283  0.5490
16807TIP3   OH271835   6.555   6.539  13.136  0.1487 -0.1548  0.0964
16807TIP3    H171836   6.594   6.480  13.071 -1.1870  0.3324 -1.1618
16807TIP3    H271837   6.512   6.607  13.084 -0.6382  0.4316  1.5054
16808TIP3   OH271838   2.335   6.037   1.189 -0.5927 -0.1197  0.1751
16808TIP3    H171839   2.251   6.072   1.218 -0.0923  1.3536 -0.0804
16808TIP3    H271840   2.383   6.114   1.158 -0.0596 -1.2598 -1.9244
16809TIP3   OH271841   4.496   3.715  16.457 -0.4840  0.1381  0.1476
16809TIP3    H171842   4.569   3.764  16.494  0.3135  0.9192 -2.3182
16809TIP3    H271843   4.457   3.669  16.531  3.6222 -1.7142  1.3238
16810TIP3   OH271844   1.224   4.648  16.226  0.0291 -0.0810  0.7270
16810TIP3    H171845   1.231   4.562  16.183  0.6397  0.7207 -0.8256
16810TIP3    H271846   1.307   4.658  16.271  0.4943  0.2525 -0.1858
16811TIP3   OH271847   3.730   4.112   3.417  0.0436  0.3873 -0.3349
16811TIP3    H171848   3.746   4.062   3.497 -0.4358  1.2536  0.3186
16811TIP3    H271849   3.811   4.104   3.367 -0.5308 -2.2112 -0.9083
16812TIP3   OH271850   0.723   1.509  13.142  0.3806  0.1001  0.0195
16812TIP3    H171851   0.810   1.501  13.103 -0.0119 -0.4380 -0.7401
16812TIP3    H271852   0.662   1.493  13.070 -0.3520  0.1098  0.6297
16813TIP3   OH271853   1.886   1.982   3.473 -0.6848  0.3950 -0.0645
16813TIP3    H171854   1.932   2.065   3.489  0.1948  0.0376 -0.6865
16813TIP3    H271855   1.924   1.949   3.392 -1.3870 -0.3784 -0.0874
16814TIP3   OH271856   2.266   5.731  16.274 -0.1329 -0.2144 -0.3020
16814TIP3    H171857   2.282   5.824  16.288 -2.4387  0.0128  1.0382
16814TIP3    H271858   2.350   5.689  16.295  1.0679  1.5769 -1.4285
16815TIP3   OH271859   0.104   1.184   1.228 -0.0463  0.2981  0.0965
16815TIP3    H171860   0.031   1.209   1.172 -0.3962  2.4914  1.4514
16815TIP3    H271861   0.131   1.266   1.270  4.2802 -0.1039 -1.5952
16816TIP3   OH271862   2.352   5.528   4.480  0.3977  0.1285  0.1898
16816TIP3    H171863   2.294   5.600   4.501 -0.4026 -0.4042 -0.1565
16816TIP3    H271864   2.440   5.567   4.479  0.0943  0.8391  1.1410
16817TIP3   OH271865   4.732   1.684   0.421 -0.0097 -0.2225  0.5364
16817TIP3    H171866   4.684   1.627   0.482 -1.1148  0.9071  0.7597
16817TIP3    H271867   4.721   1.643   0.336 -1.3456 -0.0398  0.5989
16818TIP3   OH271868   0.471   2.263  11.628 -0.4967 -0.5527 -0.0536
16818TIP3    H171869   0.553   2.313  11.636 -0.4699 -0.3910 -1.2233
16818TIP3    H271870   0.465   2.215  11.710  0.7739 -0.5621  0.0528
16819TIP3   OH271871   3.369   0.326   5.784  0.0990  0.1491 -0.5748
16819TIP3    H171872   3.331   0.240   5.767  2.9066 -1.2829  0.1191
16819TIP3    H271873   3.393   0.359   5.697 -0.9430  0.2632 -0.8352
16820TIP3   OH271874   6.394   2.351  15.139  0.0869  0.5378 -0.3407
16820TIP3    H171875   6.421   2.270  15.183 -0.2788  0.6800  0.1552
16820TIP3    H271876   6.434   2.346  15.053  0.0073 -0.2102 -0.3388
16821TIP3   OH271877   0.865   2.140  16.958  0.3456 -0.3909  0.2532
16821TIP3    H171878   0.933   2.193  17.000  0.8970 -1.1333  0.3085
16821TIP3    H271879   0.859   2.062  17.012  1.0948 -1.3768 -1.0596
16822TIP3   OH271880   0.075   4.298  14.952 -0.3954 -0.4688  0.4331
16822TIP3    H171881   0.065   4.206  14.978 -1.4133  0.1101  2.1468
16822TIP3    H271882   0.153   4.327  14.999  0.3136 -0.6291 -0.6311
16823TIP3   OH271883   4.952   6.180   2.600  0.3377  0.3571  0.3761
16823TIP3    H171884   4.929   6.253   2.659  0.0739  0.5173  0.0750
16823TIP3    H271885   5.032   6.210   2.557 -0.6752  1.1939 -0.9864
16824TIP3   OH271886   6.165   3.255   1.711  0.1974 -0.0827 -0.2673
16824TIP3    H171887   6.174   3.162   1.692  1.3555  0.0791 -0.5466
16824TIP3    H271888   6.238   3.297   1.665 -0.9181  1.0895 -1.0181
16825TIP3   OH271889   4.957   5.209   3.842 -0.0734  0.3006 -0.8050
16825TIP3    H171890   4.934   5.298   3.870 -2.8782 -0.8038  0.5658
16825TIP3    H271891   4.976   5.218   3.749 -1.0748  2.2232 -0.8573
16826TIP3   OH271892   4.481   2.327  17.046  0.2880  0.3616 -0.2167
16826TIP3    H171893   4.455   2.418  17.062 -0.6598  0.2559 -1.0916
16826TIP3    H271894   4.414   2.274  17.088  0.1722  0.0805 -0.7392
16827TIP3   OH271895   4.986   1.879   3.498 -0.0581 -0.2386 -0.0484
16827TIP3    H171896   4.967   1.962   3.542 -1.8017 -0.3809 -0.4601
16827TIP3    H271897   5.029   1.904   3.416 -1.2050  0.3177 -0.4931
16828TIP3   OH271898   1.263   2.671   1.499  0.2496  0.0328 -0.4602
16828TIP3    H171899   1.304   2.751   1.465  0.0255  0.2031 -0.3261
16828TIP3    H271900   1.336   2.622   1.536  0.3113  0.4170 -0.0664
16829TIP3   OH271901   2.822   0.796  14.177 -0.2886  0.0082  0.0435
16829TIP3    H171902   2.812   0.763  14.266  1.4981  1.3468  0.7802
16829TIP3    H271903   2.917   0.809  14.167 -0.6596  2.0266 -1.2232
16830TIP3   OH271904   3.625   1.903   2.490  0.6768 -0.5713 -0.2068
16830TIP3    H171905   3.604   1.955   2.568 -1.6061 -0.0709 -1.1436
16830TIP3    H271906   3.679   1.831   2.524 -0.1742 -0.2923  1.8286
16831TIP3   OH271907   4.956   3.840  14.689  0.1582 -0.0977  0.1728
16831TIP3    H171908   4.863   3.859  14.675  0.2822 -1.3067 -2.5115
16831TIP3    H271909   4.995   3.925  14.709 -1.0547  0.8588 -1.4253
16832TIP3   OH271910   6.239   6.450   3.331 -0.3090 -0.4563  0.5375
16832TIP3    H171911   6.332   6.472   3.334 -0.2735 -0.6656  1.1785
16832TIP3    H271912   6.196   6.522   3.378 -0.6980  0.7139 -1.5354
16833TIP3   OH271913   4.012   4.277   4.475  0.2809 -0.2797 -0.4787
16833TIP3    H171914   3.992   4.189   4.507 -0.6716  0.1047  0.0121
16833TIP3    H271915   4.105   4.289   4.496  0.3918 -1.1173 -0.4508
16834TIP3   OH271916   0.302   0.841  12.846 -0.6660  0.1874  0.8642
16834TIP3    H171917   0.375   0.894  12.812  1.1456 -1.5679  1.9360
16834TIP3    H271918   0.244   0.829  12.771 -0.0587  1.9132  0.0855
16835TIP3   OH271919   4.422   6.361   0.630  0.2399 -0.0600  0.2713
16835TIP3    H171920   4.505   6.365   0.678  0.2390 -0.1956  0.2853
16835TIP3    H271921   4.388   6.273   0.649  0.7835 -0.5357 -0.8866
16836TIP3   OH271922   5.253   6.770  11.412 -0.3441 -0.0950 -0.4690
16836TIP3    H171923   5.335   6.776  11.461 -0.0838  0.3664 -0.9542
16836TIP3    H271924   5.276   6.794  11.323 -1.3062  1.6365 -0.2842
16837TIP3   OH271925   0.912   4.089  15.220 -0.1617  0.3380  0.0061
16837TIP3    H171926   0.888   3.998  15.201  0.7791  0.3715 -1.4814
16837TIP3    H271927   0.829   4.131  15.242 -0.8716 -0.4843 -1.0025
16838TIP3   OH271928   4.809   5.144   5.592  0.1483  0.6324 -0.7247
16838TIP3    H171929   4.895   5.147   5.551  1.2415  0.3506  1.4825
16838TIP3    H271930   4.798   5.230   5.632 -0.5722  0.6616 -0.9887
16839TIP3   OH271931   2.256   2.437   2.991  0.2743 -0.3857 -0.1531
16839TIP3    H171932   2.197   2.368   3.019 -0.1112 -0.2513 -0.6328
16839TIP3    H271933   2.199   2.504   2.954  0.5868  0.4609  0.8554
16840TIP3   OH271934   5.670   3.483  15.783  0.2907  0.1770  0.2165
16840TIP3    H171935   5.668   3.425  15.707  3.6755  0.5293 -0.2210
16840TIP3    H271936   5.641   3.429  15.856  0.5548 -1.2313 -0.7160
16841TIP3   OH271937   1.035   5.565   5.326 -0.0893 -0.0811  0.2401
16841TIP3    H171938   1.072   5.534   5.243 -1.1753 -2.4870  0.6087
16841TIP3    H271939   1.108   5.562   5.387  0.4395  0.5966 -0.3524
16842TIP3   OH271940   5.245   5.052   0.645  0.0848 -0.3964  0.1713
16842TIP3    H171941   5.239   5.134   0.596 -1.5194 -0.1951  0.6680
16842TIP3    H271942   5.274   5.079   0.733 -1.2042 -0.2525  0.5650
16843TIP3   OH271943   1.313   0.488  15.255  0.1588 -0.4478  0.9741
16843TIP3    H171944   1.256   0.412  15.257 -0.6739  0.1592  0.5275
16843TIP3    H271945   1.272   0.551  15.314 -0.4828  0.5808 -0.5408
16844TIP3   OH271946   3.323   2.584  16.320 -0.0618 -0.1566 -0.2368
16844TIP3    H171947   3.358   2.543  16.242  2.1074 -0.8625  1.0546
16844TIP3    H271948   3.295   2.510  16.375 -2.3454  0.3578 -0.6755
16845TIP3   OH271949   3.695   0.512   3.141 -0.0161 -0.2306  0.2155
16845TIP3    H171950   3.657   0.505   3.053  0.5808  0.1341 -0.0752
16845TIP3    H271951   3.775   0.459   3.136  0.0084 -0.2223  0.5458
16846TIP3   OH271952   4.579   3.233   0.097  0.4162 -0.5553  0.7865
16846TIP3    H171953   4.530   3.201   0.173  0.8040  0.9054  1.6763
16846TIP3    H271954   4.549   3.179   0.024 -0.6105 -1.3894  1.8124
16847TIP3   OH271955   5.594   6.271   4.289 -0.1115 -0.0123  0.0710
16847TIP3    H171956   5.675   6.323   4.292  0.4640 -0.8304 -0.7577
16847TIP3    H271957   5.525   6.336   4.273  0.5195  0.5790 -0.3409
16848TIP3   OH271958   1.242   2.267   4.487 -0.8083 -0.4439 -0.2160
16848TIP3    H171959   1.178   2.218   4.540  0.0366 -1.0490  0.2437
16848TIP3    H271960   1.195   2.348   4.463 -1.1787 -0.1102  1.5296
16849TIP3   OH271961   2.184   0.214   1.224  0.1203 -0.5465 -0.6344
16849TIP3    H171962   2.161   0.271   1.297 -1.5865 -2.3189  0.2540
16849TIP3    H271963   2.278   0.227   1.213 -0.0916  1.8642  0.0108
16850TIP3   OH271964   5.702   5.004  17.119 -0.4857 -0.0912 -0.6462
16850TIP3    H171965   5.666   5.021  17.032 -0.4938 -0.0701 -0.6408
16850TIP3    H271966   5.775   5.065  17.127 -0.4804 -0.0982 -0.6420
16851TIP3   OH271967   2.441   6.080   2.893 -0.1866  0.1093  0.6045
16851TIP3    H171968   2.441   5.992   2.855  0.6804  0.1036  0.6221
16851TIP3    H271969   2.464   6.138   2.820 -1.2519  0.3833  0.4696
16852TIP3   OH271970   0.243   6.181  15.327 -0.6699 -0.4476  1.0145
16852TIP3    H171971   0.321   6.124  15.330 -0.9457 -0.7710  2.9099
16852TIP3    H271972   0.261   6.248  15.393 -2.0008 -0.5192  1.4502
16853TIP3   OH271973   3.610   0.273   2.551 -0.4571 -0.6478 -0.1457
16853TIP3    H171974   3.688   0.283   2.495  0.1668  1.7467  1.0522
16853TIP3    H271975   3.540   0.314   2.500 -0.4846 -0.9853 -0.3763
16854TIP3   OH271976   0.461   1.576   4.223 -0.6492 -0.1466 -0.1542
16854TIP3    H171977   0.389   1.553   4.282 -0.1128 -0.2317  0.4772
16854TIP3    H271978   0.474   1.497   4.170 -2.0459  0.4059 -1.3375
16855TIP3   OH271979   6.586   3.660   0.855  0.1184  0.4850  0.0421
16855TIP3    H171980   6.602   3.683   0.764  2.5795 -0.2108  0.2473
16855TIP3    H271981   6.507   3.708   0.879  1.5683  3.6978 -1.3494
16856TIP3   OH271982   1.824   5.600  14.328  0.0117 -0.2383 -0.6872
16856TIP3    H171983   1.733   5.607  14.302 -0.7347  1.5115  2.1924
16856TIP3    H271984   1.823   5.545  14.406  1.2332  0.8486  0.1236
16857TIP3   OH271985   2.796   3.134   2.886  0.1345  0.0853 -0.0405
16857TIP3    H171986   2.739   3.084   2.827 -1.5260  1.0966  0.6663
16857TIP3    H271987   2.736   3.172   2.949  1.2924  3.4309 -0.8742
16858TIP3   OH271988   0.978   3.282   3.957 -0.3082  0.0927  0.1518
16858TIP3    H171989   1.067   3.286   3.992 -0.6608 -0.7932  1.1897
16858TIP3    H271990   0.968   3.363   3.908  1.0425  0.2416  0.0890
16859TIP3   OH271991   1.967   1.956  11.504  0.7517 -0.1131  0.1856
16859TIP3    H171992   1.988   2.014  11.430 -0.3164  0.3054  0.2054
16859TIP3    H271993   1.909   1.890  11.467  0.5190 -0.1221  0.5701
16860TIP3   OH271994   4.169   3.210  15.955 -0.2209 -0.1758  0.3307
16860TIP3    H171995   4.088   3.174  15.992 -0.2572 -0.2250  0.2019
16860TIP3    H271996   4.186   3.156  15.878 -1.3299  1.3259 -0.9979
16861TIP3   OH271997   2.786   6.172  16.963 -0.4059  0.3428  0.3007
16861TIP3    H171998   2.782   6.249  16.906 -0.1870 -0.2536 -0.5341
16861TIP3    H271999   2.816   6.101  16.905 -1.0345 -0.4657  0.9535
16862TIP3   OH272000   0.416   1.141  14.372 -0.5501  0.1913 -0.0894
16862TIP3    H172001   0.421   1.167  14.464 -0.2908 -2.3963  0.6589
16862TIP3    H272002   0.494   1.181  14.333  1.2212 -1.4613  1.5897
16863TIP3   OH272003   3.748   0.968   2.288 -0.2075 -0.4604  0.1845
16863TIP3    H172004   3.747   0.920   2.371 -1.0674 -1.9111 -0.6320
16863TIP3    H272005   3.748   0.899   2.221  2.2699  0.6560 -1.0377
16864TIP3   OH272006   2.122   3.118   2.497 -0.4100 -0.3044 -0.6991
16864TIP3    H172007   2.162   3.196   2.460 -1.3224  0.2934 -0.4481
16864TIP3    H272008   2.104   3.140   2.589 -1.6205 -0.4269 -0.8925
16865TIP3   OH272009   4.830   4.299  14.532  0.8500  0.2681  0.3798
16865TIP3    H172010   4.859   4.355  14.460 -0.3431 -0.6443 -0.8622
16865TIP3    H272011   4.883   4.220  14.523 -0.4086 -0.5078 -0.5425
16866TIP3   OH272012   4.227   5.138  14.992 -0.2830 -0.2586  0.0049
16866TIP3    H172013   4.261   5.222  15.024  0.0222 -0.2218 -0.4096
16866TIP3    H272014   4.255   5.074  15.058 -1.5274  0.1326  0.9258
16867TIP3   OH272015   3.597   0.364   1.418  0.4545  0.1509  0.1958
16867TIP3    H172016   3.565   0.293   1.362  0.6261 -1.0796  1.6203
16867TIP3    H272017   3.601   0.325   1.506  1.6728  1.5770  0.7920
16868TIP3   OH272018   0.770   4.304   5.697 -0.3588  0.8470 -1.2447
16868TIP3    H172019   0.706   4.330   5.762  2.2158  2.0147  0.9075
16868TIP3    H272020   0.780   4.209   5.708  0.9439  1.2181  0.9187
16869TIP3   OH272021   3.513   6.731   0.948  0.0480 -0.3154  0.1002
16869TIP3    H172022   3.467   6.647   0.955  2.9711 -1.8117  2.4023
16869TIP3    H272023   3.507   6.769   1.036  2.5685 -0.2227  0.2566
16870TIP3   OH272024   2.686   3.731  16.865 -0.7472  0.7518 -0.1343
16870TIP3    H172025   2.737   3.785  16.804 -2.0674  1.1685 -0.8835
16870TIP3    H272026   2.684   3.782  16.946 -0.1276  0.8152 -0.1549
16871TIP3   OH272027   2.754   1.905   3.047 -0.9940 -0.5713 -0.3592
16871TIP3    H172028   2.785   1.832   2.993 -0.1171  0.0644 -0.7104
16871TIP3    H272029   2.683   1.943   2.996 -0.7682 -0.5339 -0.6443
16872TIP3   OH272030   2.061   1.770  14.307 -0.4417  0.0156 -0.4404
16872TIP3    H172031   2.022   1.688  14.276 -0.0079  0.3788 -2.0171
16872TIP3    H272032   1.996   1.837  14.285 -0.0005  0.3162 -0.8254
16873TIP3   OH272033   2.393   5.309   1.945  0.4220  0.0128 -0.1753
16873TIP3    H172034   2.312   5.262   1.924 -0.5707  1.3703  0.5433
16873TIP3    H272035   2.388   5.326   2.039  1.4926  0.2111 -0.1423
16874TIP3   OH272036   1.922   0.665   5.685 -0.0057  0.0406 -0.4814
16874TIP3    H172037   1.952   0.616   5.608 -1.1856  0.0276 -0.9600
16874TIP3    H272038   2.002   0.692   5.730  0.7270  0.3279 -1.9009
16875TIP3   OH272039   1.088   2.638   4.149 -0.2592  0.0128 -0.5755
16875TIP3    H172040   1.097   2.728   4.179  1.5049 -0.6464  0.9224
16875TIP3    H272041   0.996   2.631   4.124 -0.1901  2.5255 -1.7312
16876TIP3   OH272042   4.325   3.294   2.863 -0.2871  0.1909  0.1407
16876TIP3    H172043   4.390   3.364   2.866 -0.6966  0.5414  1.0752
16876TIP3    H272044   4.268   3.311   2.938 -0.8849 -0.6662 -0.1107
16877TIP3   OH272045   2.516   1.768   4.020 -0.2667 -0.2336 -0.0126
16877TIP3    H172046   2.472   1.773   4.105 -0.3015  0.6303 -0.0842
16877TIP3    H272047   2.522   1.858   3.991  1.1028 -0.3943 -0.2396
16878TIP3   OH272048   0.438   4.271  16.963 -0.2123  0.2553 -0.3781
16878TIP3    H172049   0.407   4.196  16.913  3.2690 -3.5240  2.7283
16878TIP3    H272050   0.516   4.302  16.916  0.5715 -0.5866  0.3329
16879TIP3   OH272051   1.424   1.776   0.279 -0.1930 -0.5781 -0.5336
16879TIP3    H172052   1.447   1.748   0.368  0.5107  2.5082  0.3201
16879TIP3    H272053   1.504   1.761   0.228 -0.7683 -2.8620 -0.8028
16880TIP3   OH272054   3.554   3.387  14.000 -0.3473  0.0568 -0.7951
16880TIP3    H172055   3.480   3.326  14.005 -0.3665 -0.1485 -3.3719
16880TIP3    H272056   3.629   3.336  14.030 -0.9024 -0.2888  0.0462
16881TIP3   OH272057   3.865   5.879   1.656  0.3787  0.4004 -0.4581
16881TIP3    H172058   3.844   5.813   1.589  0.8001 -0.8337  0.5939
16881TIP3    H272059   3.865   5.830   1.738  2.2530  1.3902  0.1597
16882TIP3   OH272060   1.052   4.042  16.959  0.1821 -0.0121  0.0141
16882TIP3    H172061   1.106   3.993  17.021 -0.2379  0.1298  0.4979
16882TIP3    H272062   0.966   4.046  17.000  0.1233  0.8357 -0.1806
16883TIP3   OH272063   3.111   6.084   2.870 -0.1116  0.4110  0.4110
16883TIP3    H172064   3.024   6.085   2.832  0.3596 -0.4387 -0.7060
16883TIP3    H272065   3.100   6.038   2.953 -0.9764  1.5250  0.9332
16884TIP3   OH272066   4.759   4.697   0.506 -0.5669 -0.6412 -0.1403
16884TIP3    H172067   4.812   4.637   0.560 -0.9050 -0.1215  0.7892
16884TIP3    H272068   4.812   4.776   0.499 -1.5021  0.1592  1.4256
16885TIP3   OH272069   1.691   2.551  13.351 -0.1683  0.2427  0.6581
16885TIP3    H172070   1.728   2.611  13.286  1.7275 -0.3554  1.1539
16885TIP3    H272071   1.605   2.588  13.373 -1.1413  0.0958 -2.6596
16886TIP3   OH272072   3.097   2.244  13.017 -0.2603 -0.0536 -0.5203
16886TIP3    H172073   3.080   2.185  12.943 -1.3426 -1.6610  0.9417
16886TIP3    H272074   3.185   2.221  13.047 -0.4999 -0.6386 -0.2478
16887TIP3   OH272075   2.114   2.632  12.154  0.3384 -0.0834 -0.2436
16887TIP3    H172076   2.162   2.659  12.232  1.0808 -0.9365 -0.4050
16887TIP3    H272077   2.180   2.629  12.085 -0.7010  2.7946 -1.4267
16888TIP3   OH272078   0.159   4.579   5.841 -0.4743  0.1521  0.2155
16888TIP3    H172079   0.151   4.540   5.754 -0.1123 -1.4570  0.8990
16888TIP3    H272080   0.213   4.657   5.827  0.1561 -0.4685 -0.8971
16889TIP3   OH272081   2.765   1.779   4.382  0.1045  0.4196 -0.6009
16889TIP3    H172082   2.780   1.687   4.406  1.2376  0.5228 -0.8810
16889TIP3    H272083   2.685   1.803   4.429 -0.5858 -0.9062 -1.0568
16890TIP3   OH272084   1.481   2.219   2.028 -0.2199  0.0284 -0.3582
16890TIP3    H172085   1.550   2.252   1.970 -0.8625 -0.0014 -1.1366
16890TIP3    H272086   1.436   2.298   2.059  1.8812  0.2760  2.3620
16891TIP3   OH272087   5.269   1.456  13.842  0.7945  0.1625 -0.4940
16891TIP3    H172088   5.343   1.442  13.782  0.8548  0.7259 -0.5559
16891TIP3    H272089   5.238   1.368  13.863  0.2847 -0.0202 -1.9555
16892TIP3   OH272090   2.448   4.874  12.721  0.0508 -0.2988  0.4575
16892TIP3    H172091   2.380   4.819  12.760  0.5548 -1.6343 -0.5040
16892TIP3    H272092   2.405   4.958  12.707 -1.0413 -0.7475  1.0335
16893TIP3   OH272093   1.847   1.530  15.113 -0.0912  0.4268  0.3929
16893TIP3    H172094   1.798   1.454  15.147  0.5770 -0.1011  0.1755
16893TIP3    H272095   1.896   1.496  15.039 -2.0816  1.7227 -1.5984
16894TIP3   OH272096   4.676   5.529  13.170 -0.2643 -0.6269  0.2167
16894TIP3    H172097   4.706   5.528  13.261  0.4454 -2.4186 -0.0237
16894TIP3    H272098   4.588   5.491  13.173 -0.1590 -0.8774  0.1314
16895TIP3   OH272099   0.616   5.841  12.768  0.1848  0.1452 -0.1585
16895TIP3    H172100   0.632   5.750  12.792 -0.8400  0.1275  0.4883
16895TIP3    H272101   0.592   5.884  12.850 -0.9630  0.6183 -0.7256
16896TIP3   OH272102   6.546   4.689  16.818  0.8063  0.2390  0.7299
16896TIP3    H172103   6.623   4.660  16.866  1.0987  0.3157  0.3072
16896TIP3    H272104   6.478   4.625  16.840  1.8455 -1.6459 -1.3721
16897TIP3   OH272105   4.902   2.334   4.839  0.4408  0.5799  0.1259
16897TIP3    H172106   4.977   2.373   4.885  0.6688  0.6334 -0.2809
16897TIP3    H272107   4.833   2.400   4.845 -0.0348 -0.0434  1.7119
16898TIP3   OH272108   2.754   0.661  14.406  0.3312 -0.2033  0.0426
16898TIP3    H172109   2.776   0.568  14.417  0.1062 -0.4044 -1.1778
16898TIP3    H272110   2.713   0.685  14.489 -0.5370 -1.4545 -0.0044
16899TIP3   OH272111   3.639   3.061  13.707  0.3593  0.3447 -0.1460
16899TIP3    H172112   3.731   3.072  13.732  0.1964  0.1747  0.5459
16899TIP3    H272113   3.642   2.999  13.635  0.7356 -0.1724  0.3085
16900TIP3   OH272114   1.654   6.016  16.836 -0.6252  0.0776 -0.2153
16900TIP3    H172115   1.734   5.964  16.835 -0.1175  0.8033 -2.4985
16900TIP3    H272116   1.590   5.962  16.882  0.5538 -1.4821 -0.3596
16901TIP3   OH272117   4.544   2.709   4.792 -0.3764 -0.4133  0.0527
16901TIP3    H172118   4.454   2.698   4.822 -0.0464 -0.8312  0.9202
16901TIP3    H272119   4.596   2.656   4.853  0.4142 -0.4689 -0.6654
16902TIP3   OH272120   2.845   5.245   5.646 -0.4543  0.0741 -0.4541
16902TIP3    H172121   2.858   5.242   5.551 -1.1244 -0.3661 -0.5349
16902TIP3    H272122   2.870   5.157   5.676 -0.7495  0.0472 -0.2880
16903TIP3   OH272123   2.757   2.719  14.493  0.6241 -0.4947 -0.1700
16903TIP3    H172124   2.796   2.792  14.540  0.1991 -0.9328  0.8764
16903TIP3    H272125   2.810   2.711  14.413  2.0959 -0.4984  0.7838
16904TIP3   OH272126   1.023   5.658  12.271  0.0019  0.5056  0.2115
16904TIP3    H172127   1.070   5.587  12.315 -0.5922  1.0883  1.8231
16904TIP3    H272128   0.992   5.618  12.189 -1.0887 -1.3791  1.5006
16905TIP3   OH272129   2.225   4.860   4.979  0.1884  0.2025  0.4613
16905TIP3    H172130   2.149   4.808   4.954  0.3810 -0.9100  2.1433
16905TIP3    H272131   2.287   4.797   5.017  1.9430  1.0961 -0.8612
16906TIP3   OH272132   2.773   2.861  13.481 -0.3721  0.3913 -0.0855
16906TIP3    H172133   2.800   2.774  13.508  1.0404  0.8985  0.1824
16906TIP3    H272134   2.687   2.873  13.520 -0.6228 -0.9265 -0.2312
16907TIP3   OH272135   4.316   0.631  14.381 -0.6100  0.3361  0.2260
16907TIP3    H172136   4.362   0.618  14.464 -1.8937  0.4786  0.9679
16907TIP3    H272137   4.364   0.577  14.319 -1.3815 -2.1436  1.6966
16908TIP3   OH272138   2.101   6.446  13.624 -0.4799 -0.1444  0.6621
16908TIP3    H172139   2.056   6.459  13.540 -0.7349  1.6504  1.0548
16908TIP3    H272140   2.190   6.477  13.609 -1.0658  2.0707  1.5882
16909TIP3   OH272141   1.681   1.014  16.954 -0.0245  0.1798  1.0089
16909TIP3    H172142   1.682   0.934  17.007  0.5727 -0.1239  0.5480
16909TIP3    H272143   1.771   1.022  16.921 -0.7842 -0.6186 -1.3955
16910TIP3   OH272144   3.094   1.111  16.242  0.6214 -0.9755 -0.1490
16910TIP3    H172145   3.188   1.116  16.261  0.6551 -0.6591 -0.3940
16910TIP3    H272146   3.079   1.179  16.176  0.0712 -0.4844  0.4763
16911TIP3   OH272147   6.269   2.001  15.320 -0.2283  0.0507 -0.1009
16911TIP3    H172148   6.362   2.023  15.331 -1.0137  3.9872 -0.3268
16911TIP3    H272149   6.263   1.960  15.234  1.3705 -0.8152  0.1831
16912TIP3   OH272150   4.695   6.531   2.080  0.1530 -0.1970 -0.0813
16912TIP3    H172151   4.698   6.595   2.152  1.2286  0.8756 -1.0589
16912TIP3    H272152   4.699   6.584   2.001 -1.7158 -1.3390 -0.9575
16913TIP3   OH272153   0.443   4.550   1.273 -0.5533  0.6852 -0.2765
16913TIP3    H172154   0.533   4.519   1.262 -0.5371  0.6956 -0.1793
16913TIP3    H272155   0.445   4.641   1.243 -0.6957  0.4654 -0.9587
16914TIP3   OH272156   4.398   3.499  11.566 -0.3293  0.0665 -0.2442
16914TIP3    H172157   4.441   3.551  11.634  0.8479 -2.2416  0.8297
16914TIP3    H272158   4.418   3.545  11.484 -0.6705  2.1587  0.8189
16915TIP3   OH272159   3.951   3.725  14.879  0.2364 -0.3481  0.3011
16915TIP3    H172160   3.857   3.724  14.860 -0.0301 -0.6197  1.6329
16915TIP3    H272161   3.970   3.815  14.904  0.4483 -0.1613 -0.5115
16916TIP3   OH272162   5.587   4.709  15.986  0.0866  0.3159 -0.2735
16916TIP3    H172163   5.576   4.614  15.997 -1.1533  0.4307 -0.5069
16916TIP3    H272164   5.682   4.721  15.983  0.2569 -0.9311 -0.3667
16917TIP3   OH272165   4.543   5.582   2.919  0.3950 -0.2525  0.1846
16917TIP3    H172166   4.521   5.528   2.995  0.0139 -0.7608 -0.2866
16917TIP3    H272167   4.467   5.638   2.905 -1.6250 -3.6017 -2.8496
16918TIP3   OH272168   1.270   2.727  14.032  0.2277 -0.4186 -0.1974
16918TIP3    H172169   1.277   2.778  13.951 -3.1426  0.5258  0.0492
16918TIP3    H272170   1.176   2.725  14.051  0.7803 -2.4453  2.5519
16919TIP3   OH272171   0.397   4.964  12.158 -0.1790 -0.5088  0.2557
16919TIP3    H172172   0.388   5.052  12.193 -0.5338 -0.4908  0.1138
16919TIP3    H272173   0.392   4.975  12.063  0.1515 -0.6366  0.2202
16920TIP3   OH272174   6.011   4.354  16.687 -0.3173  0.0395  0.3558
16920TIP3    H172175   6.047   4.436  16.652 -0.3046  0.0112  0.3054
16920TIP3    H272176   5.916   4.367  16.683 -0.3091  0.3014  0.9286
16921TIP3   OH272177   3.341   0.457  16.124 -0.3137 -0.0029 -0.4352
16921TIP3    H172178   3.291   0.495  16.196 -1.7849 -1.4966 -0.6294
16921TIP3    H272179   3.311   0.503  16.046 -0.8883 -0.4102 -0.4582
16922TIP3   OH272180   3.658   4.893   3.388 -0.0218 -0.3872  0.2067
16922TIP3    H172181   3.565   4.908   3.405 -0.4865 -2.2898 -0.5768
16922TIP3    H272182   3.703   4.937   3.461 -1.4329  1.9808 -0.2917
16923TIP3   OH272183   3.392   6.768   4.880 -0.4414 -0.1972 -0.1977
16923TIP3    H172184   3.307   6.723   4.880  0.4369 -1.9702 -3.6332
16923TIP3    H272185   3.388   6.828   4.805 -0.3716  3.3008  2.4251
16924TIP3   OH272186   3.020   2.097   2.178 -0.0499 -0.2705 -0.5192
16924TIP3    H172187   3.113   2.120   2.172  0.1650 -1.5363 -2.3308
16924TIP3    H272188   2.988   2.149   2.252  2.2772 -0.4201  0.6518
16925TIP3   OH272189   1.979   1.528  12.196  0.3944 -0.1243  0.7006
16925TIP3    H172190   2.050   1.516  12.132  0.9167 -2.8537  1.7608
16925TIP3    H272191   1.924   1.596  12.157  1.7202 -0.3995 -1.7641
16926TIP3   OH272192   2.712   4.156   2.332  0.1445  0.1650 -0.0897
16926TIP3    H172193   2.635   4.147   2.276 -0.5141  0.6278  0.7268
16926TIP3    H272194   2.736   4.248   2.325  0.5122  0.0589 -0.2030
16927TIP3   OH272195   2.938   4.675  13.311 -0.5077  0.1529  0.3589
16927TIP3    H172196   3.008   4.708  13.366 -1.6490  0.9489  1.3455
16927TIP3    H272197   2.968   4.588  13.283  0.8780  0.5071  0.7339
16928TIP3   OH272198   0.360   0.559  12.216  0.5871  0.2123  0.0828
16928TIP3    H172199   0.338   0.569  12.309  0.8531 -0.5763  0.2316
16928TIP3    H272200   0.456   0.569  12.213  0.4364  1.6535 -0.2968
16929TIP3   OH272201   0.661   4.856  15.625 -0.0503 -0.0227 -0.2177
16929TIP3    H172202   0.622   4.898  15.701  2.4071  1.2305  0.3969
16929TIP3    H272203   0.586   4.829  15.572 -1.7561  1.6517  1.2515
16930TIP3   OH272204   4.460   5.962   5.706  0.6339  0.3940 -0.0950
16930TIP3    H172205   4.444   5.875   5.670 -3.8136  0.4667  1.3056
16930TIP3    H272206   4.421   6.022   5.642  1.6949  1.2274  0.0191
16931TIP3   OH272207   2.224   2.809   6.012  0.3810 -0.1405  0.2383
16931TIP3    H172208   2.161   2.754   5.965 -0.3944  0.5497  0.4614
16931TIP3    H272209   2.285   2.746   6.051  0.2739 -0.7783 -0.6032
16932TIP3   OH272210   3.700   4.840  13.575  0.4432  0.4403  0.2903
16932TIP3    H172211   3.667   4.855  13.664 -0.5506  0.8352 -0.1461
16932TIP3    H272212   3.785   4.798  13.589  0.5032  0.9118  1.4339
16933TIP3   OH272213   2.012   2.698   0.592  0.7404  0.0125 -0.4700
16933TIP3    H172214   1.960   2.683   0.671  0.0883  0.4996 -0.8023
16933TIP3    H272215   2.097   2.728   0.625 -0.1419  2.0612  0.0082
16934TIP3   OH272216   4.706   3.992  14.368  0.2331 -1.1111 -0.3145
16934TIP3    H172217   4.619   4.007  14.405  0.9639  0.8924  0.6941
16934TIP3    H272218   4.690   3.960  14.279 -1.5414 -0.4702 -0.2311
16935TIP3   OH272219   6.585   0.064   2.199  0.0949  0.0253  0.5599
16935TIP3    H172220   6.569   0.107   2.283  0.3647  0.5578  0.3381
16935TIP3    H272221   6.680   0.059   2.193  0.1408  1.7960 -0.6247
16936TIP3   OH272222   5.019   2.894   4.511 -0.1351 -0.5342  0.6789
16936TIP3    H172223   5.083   2.946   4.559 -1.3951  2.4768 -0.7760
16936TIP3    H272224   4.934   2.930   4.538 -1.0551 -2.1206 -0.0492
16937TIP3   OH272225   3.685   3.905   2.534  0.9289  0.1106  0.1229
16937TIP3    H172226   3.650   3.983   2.576  1.3620 -0.4634  1.5990
16937TIP3    H272227   3.768   3.933   2.496  0.2543  0.7767 -0.8684
16938TIP3   OH272228   1.300   4.578  13.021 -0.2195  0.4945  0.1594
16938TIP3    H172229   1.369   4.641  13.003  1.1163 -1.1570 -0.6576
16938TIP3    H272230   1.235   4.592  12.952  0.1222  0.9033 -0.0808
16939TIP3   OH272231   3.839   0.454  12.965 -0.4758 -0.4652 -0.8127
16939TIP3    H172232   3.810   0.546  12.962  0.4228 -0.1816 -0.9396
16939TIP3    H272233   3.913   0.450  12.905  0.0190 -1.0864 -0.1750
16940TIP3   OH272234   3.371   2.861  15.354 -0.5172 -0.2726  0.4408
16940TIP3    H172235   3.364   2.831  15.263  0.7787  0.1904  0.1663
16940TIP3    H272236   3.281   2.873  15.383 -0.9619 -1.1430 -0.5487
16941TIP3   OH272237   4.520   1.403  11.349 -0.3964 -0.6868  0.3123
16941TIP3    H172238   4.541   1.349  11.273 -0.1263 -0.1660  0.0119
16941TIP3    H272239   4.451   1.462  11.318  0.1109 -0.0953  0.3125
16942TIP3   OH272240   2.580   0.513  13.955  0.5820 -0.2918  0.2126
16942TIP3    H172241   2.566   0.446  13.888  0.1722 -1.2537  1.2305
16942TIP3    H272242   2.667   0.493  13.990  0.1273 -0.7888  1.0647
16943TIP3   OH272243   6.357   2.988   2.113 -0.5545  0.3138  0.2297
16943TIP3    H172244   6.284   3.008   2.171  0.7468  2.7164  1.1484
16943TIP3    H272245   6.380   3.073   2.074  2.2128 -0.1953  0.5933
16944TIP3   OH272246   3.381   2.657   1.764  0.0574 -0.0422  0.2922
16944TIP3    H172247   3.365   2.684   1.855  0.5882 -0.3716  0.4835
16944TIP3    H272248   3.476   2.657   1.756  0.0360 -1.0751  0.0467
16945TIP3   OH272249   4.434   4.639  13.938  0.1348 -0.1739 -0.2523
16945TIP3    H172250   4.479   4.589  14.005 -0.7252 -0.2143  0.3114
16945TIP3    H272251   4.496   4.646  13.866  0.7754 -0.8048  0.2430
16946TIP3   OH272252   1.499   3.604   4.259  0.2602  0.3523  0.4554
16946TIP3    H172253   1.487   3.698   4.272  0.5247  0.3298  0.8928
16946TIP3    H272254   1.411   3.569   4.255  0.1539  0.7039 -0.3656
16947TIP3   OH272255   1.236   0.882   0.235  0.1512 -0.2906 -0.1145
16947TIP3    H172256   1.282   0.921   0.310  1.3615  0.5026 -1.2312
16947TIP3    H272257   1.162   0.940   0.220  1.0372  0.7047 -0.7557
16948TIP3   OH272258   0.020   5.506  13.664  0.3921 -0.6258 -0.8483
16948TIP3    H172259   0.067   5.457  13.731 -0.2167 -0.2872 -0.1605
16948TIP3    H272260   0.005   5.442  13.594  1.5919 -0.8090 -0.9450
16949TIP3   OH272261   5.011   1.511   5.812  0.3617 -0.4867  0.5843
16949TIP3    H172262   4.984   1.571   5.881 -0.2475  2.2025 -1.8717
16949TIP3    H272263   5.107   1.509   5.818  0.4402  1.4386  0.1699
16950TIP3   OH272264   5.879   1.528   4.459  0.4638  0.6438 -0.6574
16950TIP3    H172265   5.793   1.530   4.501  0.9889  0.6986  0.4163
16950TIP3    H272266   5.903   1.435   4.456  1.8410  0.8676  2.0890
16951TIP3   OH272267   5.539   2.814   6.551 -0.7099  0.2081  0.0583
16951TIP3    H172268   5.492   2.759   6.488 -0.8108  0.0034  0.3174
16951TIP3    H272269   5.512   2.783   6.637 -0.9166  0.7888  0.2060
16952TIP3   OH272270   5.000   5.333  10.740 -0.3889 -0.0531  0.0793
16952TIP3    H172271   5.090   5.322  10.709 -1.0217  0.4706 -2.0566
16952TIP3    H272272   4.958   5.383  10.670 -1.8607  1.3001  1.9055
16953TIP3   OH272273   2.909   4.780   1.627  0.3312 -0.5787  0.2809
16953TIP3    H172274   2.934   4.818   1.711  1.5191 -0.1806 -0.2417
16953TIP3    H272275   2.929   4.687   1.636  1.6418 -0.3274  0.0087
16954TIP3   OH272276   5.105   6.781   4.014  0.6401 -0.0178 -0.5972
16954TIP3    H172277   5.029   6.822   3.972 -0.7140  0.4647  2.2571
16954TIP3    H272278   5.086   6.687   4.011 -0.4769  0.1506  0.8410
16955TIP3   OH272279   5.286   5.999   0.832  0.1695  0.0374 -0.6184
16955TIP3    H172280   5.295   5.991   0.737 -0.8525  0.8392 -0.7847
16955TIP3    H272281   5.192   6.004   0.847  0.3535  0.5184  0.3927
16956TIP3   OH272282   2.482   1.557  12.683  0.3250  0.6857  0.3782
16956TIP3    H172283   2.571   1.589  12.667  0.1923  0.4203 -0.9437
16956TIP3    H272284   2.451   1.530  12.597 -0.8103  0.1860  0.9418
16957TIP3   OH272285   6.690   0.794  11.491 -0.8095 -0.2276 -0.0156
16957TIP3    H172286   6.760   0.730  11.478 -0.2210  0.8033 -2.2375
16957TIP3    H272287   6.619   0.763  11.433  0.1928  2.1001 -2.5816
16958TIP3   OH272288   3.024   5.808  11.923  0.1136 -0.0947 -0.0035
16958TIP3    H172289   3.019   5.901  11.945  0.1341 -0.2803  0.8157
16958TIP3    H272290   3.011   5.763  12.007  3.1242 -0.7761  0.1580
16959TIP3   OH272291   3.674   3.056   2.036 -0.2130  0.3014 -0.2473
16959TIP3    H172292   3.714   3.061   1.949  2.4824 -2.4690  0.7375
16959TIP3    H272293   3.713   3.128   2.085  1.1917 -0.4384 -0.2467
16960TIP3   OH272294   5.480   4.438   0.270 -0.3092 -0.1101  0.0598
16960TIP3    H172295   5.528   4.357   0.287  0.4206 -0.0249 -1.5401
16960TIP3    H272296   5.439   4.460   0.354  2.1731 -0.3648  1.3926
16961TIP3   OH272297   0.826   5.508   2.798 -0.1198  0.2470  0.5412
16961TIP3    H172298   0.777   5.579   2.756  2.4222  0.7070 -1.7830
16961TIP3    H272299   0.827   5.438   2.733  2.4786  0.3503  0.4152
16962TIP3   OH272300   6.327   1.687  13.549  0.4756  0.2980 -0.2950
16962TIP3    H172301   6.288   1.721  13.630  2.1642 -0.9703  1.0751
16962TIP3    H272302   6.385   1.757  13.520  0.5757  0.3829  0.0986
16963TIP3   OH272303   6.451   4.333  13.121  0.4629  0.3904 -0.2705
16963TIP3    H172304   6.406   4.346  13.038 -0.0268 -0.1797 -0.1030
16963TIP3    H272305   6.391   4.278  13.172  1.1672 -0.0339  0.1074
16964TIP3   OH272306   6.466   2.023  16.734  0.9701 -0.3175 -0.4146
16964TIP3    H172307   6.379   2.007  16.698  0.5211 -0.9905  0.9466
16964TIP3    H272308   6.507   1.936  16.735  0.7885 -0.3981  1.1679
16965TIP3   OH272309   4.520   0.905  15.712  0.3643 -0.3570  0.1252
16965TIP3    H172310   4.449   0.908  15.776 -0.8295 -0.5053 -1.1628
16965TIP3    H272311   4.478   0.925  15.628  1.9750  0.2856 -0.5668
16966TIP3   OH272312   0.157   4.102   3.940 -1.0200  0.0683 -0.2799
16966TIP3    H172313   0.151   4.160   4.016 -0.9239  0.2091 -0.3785
16966TIP3    H272314   0.166   4.014   3.978  0.6057  0.2878 -0.1108
16967TIP3   OH272315   6.599   0.773   3.516 -0.5108  0.1596 -0.1328
16967TIP3    H172316   6.589   0.686   3.553 -0.9376  0.6854  0.9992
16967TIP3    H272317   6.678   0.808   3.558  0.0804  0.0407 -1.1318
16968TIP3   OH272318   2.637   4.584  14.518 -0.1742  0.2505  0.3413
16968TIP3    H172319   2.719   4.539  14.537 -0.9760 -1.2822  0.2422
16968TIP3    H272320   2.649   4.620  14.430  0.2168 -0.3831  0.1325
16969TIP3   OH272321   4.673   5.325   2.697 -1.1241 -0.2210 -0.1750
16969TIP3    H172322   4.766   5.309   2.712 -1.0100  1.8637  1.5994
16969TIP3    H272323   4.670   5.408   2.648 -1.9789 -1.5388 -2.4444
16970TIP3   OH272324   3.729   6.783   6.648  0.4033 -0.1316 -1.0025
16970TIP3    H172325   3.799   6.723   6.623 -0.3102 -1.3417 -0.1420
16970TIP3    H272326   3.754   6.815   6.735 -0.3509 -0.9612 -0.4686
16971TIP3   OH272327   3.350   6.035   5.408 -0.1721  0.1187 -0.2534
16971TIP3    H172328   3.331   6.035   5.314  0.2777  1.5189 -0.3510
16971TIP3    H272329   3.323   6.121   5.439  1.4137  0.3452  0.5464
16972TIP3   OH272330   2.397   3.658  16.085  0.7065  1.2535 -0.5763
16972TIP3    H172331   2.451   3.590  16.044  0.1513  1.3271 -1.4284
16972TIP3    H272332   2.419   3.651  16.178 -0.6620 -1.2975 -0.3888
16973TIP3   OH272333   2.727   4.813  13.405 -0.3709 -0.0833 -0.2527
16973TIP3    H172334   2.701   4.773  13.487 -1.5605 -1.0280 -1.0713
16973TIP3    H272335   2.792   4.754  13.368 -0.2675  0.0409 -0.2708
16974TIP3   OH272336   3.568   1.473  15.601 -0.5159  0.1902  0.0839
16974TIP3    H172337   3.661   1.454  15.587 -0.5973 -0.6934  0.6904
16974TIP3    H272338   3.565   1.566  15.621  0.0335  0.6343 -1.7929
16975TIP3   OH272339   5.218   1.540   1.949  0.6261  0.3067 -0.1972
16975TIP3    H172340   5.140   1.553   2.002  0.0229 -0.0572 -0.9964
16975TIP3    H272341   5.284   1.509   2.012 -0.2098 -0.5570  0.2715
16976TIP3   OH272342   5.398   2.167   3.987 -0.1930 -0.9208  0.4006
16976TIP3    H172343   5.313   2.198   3.955 -0.5536 -0.8863  1.3563
16976TIP3    H272344   5.459   2.237   3.963 -0.6979 -0.2618  1.0070
16977TIP3   OH272345   5.086   4.343   4.235 -0.3929  0.1499  0.0074
16977TIP3    H172346   5.019   4.280   4.207 -0.5071  0.0852  0.4245
16977TIP3    H272347   5.157   4.288   4.269 -1.2340  0.2837  2.0454
16978TIP3   OH272348   0.545   4.771  16.947 -0.1672 -0.0578  0.2254
16978TIP3    H172349   0.543   4.682  16.981  0.8951  1.3576  4.3343
16978TIP3    H272350   0.637   4.791  16.936 -0.2892  1.1437  1.2226
16979TIP3   OH272351   1.183   5.052   3.563 -0.6747  0.1944  0.1724
16979TIP3    H172352   1.248   5.106   3.517 -1.8919  0.4011 -1.3538
16979TIP3    H272353   1.235   4.993   3.617  0.7695  0.8882 -0.4297
16980TIP3   OH272354   5.130   1.946  13.375  0.0640 -0.2806  0.0475
16980TIP3    H172355   5.135   1.851  13.360  0.2609 -0.0936 -1.0790
16980TIP3    H272356   5.110   1.954  13.469 -0.3337 -1.4383  0.0691
16981TIP3   OH272357   6.262   3.600  17.177  0.5548 -0.1632  0.4317
16981TIP3    H172358   6.200   3.612  17.249 -1.2498 -0.5653 -1.0022
16981TIP3    H272359   6.234   3.520  17.134  2.1424 -0.3987 -0.2082
16982TIP3   OH272360   4.344   0.383   5.691  0.1957  0.1142 -0.1378
16982TIP3    H172361   4.260   0.338   5.678 -0.3169  1.2529 -0.8232
16982TIP3    H272362   4.356   0.385   5.785 -0.5976  0.0273 -0.0305
16983TIP3   OH272363   5.364   0.112   2.376  0.0769 -0.1551 -0.3994
16983TIP3    H172364   5.406   0.171   2.438 -1.1999 -1.1492  1.4424
16983TIP3    H272365   5.435   0.060   2.340  0.9709  1.2125 -0.6483
16984TIP3   OH272366   0.642   1.754   2.819  0.5101 -0.5269  0.2583
16984TIP3    H172367   0.634   1.739   2.914 -1.0250  0.2618  0.2606
16984TIP3    H272368   0.658   1.848   2.811  0.9297 -0.6408 -0.2555
16985TIP3   OH272369   0.417   1.307   2.247 -0.4245  0.3211  0.4287
16985TIP3    H172370   0.339   1.294   2.301  0.5706 -2.6751  1.2203
16985TIP3    H272371   0.482   1.344   2.307  0.0056 -0.9731  0.7699
16986TIP3   OH272372   5.746   2.789  12.055 -0.2926 -0.1978  0.1059
16986TIP3    H172373   5.813   2.783  12.123 -0.4816  5.4989  1.0030
16986TIP3    H272374   5.795   2.798  11.973 -0.0337  0.3473  0.3266
16987TIP3   OH272375   0.643   5.038   1.567  0.0697  0.2035 -0.0036
16987TIP3    H172376   0.738   5.024   1.573  0.0062  0.4946  2.2554
16987TIP3    H272377   0.605   4.950   1.576  0.0890  0.2805  0.9266
16988TIP3   OH272378   5.777   6.781  14.780  0.7400 -0.7082  0.3142
16988TIP3    H172379   5.795   6.756  14.871  1.9140  1.2673  0.6447
16988TIP3    H272380   5.732   6.865  14.786 -0.8664 -1.4501 -0.8862
16989TIP3   OH272381   2.385   1.304  16.799 -0.4759  0.1027 -0.8309
16989TIP3    H172382   2.335   1.319  16.719 -1.7195  2.4855  0.3277
16989TIP3    H272383   2.382   1.388  16.845  2.6661 -0.3750  0.3667
16990TIP3   OH272384   0.353   0.104   2.323  0.6352  0.1818 -0.1194
16990TIP3    H172385   0.417   0.046   2.364 -0.1506  0.3059  1.3105
16990TIP3    H272386   0.322   0.056   2.247  1.2944 -0.5190  0.0484
16991TIP3   OH272387   1.579   1.839   1.084  0.2324 -0.0303 -0.2210
16991TIP3    H172388   1.654   1.816   1.029 -0.1044  0.1484 -0.7644
16991TIP3    H272389   1.538   1.913   1.039  0.2619  0.4698  0.5604
16992TIP3   OH272390   3.129   1.139   3.006  0.8702 -0.2174 -0.1561
16992TIP3    H172391   3.155   1.105   3.092  0.6520 -1.3277 -0.5183
16992TIP3    H272392   3.174   1.223   2.999  1.0974 -0.2417  0.9389
16993TIP3   OH272393   2.196   6.303   0.768  0.2481 -0.7082  0.1731
16993TIP3    H172394   2.217   6.211   0.755  1.4054 -0.4992  0.5844
16993TIP3    H272395   2.126   6.302   0.834 -0.0600 -1.3051 -0.1514
16994TIP3   OH272396   1.338   5.535  15.549  0.6298 -0.3581  0.0258
16994TIP3    H172397   1.306   5.445  15.548 -1.8664  0.4800  1.1019
16994TIP3    H272398   1.273   5.583  15.599  3.1301  1.6189  1.5235
16995TIP3   OH272399   3.950   4.048  17.112 -0.6019 -0.0642 -0.2089
16995TIP3    H172400   4.021   4.073  17.171 -0.1575  0.0674 -0.7924
16995TIP3    H272401   3.992   4.038  17.027 -1.1979 -0.4800 -0.4588
16996TIP3   OH272402   0.943   2.026   1.372  0.4871 -0.8879 -0.2600
16996TIP3    H172403   0.918   2.118   1.365 -1.0319 -1.3037 -0.4574
16996TIP3    H272404   0.995   2.009   1.293 -0.7294 -0.6548 -1.1258
16997TIP3   OH272405   2.497   2.138   4.712  0.9916  0.7482 -0.7810
16997TIP3    H172406   2.522   2.084   4.787  3.1498  1.3252 -1.0358
16997TIP3    H272407   2.489   2.226   4.748  1.0918  0.8611 -1.0315
16998TIP3   OH272408   3.954   2.255  15.778 -0.2968  0.0476  0.1274
16998TIP3    H172409   3.887   2.301  15.829  0.0019  0.6298 -0.0044
16998TIP3    H272410   4.025   2.240  15.840 -1.0510 -1.6773  0.5945
16999TIP3   OH272411   3.913   3.535   4.207  0.2473 -0.2754  0.1254
16999TIP3    H172412   3.928   3.629   4.197  0.0113  0.1007  2.8877
16999TIP3    H272413   3.818   3.526   4.206  0.2769 -0.5346 -0.4869
17000TIP3   OH272414   1.640   2.926  11.170  0.3665 -0.5299 -0.1465
17000TIP3    H172415   1.635   2.935  11.265  1.8505 -1.2748  0.0260
17000TIP3    H272416   1.729   2.954  11.148  0.2169 -0.8785 -1.2545
17001TIP3   OH272417   1.335   0.608  13.717  0.1271  0.4277 -0.6564
17001TIP3    H172418   1.355   0.574  13.630  1.7163  0.4749 -0.3164
17001TIP3    H272419   1.413   0.656  13.743 -1.3975  2.8177 -0.3636
17002TIP3   OH272420   1.549   4.647  11.236 -0.1840 -0.3899  0.5644
17002TIP3    H172421   1.565   4.726  11.288  0.2548  0.0256 -0.2029
17002TIP3    H272422   1.458   4.624  11.255 -0.0855 -0.1250  1.3655
17003TIP3   OH272423   4.086   1.508  13.804 -0.1387  0.4633  0.3010
17003TIP3    H172424   4.013   1.513  13.742  2.1568 -0.9177 -2.6615
17003TIP3    H272425   4.045   1.488  13.888 -3.0393 -2.5168 -1.6981
17004TIP3   OH272426   0.299   4.564  13.387  0.3579 -0.2539 -0.1010
17004TIP3    H172427   0.306   4.534  13.478 -2.1169  0.5939  0.4310
17004TIP3    H272428   0.352   4.644  13.384  0.1964 -0.1090  0.7119
17005TIP3   OH272429   4.130   0.069  11.909 -0.0533  0.2586  0.0455
17005TIP3    H172430   4.070   0.068  11.984 -0.0584  0.6104  0.0463
17005TIP3    H272431   4.083   0.021  11.840  0.9006 -2.0897  0.9842
17006TIP3   OH272432   6.780   0.729   1.067 -0.3037 -0.5636  0.4560
17006TIP3    H172433   6.701   0.675   1.076 -0.7078 -0.0220  0.1872
17006TIP3    H272434   6.747   0.815   1.042  0.4942 -0.8705 -1.8225
17007TIP3   OH272435   2.555   6.227   0.584 -0.2926 -0.1935  0.1771
17007TIP3    H172436   2.493   6.155   0.592 -0.4169 -0.1837 -0.7027
17007TIP3    H272437   2.572   6.234   0.490  0.5748  0.1935  0.3571
17008TIP3   OH272438   5.188   4.549   3.915  0.3926 -0.0329 -0.2297
17008TIP3    H172439   5.110   4.584   3.958  1.0148 -0.5340  1.3301
17008TIP3    H272440   5.158   4.525   3.827 -0.7422  1.6122 -0.3259
17009TIP3   OH272441   1.258   3.105  15.249  0.7481  0.5361 -0.6907
17009TIP3    H172442   1.261   3.011  15.233  0.4665  0.4420 -0.1962
17009TIP3    H272443   1.324   3.120  15.317 -0.1691  0.4955  0.2168
17010TIP3   OH272444   4.737   2.352   0.127  0.1363 -0.9262 -0.3345
17010TIP3    H172445   4.823   2.337   0.087  0.6221 -1.9083  1.0014
17010TIP3    H272446   4.755   2.349   0.221 -1.2428 -0.3684 -0.0530
17011TIP3   OH272447   3.415   4.353  13.591  0.2426 -0.0834 -0.9094
17011TIP3    H172448   3.454   4.434  13.624  0.8794 -0.2057 -1.3417
17011TIP3    H272449   3.423   4.291  13.664  0.0827  0.1435 -0.7014
17012TIP3   OH272450   5.354   4.974  16.427  0.3225  0.4698 -0.2839
17012TIP3    H172451   5.340   5.053  16.375  1.5931  1.4147  0.7708
17012TIP3    H272452   5.450   4.965  16.430  0.1990 -0.6852  0.2324
17013TIP3   OH272453   3.294   1.803   5.458 -0.2340 -0.1210  0.7018
17013TIP3    H172454   3.278   1.851   5.539 -1.1046  0.2399  0.3234
17013TIP3    H272455   3.305   1.870   5.391 -1.6399 -0.4250  0.1343
17014TIP3   OH272456   0.735   1.376  13.423 -0.1826  0.5618  0.2772
17014TIP3    H172457   0.656   1.367  13.477  0.3134  2.4947  1.3707
17014TIP3    H272458   0.702   1.404  13.337 -0.8246 -0.7634  0.0626
17015TIP3   OH272459   3.590   0.006  15.647 -0.0754 -0.7817  0.6720
17015TIP3    H172460   3.578  -0.088  15.655  1.4223 -1.1645 -1.3154
17015TIP3    H272461   3.609   0.035  15.736  2.7866 -2.8505  0.7915
17016TIP3   OH272462   6.620   0.294  16.042 -0.3439 -0.5385 -0.2051
17016TIP3    H172463   6.632   0.389  16.049 -1.6676 -0.4126  0.3681
17016TIP3    H272464   6.615   0.264  16.133  0.8972 -1.2707 -0.3673
17017TIP3   OH272465   0.192   6.380  11.473 -0.0304 -0.2643 -0.2726
17017TIP3    H172466   0.234   6.373  11.387 -0.7843 -0.9768 -0.5908
17017TIP3    H272467   0.145   6.464  11.469  0.7029  0.1503 -0.2085
17018TIP3   OH272468   3.443   3.046  16.278  0.0176 -0.0140 -0.2965
17018TIP3    H172469   3.525   3.083  16.246  0.5341 -3.6770 -3.6154
17018TIP3    H272470   3.383   3.052  16.203 -2.1373  0.8001  1.4362
17019TIP3   OH272471   2.748   6.449   1.787  0.1652 -0.0698 -0.3794
17019TIP3    H172472   2.764   6.372   1.841  0.0338 -0.3827 -0.7866
17019TIP3    H272473   2.813   6.513   1.817 -1.3669  0.5457  1.7012
17020TIP3   OH272474   3.093   3.131   0.183  0.5165 -0.4999  0.8376
17020TIP3    H172475   3.045   3.174   0.111  1.1291 -2.7691 -0.9896
17020TIP3    H272476   3.044   3.155   0.261 -0.6246  1.4154 -0.4027
17021TIP3   OH272477   5.066   5.292   1.414 -0.4440  0.3670 -0.1806
17021TIP3    H172478   5.047   5.202   1.389 -1.0568  0.3132  0.4648
17021TIP3    H272479   5.087   5.336   1.331  1.6868 -0.7913 -0.2861
17022TIP3   OH272480   2.570   1.441   0.666 -0.1180  0.6109  0.2836
17022TIP3    H172481   2.482   1.472   0.649 -0.5475 -0.0140  1.2899
17022TIP3    H272482   2.619   1.519   0.693 -0.1699  1.0781 -0.9175
17023TIP3   OH272483   2.986   3.677   2.471 -0.4435 -0.3242  0.0123
17023TIP3    H172484   2.997   3.678   2.566  1.2684  1.3043 -0.1559
17023TIP3    H272485   3.075   3.665   2.437 -0.9356 -0.0950 -1.3855
17024TIP3   OH272486   5.189   3.851  12.529 -0.4009 -0.3752  0.1337
17024TIP3    H172487   5.238   3.889  12.456  2.3415 -0.6823  1.7347
17024TIP3    H272488   5.110   3.905  12.536  2.1175  3.4633  0.6826
17025TIP3   OH272489   5.355   6.656  15.329 -0.4314 -0.1564 -0.4117
17025TIP3    H172490   5.389   6.722  15.390 -1.1019 -0.3521  0.1855
17025TIP3    H272491   5.315   6.707  15.259  0.9102  0.0769 -1.0294
17026TIP3   OH272492   3.548   0.588   1.881  0.2840 -0.1984  0.5530
17026TIP3    H172493   3.598   0.554   1.807 -0.4807 -0.9409  0.3774
17026TIP3    H272494   3.543   0.683   1.866  1.6216 -0.1216  0.5639
17027TIP3   OH272495   4.110   1.530  14.086  0.1792  0.4957  0.7585
17027TIP3    H172496   4.140   1.619  14.065 -2.1420  1.4312  1.2477
17027TIP3    H272497   4.117   1.525  14.181 -1.8751  1.0046  0.9591
17028TIP3   OH272498   3.473   6.428   3.134  0.4735 -0.7284 -0.5311
17028TIP3    H172499   3.396   6.420   3.076  1.5243 -2.5717 -1.7286
17028TIP3    H272500   3.533   6.484   3.085 -0.8965  2.5549  1.3503
17029TIP3   OH272501   5.844   5.954  12.596  0.0547 -0.1212 -0.4739
17029TIP3    H172502   5.873   5.910  12.516  0.8562 -1.0880  0.3355
17029TIP3    H272503   5.775   5.897  12.631  0.0761  0.0223 -0.1991
17030TIP3   OH272504   2.255   2.858  12.857  0.0840 -0.0385  0.2768
17030TIP3    H172505   2.294   2.933  12.902 -0.7146 -0.6516  2.0255
17030TIP3    H272506   2.279   2.783  12.911  0.4422 -0.9810 -1.1898
17031TIP3   OH272507   2.197   0.046   2.453 -0.3943 -0.3437  0.5165
17031TIP3    H172508   2.291   0.060   2.442 -0.6213  1.0281  0.2502
17031TIP3    H272509   2.182   0.056   2.546 -0.3714 -0.0117  0.4828
17032TIP3   OH272510   4.405   5.889   0.493 -0.3907  0.4671 -0.2957
17032TIP3    H172511   4.480   5.871   0.437 -0.4963 -0.4901 -0.1398
17032TIP3    H272512   4.375   5.802   0.521 -0.0546  0.9409  1.5885
17033TIP3   OH272513   3.658   4.365  13.107 -0.0732  0.8041  0.1143
17033TIP3    H172514   3.586   4.397  13.053 -0.2736  0.9049  0.4457
17033TIP3    H272515   3.735   4.410  13.072 -0.1722  0.7081 -0.2294
17034TIP3   OH272516   6.199   4.163   3.919 -0.3814  0.3135 -0.7577
17034TIP3    H172517   6.226   4.080   3.881  0.2236 -0.1776  0.7006
17034TIP3    H272518   6.114   4.182   3.878  0.0890 -0.3682 -2.0534
17035TIP3   OH272519   4.125   4.620  16.464 -0.1424  0.2027 -0.3282
17035TIP3    H172520   4.105   4.549  16.525 -0.6959  1.2053  0.6915
17035TIP3    H272521   4.043   4.635  16.417  0.2412 -0.4619 -1.2027
17036TIP3   OH272522   0.533   5.319  13.094  0.0426  0.8498  0.1499
17036TIP3    H172523   0.588   5.272  13.031 -3.3698  0.2150 -2.5244
17036TIP3    H272524   0.444   5.309  13.060 -1.6198  2.9319  3.6029
17037TIP3   OH272525   1.774   5.314   2.844 -0.1736  0.7362  0.1349
17037TIP3    H172526   1.817   5.332   2.760  0.5158 -0.4093  0.2201
17037TIP3    H272527   1.683   5.294   2.821 -0.2938  1.6384 -0.2056
17038TIP3   OH272528   3.648   1.886   0.948  0.1862  0.3951 -0.2708
17038TIP3    H172529   3.702   1.838   1.011 -1.1804 -0.3594  0.3490
17038TIP3    H272530   3.706   1.902   0.874  0.8249 -1.7794 -0.2707
17039TIP3   OH272531   2.744   2.252  14.364  0.0404 -0.1119 -0.1191
17039TIP3    H172532   2.828   2.209  14.382 -0.9084 -1.0989  2.2831
17039TIP3    H272533   2.738   2.254  14.269  2.3478 -0.8933 -0.3250
17040TIP3   OH272534   3.856   2.426  15.569  0.4347 -0.5225  0.6960
17040TIP3    H172535   3.876   2.337  15.599  0.9216 -0.6011  0.1606
17040TIP3    H272536   3.905   2.483  15.628  0.2951 -0.6227  0.9068
17041TIP3   OH272537   2.429   4.256  11.359  0.2116  0.2972 -0.4689
17041TIP3    H172538   2.476   4.319  11.413  0.6959 -2.3446  2.3625
17041TIP3    H272539   2.339   4.288  11.357  0.1999  0.5119  1.8832
17042TIP3   OH272540   0.437   1.199  11.692  0.5677 -0.5256  0.2211
17042TIP3    H172541   0.414   1.276  11.640  2.9135  1.5160  2.0505
17042TIP3    H272542   0.391   1.211  11.774  1.8265 -0.4494  0.9352
17043TIP3   OH272543   1.154   6.044   0.832 -0.8694 -0.9225 -0.1744
17043TIP3    H172544   1.243   6.061   0.865 -0.2718 -1.2320 -1.6036
17043TIP3    H272545   1.097   6.072   0.904  0.3299  0.6001  0.2232
17044TIP3   OH272546   3.649   6.442   4.884 -0.1258  0.2975 -0.2333
17044TIP3    H172547   3.676   6.405   4.800 -0.4825 -0.3865 -0.0541
17044TIP3    H272548   3.596   6.373   4.924 -0.7775  1.0063  0.1233
17045TIP3   OH272549   4.541   1.701   3.778 -0.3631  0.1559  0.0845
17045TIP3    H172550   4.454   1.701   3.738 -1.1563 -0.8838  1.7322
17045TIP3    H272551   4.523   1.689   3.872  1.6003 -1.0554  0.3223
17046TIP3   OH272552   0.890   2.810   5.105 -0.1129  0.1985  0.0532
17046TIP3    H172553   0.890   2.836   5.197 -0.3971  0.2913  0.0268
17046TIP3    H272554   0.938   2.880   5.060  0.9250 -0.3637  0.2746
17047TIP3   OH272555   4.581   1.884   6.163  0.3824 -0.5311 -0.6439
17047TIP3    H172556   4.631   1.948   6.113  0.7918 -1.1346 -1.0126
17047TIP3    H272557   4.540   1.829   6.096 -2.0171  0.8816 -0.3992
17048TIP3   OH272558   2.737   2.828  11.180  0.1715  0.2842 -0.4376
17048TIP3    H172559   2.817   2.791  11.144  0.2645 -0.0505  0.0942
17048TIP3    H272560   2.761   2.853  11.269 -0.0839  0.9736 -0.5629
17049TIP3   OH272561   3.391   3.330   4.202 -0.1648  0.5105 -0.4808
17049TIP3    H172562   3.479   3.292   4.202  0.0062  0.9050 -0.9578
17049TIP3    H272563   3.401   3.414   4.157 -1.3397 -0.7055 -3.1217
17050TIP3   OH272564   6.325   3.779  14.758  0.5452  0.2136 -0.4296
17050TIP3    H172565   6.246   3.760  14.808  1.6913 -1.0507  0.9160
17050TIP3    H272566   6.335   3.874  14.764 -0.1522  0.2314  0.4662
17051TIP3   OH272567   0.135   5.563   4.031  0.1191 -0.0970 -0.1750
17051TIP3    H172568   0.133   5.518   3.947  1.6516 -1.2554  0.3945
17051TIP3    H272569   0.227   5.590   4.041  0.2079 -1.0659  1.6968
17052TIP3   OH272570   2.424   0.825  15.904 -0.1398  0.0591 -0.0232
17052TIP3    H172571   2.478   0.797  15.829  0.1046 -1.2200  0.6270
17052TIP3    H272572   2.426   0.921  15.899  0.0016  0.0020 -1.5677
17053TIP3   OH272573   2.780   1.126  13.146 -0.1518  0.2709  0.1420
17053TIP3    H172574   2.774   1.104  13.053 -1.5021  2.7360 -0.3939
17053TIP3    H272575   2.775   1.042  13.191  0.5660 -0.9582 -1.9983
17054TIP3   OH272576   2.592   6.426  14.835  0.2850  0.3358  0.1566
17054TIP3    H172577   2.573   6.363  14.765 -1.4210  0.0900  0.8235
17054TIP3    H272578   2.506   6.450  14.870  1.0993  0.7342  1.9439
17055TIP3   OH272579   2.190   1.187   3.754 -0.6599  0.0908  0.1859
17055TIP3    H172580   2.165   1.183   3.847  0.6510 -1.3366  0.4903
17055TIP3    H272581   2.155   1.106   3.716 -0.9020  0.5152 -0.5080
17056TIP3   OH272582   2.797   6.601  15.581  0.2105  0.6831 -0.5913
17056TIP3    H172583   2.887   6.633  15.570  0.5499 -1.2448 -3.8259
17056TIP3    H272584   2.775   6.625  15.671  3.3656  2.6449 -0.2499
17057TIP3   OH272585   0.394   0.159   0.243  0.5156 -0.6521 -0.4174
17057TIP3    H172586   0.482   0.132   0.215  1.3204  0.9533  0.4690
17057TIP3    H272587   0.404   0.180   0.336 -0.7946 -0.4172 -0.3288
17058TIP3   OH272588   6.706   0.920  15.619 -0.5481 -0.3616 -0.0063
17058TIP3    H172589   6.746   0.875  15.694 -0.8212 -3.6568 -1.7207
17058TIP3    H272590   6.778   0.968  15.579 -0.0114 -0.0546  1.2855
17059TIP3   OH272591   2.126   3.150   0.719  0.0018 -0.3920 -0.3985
17059TIP3    H172592   2.037   3.166   0.688 -1.2459 -2.1365  2.1397
17059TIP3    H272593   2.140   3.216   0.788 -1.0199 -2.8506  2.2662
17060TIP3   OH272594   5.934   4.164  14.363 -0.3381  0.0800 -0.1023
17060TIP3    H172595   5.904   4.100  14.298 -2.0387  0.4835  0.2577
17060TIP3    H272596   5.853   4.203  14.396  0.6408  1.7904  0.3105
17061TIP3   OH272597   3.942   2.664   4.772  0.3631 -0.1580 -0.3920
17061TIP3    H172598   3.905   2.748   4.799  2.4900  0.7010 -0.0754
17061TIP3    H272599   4.024   2.687   4.728  0.3720 -1.9951 -1.3857
17062TIP3   OH272600   2.512   0.810   2.242  0.0212 -0.1270  0.1757
17062TIP3    H172601   2.443   0.813   2.308  0.2146  0.3828  0.3534
17062TIP3    H272602   2.577   0.874   2.271 -0.2093  0.5870 -0.8548
17063TIP3   OH272603   3.807   5.801   4.075  0.0050  0.1533  0.0729
17063TIP3    H172604   3.883   5.818   4.019 -0.3636  1.3903 -0.0559
17063TIP3    H272605   3.844   5.770   4.157  0.5915 -0.7115 -0.5114
17064TIP3   OH272606   5.047   3.340  10.861  0.2761 -0.1419  0.0826
17064TIP3    H172607   5.130   3.312  10.823  0.0185  1.1586 -1.4738
17064TIP3    H272608   4.985   3.341  10.788 -0.2045  2.5139  0.4671
17065TIP3   OH272609   6.680   4.875  16.666  0.7644 -0.3934  0.2487
17065TIP3    H172610   6.764   4.834  16.643  0.7511 -0.8750  1.0390
17065TIP3    H272611   6.637   4.811  16.723 -0.4973 -0.5090 -0.8160
17066TIP3   OH272612   4.721   2.297   2.002 -0.1093 -0.4738  0.4932
17066TIP3    H172613   4.745   2.382   2.039 -0.0075 -0.0820 -0.4529
17066TIP3    H272614   4.801   2.266   1.960 -0.7371 -0.0206 -1.0605
17067TIP3   OH272615   2.921   1.307  16.813 -0.3579  0.2388  0.1905
17067TIP3    H172616   2.929   1.238  16.879 -1.6542  0.1965  0.3011
17067TIP3    H272617   2.954   1.386  16.857  0.6036 -0.1798  0.2439
17068TIP3   OH272618   6.175   3.475   0.797 -0.4478  0.0147 -0.0099
17068TIP3    H172619   6.248   3.487   0.736 -0.5248  3.6821  0.4978
17068TIP3    H272620   6.215   3.484   0.884 -1.1194 -0.3342  0.3371
17069TIP3   OH272621   1.574   4.658  16.069 -0.0778 -0.4478  0.4991
17069TIP3    H172622   1.596   4.729  16.009 -0.2124  0.5583  1.6230
17069TIP3    H272623   1.481   4.643  16.055 -0.2395  0.1863  0.8607
17070TIP3   OH272624   1.580   2.898  12.330  0.6073 -0.1983 -0.0913
17070TIP3    H172625   1.564   2.840  12.256 -0.5085 -0.1647  0.1168
17070TIP3    H272626   1.675   2.903  12.337  0.7123 -1.6024 -0.4203
17071TIP3   OH272627   0.565   4.516   0.521  0.0476  0.4533 -0.0747
17071TIP3    H172628   0.656   4.528   0.552 -0.1855 -0.3552  0.9588
17071TIP3    H272629   0.531   4.605   0.515  1.2243  0.8317 -1.4568
17072TIP3   OH272630   5.398   5.045  14.566  0.1629 -0.2406  0.7432
17072TIP3    H172631   5.449   5.062  14.487 -2.2830 -0.1378 -0.9006
17072TIP3    H272632   5.307   5.053  14.537 -0.7926  0.2964  3.7033
17073TIP3   OH272633   0.974   0.227  14.210  0.2731  0.2248 -0.0969
17073TIP3    H172634   0.882   0.249  14.202 -0.1243 -1.3923 -0.2556
17073TIP3    H272635   1.021   0.302  14.172 -0.8753  2.0991  2.1209
17074TIP3   OH272636   1.436   5.053  12.732 -0.3330 -0.3967 -0.2413
17074TIP3    H172637   1.524   5.018  12.719 -0.2394 -0.0133 -0.6484
17074TIP3    H272638   1.449   5.145  12.753 -0.6351 -0.3411 -0.2904
17075TIP3   OH272639   6.197   4.135   0.004 -0.3633  0.4635 -0.7098
17075TIP3    H172640   6.277   4.168   0.045 -1.9122  2.2746  0.9567
17075TIP3    H272641   6.188   4.188  -0.076  0.5513 -0.3518 -1.3663
17076TIP3   OH272642   1.062   3.418  16.519  0.1831  0.1677  0.3742
17076TIP3    H172643   0.973   3.397  16.491  0.9870 -2.4688 -0.2735
17076TIP3    H272644   1.112   3.427  16.438  0.4302  2.1342  0.7166
17077TIP3   OH272645   4.663   2.737   4.552 -1.0940  0.4776 -0.5000
17077TIP3    H172646   4.739   2.793   4.569 -1.3154  0.7446 -0.3842
17077TIP3    H272647   4.633   2.711   4.639  0.3349 -1.6196 -0.6104
17078TIP3   OH272648   3.640   1.915  16.273  0.2986  0.4202  0.3765
17078TIP3    H172649   3.728   1.944  16.249 -0.3886  2.5446  0.3468
17078TIP3    H272650   3.644   1.900  16.367  0.2813  2.0238  0.6348
17079TIP3   OH272651   2.013   0.656   0.512  0.1178  0.5508 -0.2457
17079TIP3    H172652   1.976   0.597   0.578  1.2667 -0.6892 -0.6795
17079TIP3    H272653   1.958   0.643   0.435  0.2939  0.1299 -0.3017
17080TIP3   OH272654   2.238   0.235  15.132  0.2262 -0.3442 -0.5876
17080TIP3    H172655   2.241   0.295  15.058  0.8991 -1.6479 -1.6401
17080TIP3    H272656   2.253   0.290  15.209 -0.2505  0.9823 -1.4350
17081TIP3   OH272657   1.720   4.597   6.256 -0.0133 -0.2741 -0.7025
17081TIP3    H172658   1.780   4.667   6.280 -1.8611  1.2241 -0.3075
17081TIP3    H272659   1.648   4.642   6.211 -1.3044 -1.9018 -0.3011
17082TIP3   OH272660   6.294   5.169  12.072 -0.2767 -0.1899 -0.5455
17082TIP3    H172661   6.336   5.237  12.020 -2.8658  0.7113 -1.5399
17082TIP3    H272662   6.295   5.091  12.017  0.9341 -0.4484 -0.1733
17083TIP3   OH272663   3.971   1.611  12.885 -0.1168 -0.2457  0.0200
17083TIP3    H172664   4.062   1.582  12.875 -0.3883 -0.5190 -1.8894
17083TIP3    H272665   3.922   1.529  12.895 -0.0494 -0.0484  2.1934
17084TIP3   OH272666   4.042   5.724  15.799  0.2007 -0.8896 -0.4116
17084TIP3    H172667   3.989   5.652  15.766 -0.7082  0.4537 -1.9479
17084TIP3    H272668   4.037   5.716  15.894 -0.8149 -2.1683 -0.5669
17085TIP3   OH272669   4.728   0.894   5.129  0.0940 -0.2469  0.0535
17085TIP3    H172670   4.750   0.957   5.198 -0.1844 -1.4151  1.2315
17085TIP3    H272671   4.748   0.809   5.167 -2.3103 -1.0569 -0.4470
17086TIP3   OH272672   1.528   0.790  13.747  0.6319  0.3780  0.3261
17086TIP3    H172673   1.601   0.840  13.783  0.4339  0.5265  0.5245
17086TIP3    H272674   1.534   0.802  13.653  2.6515 -2.0430  0.1072
17087TIP3   OH272675   3.113   4.781   1.207  0.0969  0.4393  0.4176
17087TIP3    H172676   3.048   4.851   1.199  1.3040  1.5013 -0.2489
17087TIP3    H272677   3.127   4.752   1.117 -1.6040 -1.8280  0.8194
17088TIP3   OH272678   0.697   3.219   5.926  0.6050 -0.3466 -0.7408
17088TIP3    H172679   0.603   3.233   5.917  0.5446 -1.2475 -1.5843
17088TIP3    H272680   0.734   3.307   5.929 -0.5870  0.1200  3.5419
17089TIP3   OH272681   2.011   5.550  12.236  0.1137  0.5154  0.5667
17089TIP3    H172682   2.014   5.583  12.146  1.8361 -1.1917 -0.0471
17089TIP3    H272683   2.057   5.616  12.287  0.5301  0.7369 -0.0819
17090TIP3   OH272684   4.396   5.950   3.813  0.0148  0.1571  0.3326
17090TIP3    H172685   4.348   6.027   3.784 -1.5077 -0.7980  0.2553
17090TIP3    H272686   4.486   5.981   3.827  0.0009  1.3949 -2.0605
17091TIP3   OH272687   1.899   2.934  12.700  0.0806 -0.1217  0.0955
17091TIP3    H172688   1.889   3.028  12.681  0.5103 -0.3349 -1.2383
17091TIP3    H272689   1.991   2.915  12.678 -0.2789 -1.0711 -0.6000
17092TIP3   OH272690   2.191   5.768  13.545 -0.2319  0.5702 -0.2030
17092TIP3    H172691   2.119   5.829  13.563 -2.4547 -2.7525  3.1940
17092TIP3    H272692   2.165   5.724  13.464 -0.2559  1.8178 -0.8843
17093TIP3   OH272693   0.905   5.551  11.932 -0.5400  0.6958  0.0809
17093TIP3    H172694   0.828   5.532  11.985  0.1170 -1.8722  0.1898
17093TIP3    H272695   0.872   5.565  11.844 -1.1901  0.2775  0.2615
17094TIP3   OH272696   2.452   6.250  14.682  0.2023 -0.3916  0.0809
17094TIP3    H172697   2.357   6.242  14.688 -0.0406  0.6714 -1.8347
17094TIP3    H272698   2.471   6.232  14.590  1.8101 -0.2311  0.3773
17095TIP3   OH272699   5.294   0.440   5.221 -0.2732 -0.1737 -0.3919
17095TIP3    H172700   5.220   0.379   5.218 -0.4638  0.1315 -3.0151
17095TIP3    H272701   5.356   0.399   5.282 -1.8210 -1.3137  0.4522
17096TIP3   OH272702   3.207   4.778  16.001 -0.1438  0.5234  0.3766
17096TIP3    H172703   3.293   4.776  15.958 -0.2498 -0.0672  0.1899
17096TIP3    H272704   3.144   4.764  15.930 -0.3136 -0.5186  0.7281
17097TIP3   OH272705   1.875   1.188  16.657 -0.0889  0.4649 -0.1646
17097TIP3    H172706   1.901   1.277  16.632 -0.4198 -0.0781 -2.6000
17097TIP3    H272707   1.780   1.187  16.644 -0.1205 -0.1632  0.1064
17098TIP3   OH272708   5.029   1.777   5.331  0.1664  0.8650 -0.4726
17098TIP3    H172709   5.024   1.720   5.255  0.2674 -0.7587  0.7066
17098TIP3    H272710   5.115   1.758   5.370 -0.1095  1.2572  0.3456
17099TIP3   OH272711   1.065   3.803  11.356 -0.0184  0.2322  0.4395
17099TIP3    H172712   1.113   3.757  11.287 -0.0199  1.6412 -0.5287
17099TIP3    H272713   1.131   3.859  11.398  0.0137 -0.7158  1.6958
17100TIP3   OH272714   5.200   3.955  11.185  0.0334  0.5732  0.1745
17100TIP3    H172715   5.214   3.939  11.092 -3.6343 -0.8394 -0.2049
17100TIP3    H272716   5.238   3.879  11.229  2.5476  1.6533 -0.0588
17101TIP3   OH272717   1.049   2.919   4.219  0.1822 -0.1817 -0.4303
17101TIP3    H172718   0.957   2.923   4.196  0.1910  1.5404 -0.2189
17101TIP3    H272719   1.051   2.923   4.315  0.4991  0.7554 -0.4643
17102TIP3   OH272720   0.988   3.746  14.394  0.3536 -0.6356  0.6497
17102TIP3    H172721   1.007   3.754  14.487 -3.3847  1.5154  1.3437
17102TIP3    H272722   0.917   3.681  14.389 -0.7545  0.6159 -0.4514
17103TIP3   OH272723   0.540   1.505  14.847  0.5294 -0.4315  0.1935
17103TIP3    H172724   0.508   1.500  14.937  1.0743 -0.8240  0.3676
17103TIP3    H272725   0.480   1.566  14.804  0.9969  0.7224  1.1486
17104TIP3   OH272726   6.594   3.583  12.214 -0.0070 -0.5721  0.4973
17104TIP3    H172727   6.584   3.522  12.288 -0.4602 -1.7180 -0.4877
17104TIP3    H272728   6.512   3.633  12.214  0.9419  1.0428  2.1706
17105TIP3   OH272729   6.586   6.655  15.222 -0.1035  0.2240 -0.3203
17105TIP3    H172730   6.619   6.577  15.178  1.7719  0.7867  0.0404
17105TIP3    H272731   6.588   6.633  15.315  0.8343  0.8546 -0.1892
17106TIP3   OH272732   0.965   5.500  13.116 -0.0648 -0.1819  0.0112
17106TIP3    H172733   1.023   5.454  13.177  0.3747 -2.7576 -2.2405
17106TIP3    H272734   0.893   5.532  13.170  0.5888 -1.9081  1.9478
17107TIP3   OH272735   2.728   4.074  11.461 -0.6454  0.5713 -0.3435
17107TIP3    H172736   2.648   4.027  11.483  0.0109 -0.0971  0.6854
17107TIP3    H272737   2.738   4.139  11.530  0.1593  0.0536  0.0432
17108TIP3   OH272738   0.403   0.398  13.506 -0.4446 -0.1506  0.9479
17108TIP3    H172739   0.310   0.407  13.488 -0.1783  1.7269  0.4281
17108TIP3    H272740   0.407   0.342  13.584 -1.9240 -1.4415  0.1366
17109TIP3   OH272741   5.283   6.043   4.556  0.2315 -0.4636 -0.7652
17109TIP3    H172742   5.324   5.988   4.489  2.4645  0.2962 -0.0534
17109TIP3    H272743   5.347   6.112   4.573 -0.0570 -0.9725  2.5605
17110TIP3   OH272744   1.795   6.763  17.172  0.7394  0.2117 -0.5539
17110TIP3    H172745   1.840   6.745  17.255  2.5280  1.1427 -1.2997
17110TIP3    H272746   1.788   6.678  17.129 -1.5002 -0.5299  1.1564
17111TIP3   OH272747   6.247   2.736   0.810 -0.4876 -0.0752 -0.2119
17111TIP3    H172748   6.315   2.715   0.874  1.2095 -0.8443 -2.2313
17111TIP3    H272749   6.167   2.745   0.863  1.2777  1.6968  2.3121
17112TIP3   OH272750   0.295   4.157  14.537  0.0071  0.2184  0.7161
17112TIP3    H172751   0.235   4.162  14.463  2.2837  0.7723 -1.1356
17112TIP3    H272752   0.292   4.065  14.565  1.0902 -0.5997 -1.7537
17113TIP3   OH272753   5.098   3.702  14.500 -0.1388  0.1909  0.3487
17113TIP3    H172754   5.014   3.721  14.542 -1.1414 -0.1153 -1.4787
17113TIP3    H272755   5.121   3.782  14.453  0.1523 -0.0372  0.0968
17114TIP3   OH272756   2.265   3.911   4.976  0.0184 -0.2525  0.0195
17114TIP3    H172757   2.275   3.822   4.942 -3.1229 -0.5314 -0.3149
17114TIP3    H272758   2.347   3.955   4.952  2.1610 -3.3800  1.3287
17115TIP3   OH272759   2.819   0.372  14.893 -0.0804 -0.0078 -0.2480
17115TIP3    H172760   2.804   0.309  14.964  0.8529 -0.0535 -0.0848
17115TIP3    H272761   2.866   0.323  14.826 -1.0907 -0.0005 -0.9729
17116TIP3   OH272762   0.158   5.524  14.313 -0.2115  0.1462 -0.1941
17116TIP3    H172763   0.145   5.548  14.221 -0.5459  1.3907  0.1778
17116TIP3    H272764   0.201   5.599  14.352 -0.2101 -0.3241  0.7123
17117TIP3   OH272765   4.297   2.533   1.878  0.4799 -0.7247 -0.2254
17117TIP3    H172766   4.368   2.596   1.892  2.2328 -2.8238  0.7730
17117TIP3    H272767   4.293   2.483   1.960 -1.0027 -1.7757 -0.9069
17118TIP3   OH272768   2.414   1.075   4.166  0.8194  0.3005  0.4813
17118TIP3    H172769   2.340   1.134   4.170  1.2181  0.9753 -1.5140
17118TIP3    H272770   2.469   1.109   4.095  1.7170 -1.6886  0.1662
17119TIP3   OH272771   3.714   5.583  16.796 -0.6222  0.0889 -0.4648
17119TIP3    H172772   3.722   5.577  16.891 -0.3567 -2.2392 -0.5930
17119TIP3    H272773   3.793   5.539  16.763 -1.3280 -0.2281 -1.7631
17120TIP3   OH272774   4.623   4.832  13.065  0.4135 -0.2424  0.2731
17120TIP3    H172775   4.676   4.860  12.991  0.4242 -1.6099 -0.2471
17120TIP3    H272776   4.653   4.744  13.085 -0.0970 -0.1674  1.4377
17121TIP3   OH272777   5.170   6.176   2.835 -0.1153  0.1498 -0.1015
17121TIP3    H172778   5.191   6.158   2.743 -0.6061  0.2151 -0.2281
17121TIP3    H272779   5.238   6.238   2.863 -0.6028  0.9877 -0.7432
17122TIP3   OH272780   4.086   5.861   5.967 -0.1082 -0.7120 -0.4421
17122TIP3    H172781   4.094   5.949   5.932  0.9371 -0.4069  0.5541
17122TIP3    H272782   4.049   5.872   6.055 -0.1460 -1.2776 -0.3790
17123TIP3   OH272783   3.747   0.461  14.915 -0.3664  0.2362  0.2523
17123TIP3    H172784   3.753   0.547  14.873 -0.7266  0.5212  0.7807
17123TIP3    H272785   3.747   0.399  14.843 -0.1390  0.6819 -0.1351
17124TIP3   OH272786   3.092   0.875   1.879 -0.1996  0.0680 -0.2501
17124TIP3    H172787   3.021   0.812   1.890  0.1780 -0.3636 -0.2526
17124TIP3    H272788   3.139   0.845   1.802  0.5468 -0.1997  0.3007
17125TIP3   OH272789   2.114   1.032  13.186 -0.3745 -0.1720  1.3124
17125TIP3    H172790   2.057   1.066  13.255 -1.7451 -0.4686  0.3381
17125TIP3    H272791   2.201   1.033  13.225 -0.9096  1.1077  2.5230
17126TIP3   OH272792   6.157   4.811   2.379 -0.4302 -0.0181  0.9401
17126TIP3    H172793   6.168   4.756   2.302 -0.6779  2.1254 -0.6350
17126TIP3    H272794   6.166   4.750   2.453  0.4120 -1.9701 -0.7402
17127TIP3   OH272795   6.278   0.770  16.575  0.0963  0.4721 -0.2768
17127TIP3    H172796   6.220   0.827  16.625  0.9618  0.6291  0.5603
17127TIP3    H272797   6.258   0.790  16.483 -1.6005  0.0786 -0.0081
17128TIP3   OH272798   6.624   2.027   3.521  0.2945  0.3235  0.2392
17128TIP3    H172799   6.542   2.066   3.549  0.1289  0.4779 -0.4536
17128TIP3    H272800   6.600   1.966   3.451  0.4161 -1.8498  2.0284
17129TIP3   OH272801   4.566   0.860   4.006 -0.6669  0.2625  0.3560
17129TIP3    H172802   4.601   0.792   3.948  0.4590 -0.0589  1.3854
17129TIP3    H272803   4.528   0.812   4.079  1.4646  0.7321  1.8330
17130TIP3   OH272804   5.040   1.077  16.656 -0.3210  0.4454  0.1735
17130TIP3    H172805   5.119   1.095  16.706  1.0495 -3.0580 -0.5323
17130TIP3    H272806   4.969   1.086  16.719  1.0381 -0.3636  1.8831
17131TIP3   OH272807   3.879   2.273   1.113  0.0531  0.2397 -0.2303
17131TIP3    H172808   3.901   2.186   1.078 -0.2093  0.2238 -0.3545
17131TIP3    H272809   3.818   2.310   1.050  0.6667  0.7822 -0.5104
17132TIP3   OH272810   0.260   5.294  12.987  0.1542  0.4724 -0.1833
17132TIP3    H172811   0.231   5.205  12.971  0.1945  0.2617  0.8776
17132TIP3    H272812   0.180   5.342  13.011  0.2858  0.4747  0.2629
17133TIP3   OH272813   1.293   5.813   1.746  0.2087 -0.4609 -0.0919
17133TIP3    H172814   1.216   5.837   1.694  0.2877 -2.6729 -1.2878
17133TIP3    H272815   1.338   5.748   1.693  1.9997 -0.4594  1.3829
17134TIP3   OH272816   4.614   5.403  14.081 -0.0074 -0.1196 -0.2963
17134TIP3    H172817   4.677   5.469  14.052 -0.0176 -0.4656 -1.1229
17134TIP3    H272818   4.666   5.337  14.127  0.0277  0.3628  0.3632
17135TIP3   OH272819   4.502   2.286   2.185  0.5998  0.0345  0.1169
17135TIP3    H172820   4.558   2.344   2.236  0.5117  2.9409 -2.9413
17135TIP3    H272821   4.561   2.240   2.126  0.2469 -0.2400 -0.0275
17136TIP3   OH272822   2.398   6.368   3.940  0.1143 -0.0802  0.4163
17136TIP3    H172823   2.411   6.365   3.845  0.7401  0.7127  0.4773
17136TIP3    H272824   2.353   6.286   3.960  1.7352 -1.1521 -0.2964
17137TIP3   OH272825   3.198   0.794  16.774  0.4093 -0.4800  0.3688
17137TIP3    H172826   3.114   0.748  16.775 -1.0864  2.1405  0.0990
17137TIP3    H272827   3.234   0.778  16.687 -0.1807 -0.9840  0.2209
17138TIP3   OH272828   1.424   3.067   4.716 -0.2084  0.3520 -0.1358
17138TIP3    H172829   1.358   3.134   4.737  1.0778  1.5631  0.1174
17138TIP3    H272830   1.490   3.113   4.665  0.3767 -0.8951 -0.5260
17139TIP3   OH272831   0.040   2.013   4.382 -0.3789  0.1107  0.5864
17139TIP3    H172832  -0.052   1.992   4.362 -0.1594 -0.6605  0.3865
17139TIP3    H272833   0.075   2.048   4.301  0.2513 -2.1439 -0.1541
17140TIP3   OH272834   2.178   0.865   3.124 -0.0878  0.5830 -0.2937
17140TIP3    H172835   2.114   0.794   3.126  0.5216  0.0202 -0.8118
17140TIP3    H272836   2.204   0.871   3.032  1.1284  0.3413  0.0359
17141TIP3   OH272837   0.556   5.355   6.259 -0.0434  0.4874  0.4459
17141TIP3    H172838   0.629   5.409   6.229  0.4897  0.0946  0.9894
17141TIP3    H272839   0.519   5.317   6.180  1.7297 -1.0265  0.2915
17142TIP3   OH272840   6.634   5.328   1.000 -0.1941  0.1006  0.0752
17142TIP3    H172841   6.700   5.332   1.069 -0.4280 -1.2789  0.4129
17142TIP3    H272842   6.652   5.403   0.944 -0.8031  2.0316  2.3584
17143TIP3   OH272843   3.788   6.409   2.794  0.1022 -0.7051  0.4119
17143TIP3    H172844   3.831   6.437   2.713 -2.1455  0.7688 -0.3231
17143TIP3    H272845   3.740   6.329   2.769  1.2860 -1.5819  0.8948
17144TIP3   OH272846   2.345   0.217  11.087 -0.1551 -0.3256 -1.0677
17144TIP3    H172847   2.320   0.273  11.013 -0.2552 -0.9813 -1.5282
17144TIP3    H272848   2.265   0.213  11.141  0.0567  0.5342 -0.6700
17145TIP3   OH272849   4.728   2.637  15.811 -0.2726  0.3824  0.0577
17145TIP3    H172850   4.722   2.728  15.784  0.5171  0.4663  0.1455
17145TIP3    H272851   4.735   2.587  15.730  1.8602  0.6142  0.0606
17146TIP3   OH272852   1.221   5.747   1.010 -0.1437  0.3406 -0.3262
17146TIP3    H172853   1.290   5.682   1.022  2.4255  3.1330  0.5239
17146TIP3    H272854   1.189   5.764   1.098  0.1350  1.2317 -0.4006
17147TIP3   OH272855   5.565   5.676   1.763 -0.3210 -0.0796 -0.3571
17147TIP3    H172856   5.488   5.676   1.706 -1.5868  0.1501  1.3270
17147TIP3    H272857   5.633   5.721   1.711 -1.4054  0.0315 -1.7136
17148TIP3   OH272858   3.448   0.424   0.151 -0.8737 -0.8610 -0.1463
17148TIP3    H172859   3.373   0.483   0.163 -0.2278  0.0761 -0.7107
17148TIP3    H272860   3.488   0.452   0.069  0.1895 -1.2685  0.2265
17149TIP3   OH272861   6.005   0.620  16.708 -0.2367 -0.2425  0.7019
17149TIP3    H172862   6.011   0.543  16.764 -0.1240 -1.6150 -1.1388
17149TIP3    H272863   5.938   0.598  16.644 -0.8337  1.5542  0.6715
17150TIP3   OH272864   1.785   1.103  15.848 -0.1876 -0.7223  0.0709
17150TIP3    H172865   1.767   1.136  15.760 -1.8330  1.0427  1.0176
17150TIP3    H272866   1.740   1.019  15.852  0.7652 -1.2999 -1.1020
17151TIP3   OH272867   1.064   0.585  14.238 -0.2469  0.0696 -0.1943
17151TIP3    H172868   0.999   0.654  14.254  0.6454  1.5041 -2.5517
17151TIP3    H272869   1.039   0.548  14.153  0.4222 -1.2267  0.1675
17152TIP3   OH272870   4.237   4.141   4.808 -0.1445 -0.4983  0.1267
17152TIP3    H172871   4.259   4.157   4.900  2.0408  2.6114 -0.8273
17152TIP3    H272872   4.170   4.206   4.788  1.1300  0.4614 -1.0764
17153TIP3   OH272873   4.233   1.180   5.618 -0.2444 -0.1449  0.6001
17153TIP3    H172874   4.237   1.275   5.631  0.0025 -0.2221  1.0882
17153TIP3    H272875   4.304   1.145   5.672  2.3058 -0.2909 -2.7306
17154TIP3   OH272876   1.438   5.328  14.939  0.2504  0.1123  0.2951
17154TIP3    H172877   1.482   5.249  14.907  0.1824  1.3925 -3.2114
17154TIP3    H272878   1.345   5.313  14.920  0.1343  0.6532  0.4255
17155TIP3   OH272879   2.175   3.342  15.608  0.1057  0.9419  0.4286
17155TIP3    H172880   2.211   3.301  15.687  0.4142  1.6973  0.6816
17155TIP3    H272881   2.123   3.416  15.641 -1.0325  0.3340  0.0133
17156TIP3   OH272882   6.063   1.419  10.976  0.5943  0.0015 -0.7864
17156TIP3    H172883   6.020   1.433  11.061 -0.9630 -1.8864 -1.2359
17156TIP3    H272884   6.005   1.463  10.913  0.9678  0.1267 -1.0385
17157TIP3   OH272885   3.731   1.129  11.483  0.6738  0.1793  0.3834
17157TIP3    H172886   3.653   1.073  11.487  0.5972  0.2328 -0.2852
17157TIP3    H272887   3.741   1.149  11.390  2.4933 -1.2379  0.2593
17158TIP3   OH272888   2.057   4.252  13.260 -0.2592 -0.1750 -0.1255
17158TIP3    H172889   2.063   4.222  13.169 -0.2933 -1.2584  0.2223
17158TIP3    H272890   2.128   4.315  13.268 -1.5170  1.4672 -1.4673
17159TIP3   OH272891   0.278   6.591  16.945 -0.2197 -0.5626  0.3204
17159TIP3    H172892   0.285   6.510  16.996 -1.8525  0.7593  2.7095
17159TIP3    H272893   0.281   6.661  17.010 -0.0109  1.2824 -1.6174
17160TIP3   OH272894   3.543   5.277   1.035 -0.3861 -0.1857  0.1674
17160TIP3    H172895   3.622   5.272   1.089 -1.0532  0.4051  1.2124
17160TIP3    H272896   3.517   5.186   1.023  1.6365 -0.5399 -1.9772
17161TIP3   OH272897   5.990   2.324   4.762  0.0859  0.3907 -0.5785
17161TIP3    H172898   6.025   2.411   4.743  0.5315  1.1891  3.4421
17161TIP3    H272899   5.899   2.339   4.787  0.2719 -0.2519  0.5044
17162TIP3   OH272900   5.936   0.607  13.386 -0.2650  0.3918 -0.2638
17162TIP3    H172901   5.873   0.678  13.371 -1.6103 -0.5677  0.8395
17162TIP3    H272902   5.980   0.597  13.301 -2.2824  0.4039 -1.3444
17163TIP3   OH272903   2.992   6.008  16.278  0.2359 -0.4253  0.1873
17163TIP3    H172904   2.930   6.036  16.345 -0.0153 -0.7026  0.0699
17163TIP3    H272905   3.064   6.071  16.284  0.1462 -0.3650  0.6211
17164TIP3   OH272906   3.382   3.489  10.517  0.3364  0.0499  0.0870
17164TIP3    H172907   3.442   3.559  10.492 -1.0753  0.5049 -2.2481
17164TIP3    H272908   3.378   3.493  10.612  0.4593  3.0233  0.0192
17165TIP3   OH272909   1.433   4.538   5.986  0.5508 -0.8022  0.0105
17165TIP3    H172910   1.436   4.582   6.071  0.3206 -1.5704  0.4312
17165TIP3    H272911   1.518   4.554   5.947  0.8011 -0.7800  0.5645
17166TIP3   OH272912   4.656   3.869  16.592 -0.8716  0.5226  0.1475
17166TIP3    H172913   4.616   3.866  16.679 -2.6632 -0.9230 -0.6865
17166TIP3    H272914   4.702   3.952  16.589  0.3575 -0.0081  2.9781
17167TIP3   OH272915   1.154   2.578  12.554 -0.1963  0.3383 -0.0394
17167TIP3    H172916   1.138   2.550  12.644  1.4622 -0.4195  0.0383
17167TIP3    H272917   1.067   2.596  12.518 -0.9752 -0.8758  1.2209
17168TIP3   OH272918   3.671   2.895  12.091  0.2367  0.1772  0.5327
17168TIP3    H172919   3.679   2.875  12.184 -1.2070  1.9412  1.0871
17168TIP3    H272920   3.737   2.962  12.075  1.0027 -0.6872  0.1181
17169TIP3   OH272921   1.360   3.229   5.554  0.0515 -0.2520 -0.1761
17169TIP3    H172922   1.422   3.264   5.617 -0.6910  0.9782 -0.1087
17169TIP3    H272923   1.331   3.146   5.591  0.3720 -0.0113  0.6136
17170TIP3   OH272924   3.831   4.294   1.787 -0.0713  0.1701  0.9582
17170TIP3    H172925   3.802   4.378   1.753  1.3285  1.6079  3.1493
17170TIP3    H272926   3.751   4.246   1.806 -0.9053  1.6723  1.2664
17171TIP3   OH272927   5.082   2.589  12.144 -0.3096  0.1918  0.1844
17171TIP3    H172928   5.149   2.533  12.184 -0.0029  1.1402  1.0290
17171TIP3    H272929   5.099   2.584  12.050 -1.2382 -2.3338  0.1075
17172TIP3   OH272930   3.475   2.609  11.549 -0.8004  0.2945  0.4577
17172TIP3    H172931   3.485   2.568  11.635 -0.6439 -0.8957 -0.1248
17172TIP3    H272932   3.445   2.538  11.492  0.7700  0.6729 -0.8620
17173TIP3   OH272933   5.175   1.070   3.607  0.5135 -0.3023 -0.8466
17173TIP3    H172934   5.086   1.055   3.576  0.6893 -0.5510 -1.2272
17173TIP3    H272935   5.165   1.085   3.701  0.1510 -1.0235 -0.7693
17174TIP3   OH272936   1.879   3.496  10.231 -0.0698 -0.2311 -0.0425
17174TIP3    H172937   1.953   3.468  10.177 -0.2344 -2.3844  0.8279
17174TIP3    H272938   1.919   3.534  10.309  0.1412 -1.3147  0.3876
17175TIP3   OH272939   1.033   0.934  12.028 -0.2666 -0.4059 -0.0772
17175TIP3    H172940   1.028   0.974  12.115  1.0109  0.2488 -0.2966
17175TIP3    H272941   1.057   1.006  11.970 -0.1414 -1.0413 -0.8262
17176TIP3   OH272942   2.059   2.483  15.597  0.1625 -0.4031  0.3208
17176TIP3    H172943   1.990   2.417  15.590 -0.2944  0.2281 -1.3206
17176TIP3    H272944   2.015   2.561  15.632  0.0665 -0.0255 -0.6478
17177TIP3   OH272945   0.221   4.464  16.874 -0.0690 -0.0073 -0.6879
17177TIP3    H172946   0.236   4.470  16.780  0.7991  1.1193 -0.4835
17177TIP3    H272947   0.305   4.433  16.910 -0.0584  0.5989 -0.1761
17178TIP3   OH272948   1.861   4.192   6.073  0.3881 -0.6031  0.1494
17178TIP3    H172949   1.796   4.168   6.139  0.6739  0.1114  0.7020
17178TIP3    H272950   1.928   4.124   6.080 -0.4901 -1.5827 -0.7207
17179TIP3   OH272951   0.600   5.882  16.675 -0.5095  0.8517 -0.3297
17179TIP3    H172952   0.572   5.965  16.714  0.8988  0.6262  1.2126
17179TIP3    H272953   0.609   5.902  16.582  0.2516  2.5651  0.0892
17180TIP3   OH272954   6.177   3.124   3.873 -0.2784 -0.1110  0.4336
17180TIP3    H172955   6.131   3.186   3.931  0.6168 -0.3466  1.3905
17180TIP3    H272956   6.130   3.132   3.789 -0.7380  1.2104  0.7978
17181TIP3   OH272957   6.738   1.325   6.242  0.2913 -0.4287  0.3464
17181TIP3    H172958   6.705   1.244   6.203  1.3094 -0.8208  0.2752
17181TIP3    H272959   6.818   1.345   6.194 -0.4321  1.1386 -0.2477
17182TIP3   OH272960   3.388   2.047   2.396  0.2832 -0.4805  0.0200
17182TIP3    H172961   3.357   2.095   2.473 -1.6540 -1.5692 -0.0548
17182TIP3    H272962   3.477   2.019   2.419  0.2316  0.3659  1.3098
17183TIP3   OH272963   3.766   2.506   6.023  0.0784 -0.3084  0.2838
17183TIP3    H172964   3.685   2.509   5.972  0.5013 -0.6216 -0.4201
17183TIP3    H272965   3.818   2.579   5.988  0.3135 -0.4412  0.3559
17184TIP3   OH272966   0.749   2.867  13.535 -0.0694  0.2193 -0.1005
17184TIP3    H172967   0.813   2.933  13.509  2.0769 -0.7178  2.5623
17184TIP3    H272968   0.760   2.797  13.470 -0.1474  1.1065 -1.0922
17185TIP3   OH272969   5.370   2.815  14.278 -0.3323  0.2963 -0.2029
17185TIP3    H172970   5.427   2.783  14.349  0.3405 -0.1027 -0.9114
17185TIP3    H272971   5.282   2.816  14.316  0.2166  1.4956  1.1055
17186TIP3   OH272972   6.674   1.680   6.529  0.1853 -0.6170  0.0816
17186TIP3    H172973   6.596   1.678   6.585  0.6628 -2.4048  0.6938
17186TIP3    H272974   6.741   1.723   6.582 -0.0691 -0.0640 -0.0422
17187TIP3   OH272975   4.728   1.329   2.669  0.0526  0.5408  0.1623
17187TIP3    H172976   4.729   1.395   2.600  0.2405  0.5411  0.1665
17187TIP3    H272977   4.754   1.248   2.626 -1.5538  0.1707 -0.1540
17188TIP3   OH272978   1.475   6.593   2.535  0.0299 -0.1400 -0.2893
17188TIP3    H172979   1.405   6.562   2.477  0.3954 -1.1983 -0.1801
17188TIP3    H272980   1.466   6.538   2.614 -0.0903  0.8763  0.4078
17189TIP3   OH272981   0.288   3.047  13.013 -0.3932  0.7078  0.2500
17189TIP3    H172982   0.253   3.055  12.925 -0.1853 -0.3204  0.0717
17189TIP3    H272983   0.259   3.127  13.058 -0.2723  1.3512 -0.8166
17190TIP3   OH272984   2.467   0.348   0.360 -0.2325 -0.1866  0.0211
17190TIP3    H172985   2.520   0.357   0.439 -0.1634 -1.6390  0.1583
17190TIP3    H272986   2.408   0.423   0.361  0.0285  0.0019  1.2453
17191TIP3   OH272987   2.480   1.292   5.097  0.0100  0.3470 -0.1190
17191TIP3    H172988   2.422   1.219   5.117 -0.5845  0.9491  0.3760
17191TIP3    H272989   2.446   1.365   5.148  0.9214  0.8343 -0.1882
17192TIP3   OH272990   3.603   2.312  15.823 -0.2323  0.3162  0.1652
17192TIP3    H172991   3.660   2.333  15.897 -0.9129 -0.3311  0.8863
17192TIP3    H272992   3.515   2.334  15.852 -0.2990  1.9059 -1.1794
17193TIP3   OH272993   4.677   0.501   6.191 -0.3120 -0.2974 -0.1962
17193TIP3    H172994   4.605   0.560   6.167 -0.2453 -0.1857 -0.1287
17193TIP3    H272995   4.751   0.531   6.137 -0.0833  0.1340  0.3482
17194TIP3   OH272996   0.740   6.765  14.967  0.1461  0.1052  0.1767
17194TIP3    H172997   0.820   6.814  14.985  0.3748  0.3090 -1.3401
17194TIP3    H272998   0.757   6.677  15.001  0.2977  0.6580  1.5544
17195TIP3   OH272999   0.255   6.696   2.073  0.0153  0.2397  0.4001
17195TIP3    H173000   0.218   6.631   2.013  1.0988  0.3137 -0.3516
17195TIP3    H273001   0.178   6.741   2.109 -0.6851 -0.5399 -0.0959
17196TIP3   OH273002   4.245   1.764  14.057  0.2024 -0.1463 -0.8952
17196TIP3    H173003   4.228   1.834  14.120  0.8617 -0.1494 -0.7165
17196TIP3    H273004   4.338   1.772  14.036  0.1818 -0.6951 -1.2025
17197TIP3   OH273005   4.954   4.915   0.515  0.0016 -0.1611 -0.6106
17197TIP3    H173006   4.961   4.924   0.610  0.0856  0.3873 -0.6687
17197TIP3    H273007   5.003   4.989   0.480 -0.5514 -0.0125 -1.0772
17198TIP3   OH273008   1.764   1.850  13.247  0.7768  0.0852  0.0372
17198TIP3    H173009   1.724   1.780  13.196  0.3281  0.0203  0.4784
17198TIP3    H273010   1.842   1.810  13.286  0.3412 -0.2718  0.5604
17199TIP3   OH273011   1.460   3.214  16.694  0.0867 -0.2153 -0.1715
17199TIP3    H173012   1.448   3.309  16.704 -0.1664  0.1795 -3.5829
17199TIP3    H273013   1.374   3.183  16.665  0.5538 -1.2617 -0.4436
17200TIP3   OH273014   0.910   0.254   4.943  0.0819  0.4392  0.0171
17200TIP3    H173015   0.818   0.277   4.958 -0.3664 -0.8960 -0.6794
17200TIP3    H273016   0.923   0.172   4.990  0.9110  0.5807  0.0558
17201TIP3   OH273017   1.877   1.879   0.584 -0.1065  0.2910 -0.5476
17201TIP3    H173018   1.843   1.812   0.524 -1.2374  1.9663 -1.8276
17201TIP3    H273019   1.800   1.905   0.636  0.7705 -0.8589  1.4152
17202TIP3   OH273020   3.285   5.021  14.545 -0.0208  0.3288 -0.4864
17202TIP3    H173021   3.200   5.002  14.583 -0.2772  1.2750 -0.5710
17202TIP3    H273022   3.335   4.941  14.556 -0.8952 -0.2046 -0.3601
17203TIP3   OH273023   4.908   5.023   3.475 -0.0095  0.2900 -0.0445
17203TIP3    H173024   5.000   5.048   3.471 -0.0065  0.3713  0.5325
17203TIP3    H273025   4.863   5.088   3.421  0.5005 -0.9085 -1.9855
17204TIP3   OH273026   2.470   0.305  12.891 -0.0368  0.0177  0.0306
17204TIP3    H173027   2.409   0.355  12.837  1.2547 -0.3752 -1.8016
17204TIP3    H273028   2.442   0.214  12.881  2.0470 -0.3887 -2.4185
17205TIP3   OH273029   4.127   3.994  14.703  0.2276  0.7150  0.0726
17205TIP3    H173030   4.119   4.086  14.680  0.8299  0.8082  0.2517
17205TIP3    H273031   4.147   3.993  14.797  1.1389  0.4270 -0.1268
17206TIP3   OH273032   5.919   4.392  12.349  0.2291 -0.3772  0.8148
17206TIP3    H173033   5.885   4.479  12.328 -0.3068 -0.5575  0.9253
17206TIP3    H273034   5.883   4.335  12.282  0.2929 -0.5786  0.9520
17207TIP3   OH273035   1.571   0.465   0.762 -0.3723 -0.4445  0.4552
17207TIP3    H173036   1.619   0.417   0.695 -0.8132  0.9835 -0.9194
17207TIP3    H273037   1.483   0.426   0.761  0.1024 -1.5655  1.4148
17208TIP3   OH273038   1.668   1.193  11.475  0.5232  0.3133 -0.3073
17208TIP3    H173039   1.698   1.123  11.417 -0.9764 -0.2157 -0.4726
17208TIP3    H273040   1.591   1.228  11.432 -0.0188  0.5931  0.8731
17209TIP3   OH273041   5.690   2.712  13.461 -0.5007 -0.6486 -0.0095
17209TIP3    H173042   5.755   2.770  13.501 -0.0669 -0.1949 -1.3682
17209TIP3    H273043   5.740   2.658  13.401 -0.7873 -2.9869  1.7939
17210TIP3   OH273044   2.140   4.489   4.822  0.1521  0.0143  0.2769
17210TIP3    H173045   2.153   4.530   4.736  0.6406 -0.7314 -0.0109
17210TIP3    H273046   2.095   4.407   4.803 -0.3686  0.1768  0.8034
17211TIP3   OH273047   1.392   4.941   0.890  0.0386 -0.1182  0.3310
17211TIP3    H173048   1.339   4.862   0.906 -1.6351  1.1522  1.2227
17211TIP3    H273049   1.372   4.965   0.800 -1.6758  0.9037  0.9674
17212TIP3   OH273050   6.056   6.226   5.835  0.0375 -0.3115 -0.4837
17212TIP3    H173051   6.105   6.288   5.888 -0.5827 -1.0653  0.9986
17212TIP3    H273052   6.083   6.245   5.745  1.7137  0.4303  0.1572
17213TIP3   OH273053   6.043   6.176  13.940  0.0075  0.0291 -0.1069
17213TIP3    H173054   6.105   6.233  13.896  0.0868  0.4513  0.5441
17213TIP3    H273055   5.960   6.191  13.894 -0.1159  1.1456  0.4606
17214TIP3   OH273056   5.452   1.552   2.189 -0.4268  0.1609  0.2246
17214TIP3    H173057   5.513   1.550   2.116 -1.1837 -0.4859 -0.4048
17214TIP3    H273058   5.454   1.642   2.221  0.7014  0.1873  0.0887
17215TIP3   OH273059   2.312   0.292   0.108 -0.4087  0.4196 -0.2573
17215TIP3    H173060   2.283   0.205   0.133 -0.8548  0.8621  0.8027
17215TIP3    H273061   2.367   0.321   0.180 -1.7142  1.7207  0.2532
17216TIP3   OH273062   3.147   4.128   2.300 -0.2662 -0.1530  0.4021
17216TIP3    H173063   3.128   4.168   2.214  2.1240 -2.1323 -1.1095
17216TIP3    H273064   3.088   4.054   2.305  1.1096 -1.3460 -0.5630
17217TIP3   OH273065   0.711   0.281   0.338  0.0412  0.1010  0.4318
17217TIP3    H173066   0.806   0.289   0.347  0.4394 -3.2718 -0.1935
17217TIP3    H273067   0.698   0.204   0.283 -3.0913  0.1789  0.9444
17218TIP3   OH273068   5.358   2.653   4.322  0.7567  0.5677  0.6164
17218TIP3    H173069   5.443   2.661   4.280  0.5231  1.1457  0.2457
17218TIP3    H273070   5.337   2.742   4.351  0.1233  0.4907  0.4054
17219TIP3   OH273071   4.346   6.207  15.180  0.7663  0.0057  0.0194
17219TIP3    H173072   4.379   6.182  15.093  0.1338  0.1827 -0.2716
17219TIP3    H273073   4.417   6.259  15.218  0.8044  0.4323 -0.6282
17220TIP3   OH273074   2.548   4.639   6.260 -0.0927 -0.0610  0.0712
17220TIP3    H173075   2.542   4.724   6.304 -0.9127  0.6620 -1.4042
17220TIP3    H273076   2.637   4.609   6.276  0.2439  1.1492  0.4780
17221TIP3   OH273077   6.257   2.088  14.865 -0.5494  0.0996 -0.1322
17221TIP3    H173078   6.235   2.162  14.921  2.8992  1.7665 -0.8175
17221TIP3    H273079   6.312   2.032  14.919  0.2615  0.1558 -0.8843
17222TIP3   OH273080   1.342   1.468  11.612  0.3693 -0.0207  0.0211
17222TIP3    H173081   1.412   1.472  11.547  1.1739 -1.5879  0.7460
17222TIP3    H273082   1.264   1.499  11.567  1.3706  0.9311 -1.0504
17223TIP3   OH273083   5.491   4.326  11.925  0.2753 -0.0349  0.0506
17223TIP3    H173084   5.509   4.382  11.849  1.9506  0.3574  0.7151
17223TIP3    H273085   5.413   4.365  11.965 -1.2233 -0.8233 -1.9992
17224TIP3   OH273086   3.752   5.790   4.881 -0.2763 -0.5847 -0.3201
17224TIP3    H173087   3.781   5.845   4.954 -1.4486 -1.0101  0.4709
17224TIP3    H273088   3.700   5.849   4.826 -2.5661 -1.1625  1.1624
17225TIP3   OH273089   2.794   1.715   0.368 -0.6982  0.2712  0.2959
17225TIP3    H173090   2.798   1.708   0.463 -0.3961  1.1543  0.3549
17225TIP3    H273091   2.867   1.661   0.337 -1.3985 -0.8058  0.5230
17226TIP3   OH273092   5.502   6.642  12.275  0.1956  0.1628  0.2678
17226TIP3    H173093   5.547   6.560  12.254  1.2876  0.6621  0.6215
17226TIP3    H273094   5.424   6.615  12.323  0.2541 -0.7030 -0.1075
17227TIP3   OH273095   2.879   2.264  11.606  0.9752  0.0867  0.3330
17227TIP3    H173096   2.870   2.252  11.511 -0.3878  0.1879  0.4420
17227TIP3    H273097   2.913   2.180  11.637  1.8304  0.1957 -0.2972
17228TIP3   OH273098   3.713   3.324   4.241 -0.4703  0.2534  0.8560
17228TIP3    H173099   3.701   3.329   4.146  1.8408  0.8995  0.5742
17228TIP3    H273100   3.748   3.237   4.256  0.2357  0.5490  0.9685
17229TIP3   OH273101   3.550   4.841  14.818 -0.0598 -0.2099 -0.1010
17229TIP3    H173102   3.526   4.779  14.748 -0.1626 -0.5308  0.2181
17229TIP3    H273103   3.645   4.844  14.815  0.0567 -1.8852  1.1681
17230TIP3   OH273104   0.126   3.525   2.837 -0.2218 -0.5951  0.0252
17230TIP3    H173105   0.045   3.501   2.791 -0.8005 -1.3615  1.4208
17230TIP3    H273106   0.097   3.568   2.917  0.7893  0.7950 -0.3293
17231TIP3   OH273107   0.597   0.871   5.234 -0.2021  0.0424  0.1062
17231TIP3    H173108   0.660   0.940   5.213 -0.0567  0.3683  1.5647
17231TIP3    H273109   0.644   0.789   5.215  0.3183  0.3086  0.2421
17232TIP3   OH273110   3.726   2.188  11.649  0.4037  0.3135 -0.6513
17232TIP3    H173111   3.763   2.213  11.564  0.5482  0.4785 -0.5401
17232TIP3    H273112   3.742   2.263  11.705  1.8902 -0.4948  0.0213
17233TIP3   OH273113   2.008   6.397   0.581 -0.3209  0.1199 -0.0119
17233TIP3    H173114   2.006   6.303   0.564  0.1566  0.2719 -0.9970
17233TIP3    H273115   2.077   6.408   0.646 -0.8786 -0.2893  0.6499
17234TIP3   OH273116   6.784   0.108   4.138  0.2123  0.0656 -0.0879
17234TIP3    H173117   6.743   0.022   4.122  0.9326 -0.9168  3.0681
17234TIP3    H273118   6.749   0.164   4.068 -0.7097 -2.6276 -1.8920
17235TIP3   OH273119   0.098   6.568   0.861 -0.6892  0.3495  0.4032
17235TIP3    H173120   0.153   6.641   0.830  0.8385  0.3830  3.0900
17235TIP3    H273121   0.018   6.576   0.810  0.2016  2.7648 -0.7023
17236TIP3   OH273122   5.710   6.289  16.803 -0.0878  0.6829  0.2763
17236TIP3    H173123   5.766   6.266  16.729 -0.6053  1.5433 -0.3932
17236TIP3    H273124   5.689   6.205  16.844  1.9346  0.3779  0.7320
17237TIP3   OH273125   1.257   2.054  12.135 -0.1671  0.3500  0.2121
17237TIP3    H173126   1.221   2.130  12.089 -0.4978  0.1353  0.1210
17237TIP3    H273127   1.216   1.979  12.093  1.1311  0.0534 -0.5855
17238TIP3   OH273128   4.533   4.344   1.287 -0.0086 -0.1446  0.6849
17238TIP3    H173129   4.607   4.397   1.314  1.1063 -1.1643 -0.3091
17238TIP3    H273130   4.474   4.405   1.242 -0.4485  0.9440  2.6688
17239TIP3   OH273131   3.568   2.995   1.331  0.0033 -0.1641 -0.4265
17239TIP3    H173132   3.616   2.947   1.398 -1.1912 -0.3707  0.2948
17239TIP3    H273133   3.525   2.927   1.279 -0.1898  0.0528 -0.5508
17240TIP3   OH273134   6.571   6.246   3.726  0.3391 -0.6688  0.1849
17240TIP3    H173135   6.484   6.257   3.687 -0.6330 -0.4831  2.3236
17240TIP3    H273136   6.619   6.324   3.697 -0.6888 -0.0157  0.1836
17241TIP3   OH273137   2.917   1.587  13.468  0.1582  0.2618  0.6920
17241TIP3    H173138   2.862   1.522  13.511 -2.3928  1.2022 -1.0278
17241TIP3    H273139   2.923   1.558  13.377  2.2129  0.3889  0.7613
17242TIP3   OH273140   0.361   5.632  13.828  0.0208  0.0275 -0.1216
17242TIP3    H173141   0.354   5.546  13.787  0.5508  0.4730 -1.1659
17242TIP3    H273142   0.316   5.623  13.912 -5.9668  0.5457 -3.0277
17243TIP3   OH273143   4.419   2.886   4.510 -0.0189  0.8098  0.4023
17243TIP3    H173144   4.476   2.814   4.484 -0.8879 -0.4925  2.0464
17243TIP3    H273145   4.446   2.959   4.454  0.2337 -1.0384 -1.9624
17244TIP3   OH273146   4.093   2.126  12.900  0.7071  0.3209 -0.1369
17244TIP3    H173147   4.062   2.133  12.990  1.2707  2.0696 -0.0487
17244TIP3    H273148   4.123   2.036  12.891 -2.5463 -0.8477  0.3654
17245TIP3   OH273149   4.355   2.435   0.604 -0.2631 -0.1673  0.6905
17245TIP3    H173150   4.301   2.479   0.669 -0.3435 -0.0977  0.5763
17245TIP3    H273151   4.426   2.395   0.654  0.0440  0.4444  0.7548
17246TIP3   OH273152   1.822   5.332   0.608  0.3646 -0.7377  0.2567
17246TIP3    H173153   1.831   5.335   0.704 -2.2076 -1.9892  0.6089
17246TIP3    H273154   1.789   5.419   0.585  0.1709 -0.7125  0.6132
17247TIP3   OH273155   6.214   6.691   2.264 -0.0256  0.2574  0.4830
17247TIP3    H173156   6.229   6.734   2.179  0.0526  0.0420  0.3865
17247TIP3    H273157   6.232   6.759   2.329 -0.6226  0.5766  0.3145
17248TIP3   OH273158   5.476   0.686  12.314  0.0124  0.6250  0.0111
17248TIP3    H173159   5.521   0.607  12.344 -1.4163  0.2799  1.3275
17248TIP3    H273160   5.443   0.726  12.394  0.5309  2.4635 -0.6619
17249TIP3   OH273161   0.671   2.832   5.814  0.4434  0.5682 -0.4034
17249TIP3    H173162   0.601   2.823   5.879  1.6536 -0.2106  0.8224
17249TIP3    H273163   0.634   2.889   5.747 -0.5111  2.1237  1.4072
17250TIP3   OH273164   5.228   0.034  11.118 -0.4300  0.0113  0.0045
17250TIP3    H173165   5.176   0.098  11.166  0.1151  0.4342  0.0277
17250TIP3    H273166   5.178  -0.048  11.126 -1.0328  0.3895  0.1179
17251TIP3   OH273167   2.611   0.791   5.490  0.4524  0.5419 -0.1621
17251TIP3    H173168   2.533   0.818   5.539 -0.4077 -0.1953 -1.0967
17251TIP3    H273169   2.614   0.696   5.500  0.4471  0.4137 -1.2456
17252TIP3   OH273170   6.691   5.390  14.418 -0.3056  0.1135 -0.1376
17252TIP3    H173171   6.766   5.448  14.404  0.0620 -0.3284 -0.0062
17252TIP3    H273172   6.662   5.365  14.330  0.0868 -0.2092 -0.1750
17253TIP3   OH273173   3.739   3.044  16.281 -0.4130  0.2671  0.0995
17253TIP3    H173174   3.728   3.101  16.357 -2.6552 -0.6798  0.5355
17253TIP3    H273175   3.800   3.091  16.225  1.0098  1.1547  2.3210
17254TIP3   OH273176   5.421   6.770   3.573 -0.1725 -0.6665 -0.4341
17254TIP3    H173177   5.395   6.767   3.482 -2.3138  0.5219  0.1144
17254TIP3    H273178   5.387   6.689   3.611  1.7417 -1.7359 -0.9113
17255TIP3   OH273179   3.350   0.949  11.960  0.1576  0.3450  0.5510
17255TIP3    H173180   3.275   0.909  11.915  1.1181  0.8809 -1.5389
17255TIP3    H273181   3.423   0.939  11.900  1.4477  1.2057  1.9352
17256TIP3   OH273182   4.740   6.291   1.961  0.0526  0.0159  0.4337
17256TIP3    H173183   4.823   6.251   1.986  0.5576  0.2995 -0.8130
17256TIP3    H273184   4.727   6.361   2.025  0.7534 -0.0263  0.6238
17257TIP3   OH273185   0.616   0.412   4.878  0.4165  0.0674 -0.6469
17257TIP3    H173186   0.588   0.503   4.864 -0.4855 -0.5520 -3.3208
17257TIP3    H273187   0.683   0.397   4.811 -1.9025 -2.2298 -2.5609
17258TIP3   OH273188   2.220   5.592   2.084 -0.2646  0.1733 -0.1533
17258TIP3    H173189   2.172   5.652   2.141 -1.6254 -0.8002 -0.2459
17258TIP3    H273190   2.283   5.549   2.142  0.0111  0.9322  0.1175
17259TIP3   OH273191   2.139   5.655  16.040 -0.1799  0.0280 -0.2785
17259TIP3    H173192   2.202   5.597  15.997 -0.1267  0.0747 -0.2639
17259TIP3    H273193   2.175   5.668  16.127  0.6112  1.3264 -0.7788
17260TIP3   OH273194   5.179   1.552   3.852  0.0871  0.5926  0.3802
17260TIP3    H173195   5.122   1.479   3.878  0.7677  0.3633  1.2455
17260TIP3    H273196   5.162   1.619   3.917 -0.0569  0.9675 -0.0447
17261TIP3   OH273197   1.748   4.862   3.841 -0.5138  0.2797  0.0392
17261TIP3    H173198   1.772   4.955   3.843 -0.9492  0.3787  0.9345
17261TIP3    H273199   1.722   4.842   3.931  2.0647 -1.3953  0.4486
17262TIP3   OH273200   0.258   0.947   1.171 -0.0747 -0.2632  0.2604
17262TIP3    H173201   0.252   0.933   1.077  0.0633 -0.2171  0.2444
17262TIP3    H273202   0.216   1.031   1.187 -0.8045 -0.6369  0.3418
17263TIP3   OH273203   5.862   4.905   3.860 -0.5016  0.0791  0.3087
17263TIP3    H173204   5.879   4.984   3.911 -1.4510 -0.5139  1.5756
17263TIP3    H273205   5.921   4.839   3.897 -0.2249 -0.0056 -0.2667
17264TIP3   OH273206   2.773   2.354  12.537  0.2073  0.2874 -0.1636
17264TIP3    H173207   2.802   2.442  12.512  1.1076  0.0430  0.0101
17264TIP3    H273208   2.798   2.345  12.629  1.4754 -0.6989 -0.5858
17265TIP3   OH273209   0.459   5.478  15.383  0.5271  0.0318  0.2516
17265TIP3    H173210   0.472   5.465  15.477 -2.4677 -3.8432  0.2455
17265TIP3    H273211   0.397   5.551  15.377  1.9075  1.3267  1.1510
17266TIP3   OH273212   5.339   2.266  12.942  0.2760  0.2603 -0.3374
17266TIP3    H173213   5.334   2.348  12.893 -0.1896  0.4012 -0.0639
17266TIP3    H273214   5.274   2.277  13.012  1.7500  0.5518  1.0187
17267TIP3   OH273215   5.312   2.997  12.635 -0.0023  0.5965 -0.1124
17267TIP3    H173216   5.268   3.081  12.647  0.5665  0.8809  0.0005
17267TIP3    H273217   5.389   3.001  12.693  0.3407  0.2279 -0.5345
17268TIP3   OH273218   0.224   1.508   0.377 -0.9887 -0.0489  0.4081
17268TIP3    H173219   0.213   1.502   0.472 -0.9250  0.8721  0.4813
17268TIP3    H273220   0.206   1.600   0.357  2.0860  0.5128 -0.0563
17269TIP3   OH273221   2.968   1.755   5.204 -1.0675 -0.1589 -0.1628
17269TIP3    H173222   2.931   1.803   5.278 -1.2540  0.2901 -0.5405
17269TIP3    H273223   3.036   1.701   5.242 -0.2782  1.0369  0.1496
17270TIP3   OH273224   3.770   4.832  17.197  0.1899 -0.1703  0.8354
17270TIP3    H173225   3.698   4.850  17.257 -0.3971 -0.6252  0.2872
17270TIP3    H273226   3.801   4.745  17.222  1.0937  0.3709  1.6022
17271TIP3   OH273227   2.521   6.314   0.100 -0.0351 -0.1314  0.2136
17271TIP3    H173228   2.572   6.233   0.099  0.8232  0.4033 -0.7589
17271TIP3    H273229   2.443   6.293   0.150 -0.7459 -2.1319 -1.6455
17272TIP3   OH273230   2.446   2.232   0.878 -0.1546  0.0063  0.0164
17272TIP3    H173231   2.496   2.156   0.909 -0.8682 -0.1120  0.8707
17272TIP3    H273232   2.369   2.195   0.836 -0.7931  0.2827  0.9457
17273TIP3   OH273233   0.294   2.658   0.694 -1.0316 -0.0596 -0.2821
17273TIP3    H173234   0.217   2.622   0.739  0.0114  1.0816  2.5112
17273TIP3    H273235   0.365   2.598   0.716 -0.5336  0.4329 -0.5427
17274TIP3   OH273236   5.410   4.736   4.799 -0.1819 -0.5906 -0.3387
17274TIP3    H173237   5.486   4.770   4.753 -0.4272 -0.3664 -0.5794
17274TIP3    H273238   5.438   4.651   4.833  0.4013 -0.1816  0.1960
17275TIP3   OH273239   2.340   3.688   5.462 -0.0081 -1.3624 -0.0676
17275TIP3    H173240   2.372   3.730   5.382 -1.5126  0.1543  0.0973
17275TIP3    H273241   2.296   3.758   5.509 -1.1425 -2.7840  1.0097
17276TIP3   OH273242   2.244   3.289   1.449 -0.6205  0.0918 -0.0107
17276TIP3    H173243   2.149   3.290   1.447 -0.5901  1.3685 -1.8261
17276TIP3    H273244   2.268   3.375   1.484 -0.1143  0.2739 -0.8080
17277TIP3   OH273245   5.420   4.920   5.044  0.0058 -1.0215  0.5698
17277TIP3    H173246   5.482   4.847   5.035  0.2904 -0.6140 -0.7853
17277TIP3    H273247   5.427   4.945   5.136  2.0652 -0.8123  0.3882
17278TIP3   OH273248   1.011   1.668   5.027 -0.1021  0.1771 -0.2016
17278TIP3    H173249   1.084   1.729   5.016 -0.2823  0.2389 -1.0890
17278TIP3    H273250   0.944   1.700   4.968  0.0442 -1.2632 -1.1701
17279TIP3   OH273251   5.981   4.745   0.532 -0.3298  0.6255 -0.8396
17279TIP3    H173252   5.998   4.805   0.605 -0.2912  0.6463 -0.8654
17279TIP3    H273253   6.019   4.790   0.456 -1.7808  1.3324 -1.1553
17280TIP3   OH273254   5.462   4.286   6.328  0.4297 -0.3077 -0.5867
17280TIP3    H173255   5.421   4.350   6.386  0.4450  1.3377 -2.3402
17280TIP3    H273256   5.504   4.223   6.387 -1.3614  0.1126  1.1915
17281TIP3   OH273257   2.692   4.523   4.539  0.1135 -0.2543  0.2424
17281TIP3    H173258   2.648   4.438   4.530  1.4159 -0.9215  0.0496
17281TIP3    H273259   2.655   4.561   4.618 -0.2743 -1.1394  0.4912
17282TIP3   OH273260   1.738   5.461  14.101 -0.3191  0.1711  0.1467
17282TIP3    H173261   1.819   5.415  14.078  0.0632  1.0431 -0.2648
17282TIP3    H273262   1.758   5.553  14.087 -2.5650  0.1678 -3.7112
17283TIP3   OH273263   4.622   1.249  11.151  0.3318 -0.0240  0.2910
17283TIP3    H173264   4.638   1.290  11.066 -1.8013 -3.8579 -2.0982
17283TIP3    H273265   4.709   1.222  11.181  0.7827 -1.5131 -2.2631
17284TIP3   OH273266   1.383   4.776  12.835 -0.0170 -0.6082 -0.1928
17284TIP3    H173267   1.355   4.807  12.749 -2.2651 -2.2511 -0.0891
17284TIP3    H273268   1.333   4.828  12.898 -0.8567 -1.6746  0.0422
17285TIP3   OH273269   3.163   5.065  11.837  0.3607  0.1804 -0.0079
17285TIP3    H173270   3.140   4.974  11.816  0.4912  0.4412 -1.3215
17285TIP3    H273271   3.084   5.101  11.877 -0.1717 -0.0815 -0.8256
17286TIP3   OH273272   1.071   0.679   3.565  0.1903  0.1797 -0.0271
17286TIP3    H173273   1.078   0.600   3.618  1.2091  1.2348  1.4667
17286TIP3    H273274   1.162   0.701   3.543 -0.2203 -0.3142 -2.3496
17287TIP3   OH273275   5.849   0.656  14.047  0.3728 -0.1471 -0.1286
17287TIP3    H173276   5.799   0.666  14.128 -0.4923 -1.0127 -0.5528
17287TIP3    H273277   5.892   0.571  14.056  1.0055  0.1694 -0.1776
17288TIP3   OH273278   1.559   0.652   5.170 -0.2191  0.2490 -0.2598
17288TIP3    H173279   1.526   0.645   5.081 -1.3611  0.5437  0.1385
17288TIP3    H273280   1.497   0.602   5.223  0.2059  0.4415  0.4354
17289TIP3   OH273281   4.302   4.288  14.455  0.4634 -0.4923  0.3698
17289TIP3    H173282   4.243   4.229  14.408 -1.1547  2.1944 -1.1105
17289TIP3    H273283   4.357   4.326  14.387  0.0790  1.2371  0.9904
17290TIP3   OH273284   2.898   3.183   0.769 -0.1001  0.1844 -0.4406
17290TIP3    H173285   2.811   3.172   0.731 -0.3896  0.5650  0.0927
17290TIP3    H273286   2.909   3.278   0.778  0.6591  0.1651 -1.1531
17291TIP3   OH273287   5.091   4.872   2.393 -0.2049  0.7489 -0.1989
17291TIP3    H173288   5.098   4.917   2.308  1.5227  1.1084  0.1111
17291TIP3    H273289   5.024   4.921   2.440 -0.8678  0.8175 -1.2009
17292TIP3   OH273290   3.559   3.513  15.254 -0.1680  0.9643  0.9118
17292TIP3    H173291   3.564   3.418  15.268 -0.7322  1.0811  1.9452
17292TIP3    H273292   3.531   3.522  15.162  1.9499  0.1707  0.1593
17293TIP3   OH273293   3.460   2.003  12.036  0.6214 -0.5373  0.4409
17293TIP3    H173294   3.483   2.008  11.944 -0.9971  1.7547  0.1029
17293TIP3    H273295   3.364   2.001  12.037  0.6322 -1.4329  2.0493
17294TIP3   OH273296   2.180   0.537   0.168 -0.0569 -0.0969  0.3192
17294TIP3    H173297   2.196   0.445   0.146  1.9590 -0.1425  1.8264
17294TIP3    H273298   2.201   0.543   0.262  0.1495  1.9743  0.1607
17295TIP3   OH273299   5.138   2.741  14.446 -0.5636 -0.4008 -0.2167
17295TIP3    H173300   5.111   2.657  14.409 -3.3457  0.0521  0.6679
17295TIP3    H273301   5.132   2.729  14.541  1.4469  0.0598 -0.0029
17296TIP3   OH273302   3.471   0.144   2.776  0.1058 -0.0672 -0.2234
17296TIP3    H173303   3.494   0.155   2.684 -0.3405  0.4493 -0.2731
17296TIP3    H273304   3.553   0.158   2.823  0.5414 -1.2939 -0.6047
17297TIP3   OH273305   4.474   5.634  13.842 -0.7351 -0.0511  0.2624
17297TIP3    H173306   4.408   5.566  13.827 -1.9948  1.0173  0.8989
17297TIP3    H273307   4.424   5.712  13.865  0.6445  1.3594 -1.3586
17298TIP3   OH273308   0.015   2.632   6.542 -0.1591 -0.0727 -0.0762
17298TIP3    H173309  -0.079   2.627   6.558 -0.5052  0.2402 -1.9785
17298TIP3    H273310   0.054   2.619   6.629 -1.9169 -1.0464  0.6041
17299TIP3   OH273311   6.079   4.068   4.246  0.1252 -0.3937 -0.5747
17299TIP3    H173312   6.008   4.107   4.194  1.2067  0.0394 -1.7557
17299TIP3    H273313   6.143   4.040   4.181  2.1047  1.3082  0.5651
17300TIP3   OH273314   5.290   5.072  14.046  0.4494  0.3696 -0.3658
17300TIP3    H173315   5.309   5.125  14.123 -2.0152  0.3749  0.2916
17300TIP3    H273316   5.274   5.135  13.976 -1.1886  0.4787  0.0963
17301TIP3   OH273317   1.407   5.818   0.090 -0.1687 -0.3554  0.1840
17301TIP3    H173318   1.435   5.728   0.103  0.1076 -0.6030 -1.8817
17301TIP3    H273319   1.346   5.835   0.162 -0.0912 -2.1271  0.6961
17302TIP3   OH273320   5.266   3.620  13.357 -0.1059 -0.6960 -0.1314
17302TIP3    H173321   5.254   3.634  13.263 -2.1114 -0.9803  0.0636
17302TIP3    H273322   5.351   3.661  13.377  0.1189 -0.2332 -1.9668
17303TIP3   OH273323   1.243   0.455  11.346 -0.5652  0.4032  0.1837
17303TIP3    H173324   1.245   0.384  11.410  0.9210  2.6815  2.7630
17303TIP3    H273325   1.329   0.454  11.306 -0.0447  1.5660  1.2218
17304TIP3   OH273326   0.759   1.625  14.355  0.0967  0.0941  0.0733
17304TIP3    H173327   0.760   1.672  14.438 -0.4812  1.6073 -0.7735
17304TIP3    H273328   0.673   1.642  14.318 -0.0982 -1.5668 -0.3001
17305TIP3   OH273329   2.283   3.603  15.343  0.3566 -0.0605  0.1176
17305TIP3    H173330   2.306   3.597  15.436 -0.1197 -0.0769  0.2330
17305TIP3    H273331   2.189   3.620  15.342  0.3741  0.0192 -0.3616
17306TIP3   OH273332   0.593   2.046  11.510  0.4034  0.1987 -0.4008
17306TIP3    H173333   0.551   2.121  11.553 -1.2451 -0.8342 -0.1825
17306TIP3    H273334   0.520   1.991  11.481  1.5912 -1.0775 -1.0251
17307TIP3   OH273335   0.169   5.449   3.221 -0.0725  0.1609  0.0055
17307TIP3    H173336   0.100   5.385   3.239 -0.2289  0.4890  0.5902
17307TIP3    H273337   0.126   5.534   3.232  0.3722  0.3667  0.1746
17308TIP3   OH273338   1.156   5.914  10.554 -0.4627 -0.0024  0.0912
17308TIP3    H173339   1.208   5.988  10.587 -0.2455  0.9268 -2.2431
17308TIP3    H273340   1.221   5.846  10.534 -0.5023 -0.1979  0.6191
17309TIP3   OH273341   4.547   3.792   0.243  0.4803 -0.1014  0.6073
17309TIP3    H173342   4.537   3.807   0.149 -1.5796 -1.7014  0.5499
17309TIP3    H273343   4.478   3.845   0.283 -1.0208 -2.2816  0.9631
17310TIP3   OH273344   1.407   5.451  11.851 -0.4072  0.1651  0.1304
17310TIP3    H173345   1.401   5.489  11.763  1.0041 -2.8573 -1.3391
17310TIP3    H273346   1.471   5.506  11.896  0.9379  0.0887 -1.6486
17311TIP3   OH273347   5.860   3.339   1.542  0.3835  0.3223  0.3281
17311TIP3    H173348   5.940   3.391   1.532  0.2842  0.2250 -1.0817
17311TIP3    H273349   5.870   3.268   1.479 -0.0620 -0.6635  1.3454
17312TIP3   OH273350   1.804   4.969   3.114  0.6844 -0.2724 -0.6336
17312TIP3    H173351   1.854   5.009   3.042  1.9697  0.0586  0.4107
17312TIP3    H273352   1.870   4.922   3.165  0.1459  1.0738  1.3872
17313TIP3   OH273353   0.293   2.829   5.656 -0.0811  0.4592 -0.0077
17313TIP3    H173354   0.241   2.755   5.688  1.1635 -0.7807 -0.7934
17313TIP3    H273355   0.247   2.858   5.577 -0.7830  0.7644  0.5111
17314TIP3   OH273356   1.520   0.901  14.891  0.2418 -0.0250 -0.0809
17314TIP3    H173357   1.558   0.979  14.850  2.8761 -0.3070  1.7600
17314TIP3    H273358   1.445   0.935  14.940  1.5155  1.4435  0.9251
17315TIP3   OH273359   1.352   1.690   0.813 -0.2577  0.2377  0.2666
17315TIP3    H173360   1.333   1.614   0.758  1.8137  2.3964 -3.6332
17315TIP3    H273361   1.268   1.713   0.851 -1.3280 -2.6626 -0.1820
17316TIP3   OH273362   5.132   0.786  11.504  0.3661 -0.5443  0.5826
17316TIP3    H173363   5.154   0.809  11.594 -0.2705 -1.1280  0.8893
17316TIP3    H273364   5.192   0.715  11.481  0.7988 -0.1217  0.4111
17317TIP3   OH273365   0.460   5.463   0.759  0.1239  0.4668  0.3060
17317TIP3    H173366   0.431   5.488   0.671 -2.4456  0.5049  1.1000
17317TIP3    H273367   0.489   5.544   0.799  0.1058  0.6659 -0.0801
17318TIP3   OH273368   2.333   2.793   4.389 -0.2815  0.4262  0.1170
17318TIP3    H173369   2.366   2.848   4.317  0.2512 -1.5806 -1.2359
17318TIP3    H273370   2.412   2.761   4.432 -0.5668  0.0823  0.3865
17319TIP3   OH273371   2.880   1.411   3.110  0.0321  0.0110 -0.0782
17319TIP3    H173372   2.953   1.409   3.172  1.2937 -0.7384 -1.5428
17319TIP3    H273373   2.837   1.495   3.125 -0.2208 -0.5341  2.4071
17320TIP3   OH273374   1.898   5.106   1.927  0.1762 -0.3876  0.1031
17320TIP3    H173375   1.917   5.015   1.906  3.0217  0.2367 -0.1720
17320TIP3    H273376   1.908   5.153   1.844 -1.0852  0.2149  0.2752
17321TIP3   OH273377   4.126   4.409   6.230  0.3865 -0.6472  0.2276
17321TIP3    H173378   4.067   4.483   6.234  0.3122 -0.6867 -0.1964
17321TIP3    H273379   4.111   4.370   6.144  0.0535 -1.4604  0.6510
17322TIP3   OH273380   3.783   2.787   0.122 -0.0981  0.2112  0.3309
17322TIP3    H173381   3.817   2.769   0.210 -0.4140 -2.5002 -0.0433
17322TIP3    H273382   3.705   2.732   0.115 -0.2375  0.6246 -1.5393
17323TIP3   OH273383   0.698   0.575  16.238 -0.5847  0.3607 -0.1554
17323TIP3    H173384   0.687   0.601  16.329  0.4393  0.8284 -0.1567
17323TIP3    H273385   0.784   0.534  16.235 -1.4909 -1.5545 -0.4960
17324TIP3   OH273386   0.231   3.208  13.763  0.1880 -0.2376 -0.4599
17324TIP3    H173387   0.289   3.188  13.837 -0.5625 -1.1349 -0.0956
17324TIP3    H273388   0.283   3.188  13.686  0.0775 -1.9099 -0.1203
17325TIP3   OH273389   3.492   2.862  14.828 -0.4941  0.6709  0.3908
17325TIP3    H173390   3.452   2.775  14.828  0.3309  0.2762 -1.2968
17325TIP3    H273391   3.463   2.902  14.747  1.0359  1.0804  0.0331
17326TIP3   OH273392   6.634   3.159   6.606 -0.5834 -0.7292 -0.0991
17326TIP3    H173393   6.635   3.254   6.592  2.1190 -0.5742  0.7798
17326TIP3    H273394   6.642   3.148   6.700  1.9706 -1.7931 -0.3884
17327TIP3   OH273395   1.332   1.062   2.890  0.1857 -0.7469 -0.2105
17327TIP3    H173396   1.304   1.151   2.910 -0.8198 -1.0266 -0.3723
17327TIP3    H273397   1.381   1.070   2.808 -1.0350 -0.5465 -0.9233
17328TIP3   OH273398   4.589   6.447   5.016 -0.0161  0.0627 -0.4982
17328TIP3    H173399   4.543   6.497   5.084 -1.3031  0.0609 -1.3473
17328TIP3    H273400   4.659   6.505   4.988  0.4836  0.0991  0.7597
17329TIP3   OH273401   3.885   6.717  16.735 -0.0971  0.1981 -0.3151
17329TIP3    H173402   3.872   6.670  16.818  0.1924 -0.2174 -0.5049
17329TIP3    H273403   3.954   6.781  16.755 -0.4401  0.5001 -0.0771
17330TIP3   OH273404   5.222   2.741  12.642 -0.0566  0.1522  0.8362
17330TIP3    H173405   5.246   2.757  12.550 -1.9544 -0.0197  0.3000
17330TIP3    H273406   5.244   2.822  12.687 -0.1197  0.6220  0.0248
17331TIP3   OH273407   3.988   4.471  12.141  0.5850 -0.3779  0.0931
17331TIP3    H173408   3.920   4.440  12.080  1.3541  1.2798 -1.6712
17331TIP3    H273409   3.970   4.565  12.150  0.9195 -0.4733  1.8868
17332TIP3   OH273410   1.468   4.995   6.009  0.4243  0.0514  0.6470
17332TIP3    H173411   1.483   5.083   5.976  0.3108  0.1475  0.8507
17332TIP3    H273412   1.386   5.001   6.057 -0.5930 -0.5942 -0.9470
17333TIP3   OH273413   2.277   5.885  14.189 -0.3595 -0.3592  0.1240
17333TIP3    H173414   2.220   5.872  14.265 -0.9718 -0.7833 -0.4069
17333TIP3    H273415   2.238   5.832  14.120  0.3922 -0.2471 -0.3932
17334TIP3   OH273416   4.712   0.078  12.954  0.2775 -0.2597  0.5316
17334TIP3    H173417   4.736   0.076  13.047 -0.9129  0.1873  0.8587
17334TIP3    H273418   4.647   0.148  12.948  1.0567  0.3555 -0.8197
17335TIP3   OH273419   1.486   6.392   2.724 -0.5385  0.1405 -0.3108
17335TIP3    H173420   1.580   6.381   2.733 -0.6984 -1.5299 -0.4914
17335TIP3    H273421   1.454   6.306   2.699 -2.0286  0.8701 -1.0043
17336TIP3   OH273422   5.408   0.894  16.950  0.5703  0.5320  0.5830
17336TIP3    H173423   5.417   0.932  17.038  1.2969  1.5884  0.0581
17336TIP3    H273424   5.497   0.872  16.924  0.0851 -2.5063  1.2792
17337TIP3   OH273425   1.551   3.649   5.006  0.1313 -0.4557 -0.1714
17337TIP3    H173426   1.530   3.609   5.090 -0.0136 -0.5815 -0.2665
17337TIP3    H273427   1.570   3.575   4.948  1.1181 -0.3316 -0.0159
17338TIP3   OH273428   1.558   1.913  15.793  0.0867  0.0493 -0.4782
17338TIP3    H173429   1.508   1.855  15.735  2.1864 -2.0400 -0.2795
17338TIP3    H273430   1.499   1.932  15.865 -1.9153  1.1577 -2.3500
17339TIP3   OH273431   4.413   2.589  12.096  0.0125  0.2174  0.1143
17339TIP3    H173432   4.423   2.665  12.154  2.0880  0.9365 -1.1217
17339TIP3    H273433   4.471   2.523  12.134 -0.0890  0.0314 -0.0547
17340TIP3   OH273434   3.378   0.542   4.935 -0.4260 -0.3098 -0.1610
17340TIP3    H173435   3.378   0.457   4.891 -0.1393  0.1756 -1.1442
17340TIP3    H273436   3.286   0.566   4.943 -0.7003 -2.3381  3.4294
17341TIP3   OH273437   6.261   5.194  15.988 -0.7564 -0.5002 -0.4933
17341TIP3    H173438   6.297   5.276  15.956 -0.2237 -0.0009  1.3360
17341TIP3    H273439   6.295   5.128  15.927  0.7914  0.3392 -0.5648
17342TIP3   OH273440   0.510   5.589  12.995  0.4307 -0.0079 -0.4643
17342TIP3    H173441   0.573   5.540  13.048 -0.8662 -0.3679  0.7662
17342TIP3    H273442   0.492   5.531  12.921  1.4957  0.0830 -0.8121
17343TIP3   OH273443   6.399   3.194   0.209 -0.1928  0.5876  0.3530
17343TIP3    H173444   6.372   3.218   0.120  2.9013  3.0488 -0.0018
17343TIP3    H273445   6.493   3.176   0.202 -0.5463 -2.4325  2.5390
17344TIP3   OH273446   5.769   6.226   5.818  0.0102 -0.6444 -0.1070
17344TIP3    H173447   5.765   6.217   5.722  0.2776  0.2540 -0.2132
17344TIP3    H273448   5.858   6.199   5.841  0.2536  0.0187 -0.2313
17345TIP3   OH273449   5.388   5.247   5.015  0.3599  0.1073  0.3024
17345TIP3    H173450   5.301   5.273   5.044  0.5108  1.0221 -0.0612
17345TIP3    H273451   5.382   5.152   5.003 -0.6915  0.2228 -0.0925
17346TIP3   OH273452   5.637   4.563  14.590 -0.2881  0.1464 -0.1461
17346TIP3    H173453   5.577   4.635  14.574 -1.8475 -1.1761 -0.3939
17346TIP3    H273454   5.603   4.519  14.668  1.1666  0.1952  0.5431
17347TIP3   OH273455   4.639   1.727   2.376  0.8227 -0.3931  0.0436
17347TIP3    H173456   4.617   1.818   2.358 -2.2854 -0.8059  1.4288
17347TIP3    H273457   4.599   1.678   2.305  1.6968 -0.7516 -0.2008
17348TIP3   OH273458   6.464   3.799   5.838 -0.4452  0.1159 -0.0543
17348TIP3    H173459   6.451   3.802   5.933 -1.6918 -0.1597 -0.1997
17348TIP3    H273460   6.382   3.762   5.804  0.6317 -1.3199 -1.1089
17349TIP3   OH273461   0.499   5.790   0.687 -0.1991 -0.6872  0.3790
17349TIP3    H173462   0.562   5.782   0.615  0.4164  2.8150  0.4601
17349TIP3    H273463   0.413   5.790   0.645  0.0675 -0.7712 -0.1649
17350TIP3   OH273464   3.006   6.405   4.631 -0.2233 -0.3442  0.1273
17350TIP3    H173465   3.010   6.351   4.552 -0.2853 -0.6469  0.3296
17350TIP3    H273466   3.037   6.491   4.603  0.5524 -0.6699 -0.0367
17351TIP3   OH273467   4.422   0.478   0.221 -0.4952 -0.4413  0.3419
17351TIP3    H173468   4.443   0.547   0.284 -1.3280 -0.5893  0.7958
17351TIP3    H273469   4.398   0.524   0.141  1.5657 -0.2717 -0.1999
17352TIP3   OH273470   3.106   0.207  14.439  0.7246 -0.1361 -0.0118
17352TIP3    H173471   3.110   0.290  14.391  1.2069 -0.8731 -1.2843
17352TIP3    H273472   3.196   0.176  14.441  0.2794 -1.6187 -1.3733
17353TIP3   OH273473   6.554   1.856   1.286  0.1718 -0.4141 -0.2846
17353TIP3    H173474   6.477   1.872   1.231  0.0868 -2.6870 -0.8984
17353TIP3    H273475   6.519   1.812   1.364  0.5905  0.6224  0.5000
17354TIP3   OH273476   1.820   3.284  10.796  0.6035  0.3674  0.2391
17354TIP3    H173477   1.863   3.270  10.712 -0.2583  0.4391 -0.2212
17354TIP3    H273478   1.767   3.363  10.783 -1.0704 -0.7306  0.2278
17355TIP3   OH273479   1.130   6.286  11.872  0.8335  0.4466 -0.7111
17355TIP3    H173480   1.181   6.207  11.887 -0.2903 -0.2381 -0.4570
17355TIP3    H273481   1.100   6.278  11.782 -0.2713  0.0086 -0.3060
17356TIP3   OH273482   0.567   1.747  13.731  0.1820  0.6045 -0.5577
17356TIP3    H173483   0.500   1.687  13.698  1.1595 -0.9935  0.3074
17356TIP3    H273484   0.634   1.749  13.663 -0.1809  1.3190 -0.9102
17357TIP3   OH273485   4.727   5.068   0.433 -0.0700  0.0619  0.1351
17357TIP3    H173486   4.650   5.044   0.485  1.2023  2.0570  3.0261
17357TIP3    H273487   4.794   5.006   0.459 -0.2566 -0.8224 -1.3994
17358TIP3   OH273488   6.244   5.479   3.778  0.1027 -0.1356 -0.1852
17358TIP3    H173489   6.252   5.564   3.733 -0.5730 -0.2925 -0.6113
17358TIP3    H273490   6.308   5.423   3.733  0.2999  0.0517 -0.1388
17359TIP3   OH273491   6.330   0.593   3.280  0.0412 -0.3601  0.4184
17359TIP3    H173492   6.289   0.670   3.318 -1.7437 -0.9365 -0.2914
17359TIP3    H273493   6.335   0.530   3.353 -0.7393 -0.4425  0.4029
17360TIP3   OH273494   4.544   1.390   1.828  0.0574  0.2468  0.4824
17360TIP3    H173495   4.530   1.302   1.793 -0.1582  0.5394 -0.1715
17360TIP3    H273496   4.468   1.440   1.799  1.1500  1.1743 -0.8882
17361TIP3   OH273497   3.288   0.703  15.332 -0.5295 -0.1792  0.3821
17361TIP3    H173498   3.350   0.747  15.273 -0.4392  0.5765  1.0244
17361TIP3    H273499   3.219   0.671  15.274 -2.3391  3.7502  0.1980
17362TIP3   OH273500   3.935   3.193  16.196  0.8022 -0.3276  0.1283
17362TIP3    H173501   3.963   3.260  16.258 -2.8406 -1.2021  2.8731
17362TIP3    H273502   3.998   3.122  16.208  0.5861 -0.1924  2.3374
17363TIP3   OH273503   4.514   2.212   4.855  0.2216 -0.0501  0.0183
17363TIP3    H173504   4.440   2.272   4.858  0.7719  0.6978 -1.1343
17363TIP3    H273505   4.476   2.126   4.875 -0.2355  0.9392  3.6502
17364TIP3   OH273506   1.497   0.075   2.466  0.2027 -0.1956  0.5099
17364TIP3    H173507   1.510  -0.003   2.520  1.6742  0.3293  0.9488
17364TIP3    H273508   1.438   0.046   2.396 -0.2963 -1.3565  1.3816
17365TIP3   OH273509   0.740   5.647   6.215  0.0861 -0.0129 -0.8239
17365TIP3    H173510   0.777   5.642   6.126 -0.8472 -0.8941 -1.1691
17365TIP3    H273511   0.678   5.720   6.211  0.3537  0.2210 -0.7701
17366TIP3   OH273512   1.025   3.966  13.662 -0.2726 -0.6219  0.2641
17366TIP3    H173513   1.016   3.874  13.688 -1.6041  0.1515  2.7021
17366TIP3    H273514   0.989   4.015  13.736 -0.2580  1.8480 -1.3242
17367TIP3   OH273515   3.662   0.301  13.108  0.3237 -0.5976 -0.5249
17367TIP3    H173516   3.729   0.343  13.053  0.0512  0.9982  0.3193
17367TIP3    H273517   3.635   0.370  13.169 -0.9761 -1.6902  0.1560
17368TIP3   OH273518   3.262   5.573   3.594 -0.4087 -0.5938 -0.4347
17368TIP3    H173519   3.312   5.645   3.631  0.3929 -0.6416 -1.4035
17368TIP3    H273520   3.170   5.599   3.606 -0.1325  0.8131 -1.2088
17369TIP3   OH273521   2.439   1.854   4.271 -0.2280 -0.2288  0.0660
17369TIP3    H173522   2.476   1.930   4.316 -0.1369  0.2542 -0.8062
17369TIP3    H273523   2.430   1.788   4.339 -2.5512  1.3463  1.3640
17370TIP3   OH273524   0.054   4.222  15.648  0.0879 -0.0476 -0.0296
17370TIP3    H173525   0.126   4.179  15.696 -1.1662 -1.1873  0.8839
17370TIP3    H273526   0.010   4.150  15.603 -0.0261  0.7479 -1.1837
17371TIP3   OH273527   0.448   2.297  15.752  0.0904  0.2495  0.6513
17371TIP3    H173528   0.355   2.294  15.772  0.4744  0.9552  2.7299
17371TIP3    H273529   0.491   2.272  15.834  1.7420  0.2070 -0.1975
17372TIP3   OH273530   3.427   4.023  13.711 -0.1025  0.2729 -0.0323
17372TIP3    H173531   3.456   4.039  13.621 -1.9168 -1.3067 -0.9375
17372TIP3    H273532   3.508   4.023  13.763  1.1106 -0.2068 -1.8812
17373TIP3   OH273533   3.770   2.956   3.456  0.4647  0.5421 -0.6282
17373TIP3    H173534   3.838   2.911   3.405 -0.2820 -1.1265 -0.1863
17373TIP3    H273535   3.786   3.049   3.440  2.9361  0.1967 -0.4372
17374TIP3   OH273536   1.402   4.423   0.856 -0.1331  0.0679  0.3876
17374TIP3    H173537   1.482   4.375   0.878  1.0646  1.0133 -1.7790
17374TIP3    H273538   1.349   4.418   0.936  2.2786 -0.1608  2.0559
17375TIP3   OH273539   4.229   6.364  14.872 -0.0830  0.3219  0.3539
17375TIP3    H173540   4.256   6.294  14.812  0.2689 -0.6576  1.6490
17375TIP3    H273541   4.156   6.406  14.827 -0.1340 -0.7122 -0.5658
17376TIP3   OH273542   6.583   1.764  16.725 -0.5331  0.4746 -0.2311
17376TIP3    H173543   6.640   1.727  16.794  0.1886 -0.7764 -1.4702
17376TIP3    H273544   6.498   1.725  16.742 -0.2998 -0.0271 -0.2003
17377TIP3   OH273545   0.243   2.921   2.495 -0.0591  0.2856 -0.8939
17377TIP3    H173546   0.297   2.901   2.418  2.7364  1.1750  0.7667
17377TIP3    H273547   0.259   3.014   2.512 -0.5658  0.0780  0.8340
17378TIP3   OH273548   6.590   0.189   4.786  0.2365  0.2055 -0.2443
17378TIP3    H173549   6.565   0.279   4.766  0.9784  0.4314 -0.1709
17378TIP3    H273550   6.666   0.197   4.843  1.3540 -0.4743 -1.6026
17379TIP3   OH273551   5.501   2.538   5.154  0.7264  0.4669  0.1249
17379TIP3    H173552   5.532   2.449   5.169 -0.4141  0.1800  0.8168
17379TIP3    H273553   5.470   2.567   5.240 -1.4050  0.5578 -0.6548
17380TIP3   OH273554   1.883   2.088   0.370 -0.1502 -0.5066 -0.3513
17380TIP3    H173555   1.792   2.113   0.349  0.1176  1.7893  1.0503
17380TIP3    H273556   1.875   2.031   0.447 -0.4176 -0.5381 -0.4011
17381TIP3   OH273557   2.703   2.493  16.171  0.0020  0.2310 -0.3960
17381TIP3    H173558   2.650   2.554  16.119  0.7829  1.2923  0.0429
17381TIP3    H273559   2.792   2.527  16.164  0.2170 -0.0128  1.0792
17382TIP3   OH273560   3.606   4.602   4.543  0.7749  0.2566 -0.0526
17382TIP3    H173561   3.593   4.695   4.521 -2.9697  0.5401  2.8010
17382TIP3    H273562   3.579   4.555   4.464 -0.8481  1.5233 -0.2715
17383TIP3   OH273563   0.995   3.054  14.608 -0.4528  0.4324 -0.6067
17383TIP3    H173564   1.079   3.040  14.564 -1.4536 -1.6861 -1.8792
17383TIP3    H273565   1.019   3.086  14.695  1.6719 -0.5398 -0.8136
17384TIP3   OH273566   2.171   0.977  15.197  0.2342  0.2617  0.0050
17384TIP3    H173567   2.239   0.912  15.178 -0.6201 -0.3273 -1.0827
17384TIP3    H273568   2.212   1.061  15.177  1.0976  0.0130  0.6871
17385TIP3   OH273569   2.317   3.709  16.478 -0.1101 -0.4228 -0.0059
17385TIP3    H173570   2.280   3.785  16.433  0.8751  1.4704  2.2827
17385TIP3    H273571   2.322   3.641  16.410 -0.4850  1.6987 -2.2417
17386TIP3   OH273572   4.211   0.012  16.555  0.0328 -0.4252 -0.3374
17386TIP3    H173573   4.296   0.050  16.532  0.7779 -1.1227  1.1598
17386TIP3    H273574   4.204   0.025  16.650 -0.5654 -2.2665 -0.1059
17387TIP3   OH273575   4.375   1.181  15.766  0.3788  0.2695 -0.1636
17387TIP3    H173576   4.345   1.094  15.792  0.6931  0.3629  0.5214
17387TIP3    H273577   4.319   1.205  15.692 -1.3172  0.4959  1.1724
17388TIP3   OH273578   4.776   4.163  12.098  0.2644 -0.1658  0.0821
17388TIP3    H173579   4.854   4.219  12.102  0.5316 -0.4007 -1.4517
17388TIP3    H273580   4.805   4.080  12.135  0.6189 -0.0965 -0.0290
17389TIP3   OH273581   6.473   1.524   3.504 -0.0060 -0.5603 -0.0483
17389TIP3    H173582   6.382   1.502   3.482 -0.3578  0.9748 -0.2084
17389TIP3    H273583   6.508   1.444   3.543 -1.3954 -1.2161 -0.1007
17390TIP3   OH273584   3.416   3.856  11.594 -0.2408  0.2217 -0.4070
17390TIP3    H173585   3.375   3.886  11.675 -1.4155  1.1827 -1.3537
17390TIP3    H273586   3.497   3.906  11.588  0.3817 -0.6434  0.7326
17391TIP3   OH273587   1.604   3.100   6.216  0.4510 -0.1313  0.4194
17391TIP3    H173588   1.625   3.137   6.130  1.6525 -2.4871 -0.3320
17391TIP3    H273589   1.660   3.147   6.277 -1.1162  2.2612  0.0964
17392TIP3   OH273590   1.518   2.206   1.405  0.1200 -0.3818 -0.0374
17392TIP3    H173591   1.582   2.262   1.360 -0.9094  0.8183 -0.0465
17392TIP3    H273592   1.528   2.229   1.498  0.9327 -1.4908  0.1561
17393TIP3   OH273593   4.271   5.880  12.511 -0.0560 -0.1645  0.2186
17393TIP3    H173594   4.255   5.913  12.423 -1.7810 -3.5639 -0.8241
17393TIP3    H273595   4.353   5.830  12.503 -1.0093 -1.7417  0.1513
17394TIP3   OH273596   1.138   3.415   1.741  0.1415  0.2370  0.0356
17394TIP3    H173597   1.123   3.484   1.676 -0.0478 -0.9304 -1.1830
17394TIP3    H273598   1.051   3.377   1.756  0.4820 -0.7689 -0.4845
17395TIP3   OH273599   3.697   2.250  13.320 -0.3832  0.3389 -0.0417
17395TIP3    H173600   3.758   2.324  13.311 -1.7912  1.5807  0.2908
17395TIP3    H273601   3.618   2.278  13.273 -1.5518 -0.2317  1.5172
17396TIP3   OH273602   2.842   1.995   0.008 -0.4512 -0.3040  0.5642
17396TIP3    H173603   2.861   1.910   0.048  1.1334  0.5228  1.6392
17396TIP3    H273604   2.871   2.059   0.074 -2.0258  1.0665 -0.0515
17397TIP3   OH273605   5.952   5.532   3.608 -0.2330 -0.7041  0.2119
17397TIP3    H173606   5.927   5.527   3.516 -0.7419 -1.1073  0.3703
17397TIP3    H273607   6.047   5.518   3.608 -0.4316 -2.0905 -0.1325
17398TIP3   OH273608   1.466   3.606   0.856  0.2983 -0.4280  0.7071
17398TIP3    H173609   1.521   3.629   0.931  1.3813  0.5261 -0.3655
17398TIP3    H273610   1.521   3.624   0.779 -0.3684 -2.4958 -0.3003
17399TIP3   OH273611   2.895   1.458  10.855 -0.5201 -0.1532 -0.0071
17399TIP3    H173612   2.933   1.375  10.886 -0.8055 -0.0409  0.6484
17399TIP3    H273613   2.891   1.448  10.760 -0.0000 -0.6608  0.0212
17400TIP3   OH273614   3.878   4.744  12.469 -0.7414 -0.4083  0.1232
17400TIP3    H173615   3.803   4.803  12.480 -0.0376  0.2446  1.6275
17400TIP3    H273616   3.911   4.763  12.381 -1.5658  0.2257 -0.0553
17401TIP3   OH273617   0.324   3.270   2.620 -0.3186 -0.1689 -0.1647
17401TIP3    H173618   0.248   3.245   2.568 -0.3522 -0.3621 -0.0245
17401TIP3    H273619   0.391   3.294   2.556 -1.0273  1.6046 -0.2806
17402TIP3   OH273620   4.756   6.666   4.625 -0.2697  0.1885  0.4901
17402TIP3    H173621   4.809   6.665   4.545  0.4594  0.4637  0.9754
17402TIP3    H273622   4.713   6.751   4.624 -1.4626 -0.3952 -0.3918
17403TIP3   OH273623   5.173   6.267   4.458  0.1629  0.2871 -0.2720
17403TIP3    H173624   5.129   6.219   4.387  0.4796 -0.0687 -0.2347
17403TIP3    H273625   5.210   6.198   4.513  2.3261  0.5754 -1.3033
17404TIP3   OH273626   0.851   5.077   4.977 -0.3719 -0.8546  0.0493
17404TIP3    H173627   0.801   5.125   5.043 -0.9835 -0.3810 -0.7492
17404TIP3    H273628   0.940   5.110   4.986 -0.2785 -1.3944  1.1934
17405TIP3   OH273629   1.945   5.024  13.543 -0.0381 -0.2261  0.0736
17405TIP3    H173630   1.891   5.002  13.618 -0.9021  1.3834 -0.0519
17405TIP3    H273631   1.883   5.033  13.470  0.6923 -0.9091 -0.6544
17406TIP3   OH273632   2.545   0.620  12.740 -0.2143  0.2076  0.3234
17406TIP3    H173633   2.463   0.661  12.713 -0.3068 -0.0102  0.2721
17406TIP3    H273634   2.603   0.627  12.664 -0.1980  0.3290  0.3470
17407TIP3   OH273635   0.487   6.320   1.447 -0.0781 -0.5653  0.1416
17407TIP3    H173636   0.490   6.338   1.353  2.9737  0.0656  0.3104
17407TIP3    H273637   0.494   6.406   1.488 -0.3573 -0.9335  0.9721
17408TIP3   OH273638   4.080   2.783   1.676 -0.8955 -0.3790 -0.0248
17408TIP3    H173639   4.023   2.763   1.602 -0.5722 -2.2023  0.1831
17408TIP3    H273640   4.137   2.707   1.683  0.8128  0.9175  0.4951
17409TIP3   OH273641   2.628   3.541   0.723 -0.0313  0.6131 -0.2591
17409TIP3    H173642   2.722   3.548   0.707  0.0311  0.1442 -0.1246
17409TIP3    H273643   2.588   3.550   0.636  0.3479 -2.5786 -0.8383
17410TIP3   OH273644   5.942   1.444  16.353 -0.2144  0.0926 -0.9888
17410TIP3    H173645   5.977   1.530  16.377  0.4141  0.2740 -2.4584
17410TIP3    H273646   5.847   1.456  16.350 -0.2029  0.4323 -0.0799
17411TIP3   OH273647   0.072   0.091   2.158 -0.6311  0.4075 -0.1626
17411TIP3    H173648   0.087   0.110   2.065  0.6742 -0.9414 -0.2400
17411TIP3    H273649   0.105   0.169   2.204 -1.7220  1.2884 -0.8328
17412TIP3   OH273650   5.653   3.516  16.918  0.6882 -0.1267 -0.2774
17412TIP3    H173651   5.650   3.485  17.009  0.4519  0.5409 -0.0510
17412TIP3    H273652   5.594   3.458  16.871 -0.4354  0.5270  0.3083
17413TIP3   OH273653   3.287   4.796  11.584 -0.4780 -0.1321  0.0966
17413TIP3    H173654   3.229   4.791  11.660 -0.5014  0.0540  0.0903
17413TIP3    H273655   3.254   4.728  11.524 -1.2663  0.6054 -0.3105
17414TIP3   OH273656   4.347   1.356   4.736  0.1382  0.0499  0.2597
17414TIP3    H173657   4.403   1.379   4.810 -1.8407 -0.1669  1.8809
17414TIP3    H273658   4.268   1.409   4.749  0.0518  0.5444 -2.1149
17415TIP3   OH273659   4.095   5.534  13.540 -0.0438  0.6031  0.2421
17415TIP3    H173660   4.109   5.455  13.489  1.8439  1.4446 -0.5869
17415TIP3    H273661   4.018   5.575  13.501 -1.0269 -0.7875  0.6743
17416TIP3   OH273662   3.412   5.820   2.541  0.3961 -0.0243  0.5132
17416TIP3    H173663   3.372   5.829   2.627  2.2461  2.6292  1.1456
17416TIP3    H273664   3.476   5.892   2.536  2.5742 -2.0199 -1.8151
17417TIP3   OH273665   2.735   0.505  15.655 -0.0247  0.5001 -0.1838
17417TIP3    H173666   2.825   0.529  15.678  0.2556  1.5116 -2.2271
17417TIP3    H273667   2.716   0.429  15.710  1.5804  1.1230  1.2893
17418TIP3   OH273668   6.160   1.053  16.995 -0.3747  0.0924  0.2505
17418TIP3    H173669   6.229   1.080  16.935  0.9174 -1.0051  1.1969
17418TIP3    H273670   6.129   0.969  16.959  0.4013 -0.5658  1.1080
17419TIP3   OH273671   5.768   3.904  12.302 -0.1531 -0.0603  0.3995
17419TIP3    H173672   5.680   3.906  12.341 -0.2056  2.3951  0.1908
17419TIP3    H273673   5.823   3.950  12.365  0.5515  0.3865 -0.5455
17420TIP3   OH273674   3.620   5.922  17.019  0.3207 -0.6779 -0.9136
17420TIP3    H173675   3.556   5.888  16.957  1.0203 -1.4299 -1.2299
17420TIP3    H273676   3.702   5.923  16.971  0.2886  1.7152 -0.9896
17421TIP3   OH273677   2.375   6.242  13.063 -0.6845  0.3037  0.0131
17421TIP3    H173678   2.313   6.312  13.042 -1.3484 -0.0702  0.7192
17421TIP3    H273679   2.387   6.248  13.158 -2.3116 -1.8244  0.3675
17422TIP3   OH273680   5.358   2.045  14.006 -0.2658 -0.2184 -0.4333
17422TIP3    H173681   5.328   2.112  13.944 -0.2253  0.5658  0.3852
17422TIP3    H273682   5.278   2.009  14.044 -0.2534  0.1393 -0.0656
17423TIP3   OH273683   0.247   6.332   3.366  0.3873 -0.0054  0.2897
17423TIP3    H173684   0.175   6.309   3.424 -0.0238 -0.0844 -0.2467
17423TIP3    H273685   0.236   6.273   3.291  0.0912  1.0646 -0.5089
17424TIP3   OH273686   2.953   5.666   5.499 -0.8594  0.0409 -0.2697
17424TIP3    H173687   2.886   5.726   5.532 -1.0679  0.1993 -0.9817
17424TIP3    H273688   3.036   5.712   5.512 -0.9113 -0.0223  0.3126
17425TIP3   OH273689   3.764   5.122   2.829  0.1003  0.2400  0.1089
17425TIP3    H173690   3.796   5.122   2.919  0.5001 -0.2547 -0.0306
17425TIP3    H273691   3.672   5.099   2.836  0.5641 -1.6474  0.2498
17426TIP3   OH273692   4.546   6.095  12.060  0.3459 -0.7870  0.1419
17426TIP3    H173693   4.499   6.013  12.071 -2.6086  0.7405 -0.4287
17426TIP3    H273694   4.514   6.151  12.131  2.6187 -0.2324  0.7792
17427TIP3   OH273695   3.223   5.633   1.542  0.0108  0.2456 -0.1264
17427TIP3    H173696   3.191   5.683   1.467  1.6636  0.3489 -0.7739
17427TIP3    H273697   3.305   5.674   1.566  0.1424 -0.6055  0.9269
17428TIP3   OH273698   1.057   4.051  12.589  0.3421  0.5644 -0.1735
17428TIP3    H173699   1.086   3.989  12.522  1.1051  0.2013  0.4673
17428TIP3    H273700   1.080   4.137  12.555 -1.7821  0.5993 -1.5916
17429TIP3   OH273701   6.454   1.942   0.596  0.1084 -0.0766  0.2262
17429TIP3    H173702   6.476   2.017   0.650 -0.8911 -1.0879  2.0591
17429TIP3    H273703   6.398   1.887   0.651 -2.3928 -0.2700 -2.4072
17430TIP3   OH273704   5.877   3.324  12.916  0.1821 -0.8341  0.0961
17430TIP3    H173705   5.833   3.394  12.868  0.2394 -2.1992 -2.0156
17430TIP3    H273706   5.815   3.251  12.915  1.3420 -1.8298 -0.4207
17431TIP3   OH273707   1.766   3.542  15.467  0.0815  0.2460  0.1587
17431TIP3    H173708   1.820   3.488  15.409  0.1296  1.1158 -0.6185
17431TIP3    H273709   1.685   3.492  15.477  0.0540  0.1103 -0.7049
17432TIP3   OH273710   1.593   1.813   5.050  0.6331  0.0732 -0.4554
17432TIP3    H173711   1.562   1.780   4.965  0.8034 -0.8786 -0.1578
17432TIP3    H273712   1.513   1.840   5.095  0.2340 -2.0462  0.1738
17433TIP3   OH273713   3.597   4.022   5.862 -0.1565 -0.2369  0.0317
17433TIP3    H173714   3.511   4.050   5.894 -1.9582 -2.2488 -2.7628
17433TIP3    H273715   3.602   3.929   5.885  0.7702 -0.4024 -0.8048
17434TIP3   OH273716   0.687   2.460  14.167  0.0322 -1.0047  1.1368
17434TIP3    H173717   0.595   2.486  14.162 -0.0323 -1.3786  0.4064
17434TIP3    H273718   0.686   2.365  14.152  0.6610 -0.8219 -0.1299
17435TIP3   OH273719   4.139   2.914  14.107 -0.7306  0.0961  0.5999
17435TIP3    H173720   4.080   2.883  14.175  0.7216 -1.3625  1.2267
17435TIP3    H273721   4.215   2.949  14.154 -1.3114  2.5355 -0.1762
17436TIP3   OH273722   3.858   4.205   0.589 -0.0446 -0.4744  0.9199
17436TIP3    H173723   3.859   4.152   0.668  1.3648  0.6835  1.7030
17436TIP3    H273724   3.930   4.267   0.600 -0.0546 -0.0540 -1.1077
17437TIP3   OH273725   2.772   5.503   1.060 -0.2373 -0.6590  0.3760
17437TIP3    H173726   2.755   5.542   1.146  1.2867  1.7633 -0.3660
17437TIP3    H273727   2.688   5.509   1.014 -0.6407 -0.4411  1.1227
17438TIP3   OH273728   3.309   3.901  11.840 -0.2034  0.0370 -0.5774
17438TIP3    H173729   3.226   3.876  11.881  0.4056  1.1742  1.4391
17438TIP3    H273730   3.305   3.997  11.834  0.6611  0.0440 -1.1168
17439TIP3   OH273731   2.526   3.763  15.215  0.0187 -0.3011  0.3948
17439TIP3    H173732   2.463   3.692  15.230 -0.2919  0.1382  1.2049
17439TIP3    H273733   2.605   3.735  15.261 -0.3451  0.2143  1.3409
17440TIP3   OH273734   5.647   0.107  15.150  0.2153 -0.6957  0.4355
17440TIP3    H173735   5.669   0.193  15.184  1.9321 -0.9357 -0.0159
17440TIP3    H273736   5.632   0.120  15.057 -0.2190 -0.7705  0.4935
17441TIP3   OH273737   4.198   1.096  14.450  0.9874 -0.1471  0.1430
17441TIP3    H173738   4.124   1.125  14.397  0.3483 -0.0818  1.0421
17441TIP3    H273739   4.243   1.032  14.396 -1.0532 -1.8852  0.4122
17442TIP3   OH273740   3.254   2.554   1.547 -0.0797  0.2762  0.4127
17442TIP3    H173741   3.316   2.572   1.618 -0.7195  0.9590  0.7969
17442TIP3    H273742   3.247   2.458   1.546  1.5586  0.1496 -0.1321
17443TIP3   OH273743   1.891   4.544   3.243  0.0411  0.2332  0.1007
17443TIP3    H173744   1.811   4.537   3.294  0.7638 -0.9296  1.1086
17443TIP3    H273745   1.929   4.456   3.246  0.9340  0.5698 -1.0459
17444TIP3   OH273746   2.607   6.677   2.541 -0.0178  0.0770 -0.0560
17444TIP3    H173747   2.565   6.746   2.489  0.6611  0.9520  0.5328
17444TIP3    H273748   2.680   6.648   2.488  0.6099  0.8931  0.3488
17445TIP3   OH273749   1.812   3.307  11.208 -0.2859 -0.1456  0.5189
17445TIP3    H173750   1.746   3.249  11.247 -1.5921  1.1230  0.2129
17445TIP3    H273751   1.813   3.384  11.265  1.0418 -0.2149  0.6003
17446TIP3   OH273752   4.429   1.301  14.813 -0.4478  0.1975  0.0659
17446TIP3    H173753   4.352   1.295  14.757 -0.2151 -1.1891 -0.1114
17446TIP3    H273754   4.399   1.351  14.890 -1.1500  0.8196 -0.6073
17447TIP3   OH273755   0.400   3.547   3.552 -0.2555  0.0656 -0.3512
17447TIP3    H173756   0.438   3.571   3.636 -0.3707  0.0866 -0.3040
17447TIP3    H273757   0.311   3.584   3.555  0.0644  0.9086 -0.8675
17448TIP3   OH273758   2.339   0.491   4.299  0.2041  0.0747 -0.6829
17448TIP3    H173759   2.316   0.564   4.357  0.2482 -0.9315  0.6110
17448TIP3    H273760   2.261   0.435   4.298  0.0914  0.2232 -1.8423
17449TIP3   OH273761   4.131   5.249   6.763 -0.0892  0.0072 -0.3845
17449TIP3    H173762   4.165   5.338   6.773 -0.9014  0.5549 -2.2676
17449TIP3    H273763   4.201   5.193   6.796  0.2067  1.3428  1.3737
17450TIP3   OH273764   3.334   0.971  12.423 -0.3471 -0.5144  0.0741
17450TIP3    H173765   3.395   0.956  12.351  0.7068  1.2045  0.5718
17450TIP3    H273766   3.278   1.043  12.393 -0.9651 -0.8752  0.3395
17451TIP3   OH273767   2.854   1.877   5.418 -0.1475  0.2969 -0.1215
17451TIP3    H173768   2.832   1.836   5.501 -3.1523  1.5344 -0.2505
17451TIP3    H273769   2.778   1.931   5.396  2.8877  4.5831 -0.8046
17452TIP3   OH273770   2.042   4.465  15.723 -0.1384  0.2577  0.2652
17452TIP3    H173771   1.972   4.404  15.697  0.1513  0.5114 -1.1371
17452TIP3    H273772   2.123   4.419  15.704  0.0978  1.4040 -1.6995
17453TIP3   OH273773   5.909   0.380  13.981  0.0646 -0.1484 -0.3606
17453TIP3    H173774   5.854   0.319  13.931  2.4923 -0.7006 -2.4899
17453TIP3    H273775   5.900   0.352  14.072 -1.1500 -1.8215 -0.9698
17454TIP3   OH273776   6.003   6.655   2.434  0.1276  0.1305  0.1528
17454TIP3    H173777   6.072   6.662   2.369 -0.7947 -2.3382 -1.1308
17454TIP3    H273778   6.038   6.700   2.511  3.2112 -1.1900 -0.4197
17455TIP3   OH273779   0.476   5.268   1.654 -0.3072  0.2878 -0.4886
17455TIP3    H173780   0.534   5.191   1.657 -1.2042 -0.3560  0.7236
17455TIP3    H273781   0.529   5.339   1.690  0.3401  0.1300 -1.0992
17456TIP3   OH273782   2.645   1.209  13.472  0.0629  0.1010  0.1218
17456TIP3    H173783   2.645   1.115  13.490  2.7885 -0.0738 -0.6242
17456TIP3    H273784   2.642   1.215  13.377  1.7490  0.7212  0.1001
17457TIP3   OH273785   1.861   5.558  12.537 -0.1694  0.2412  0.1692
17457TIP3    H173786   1.899   5.470  12.542 -1.0839 -0.1472  0.4964
17457TIP3    H273787   1.936   5.617  12.539  0.4061 -0.5018  1.1534
17458TIP3   OH273788   3.101   5.622  12.156  0.0361 -0.3890 -1.1506
17458TIP3    H173789   3.028   5.614  12.218  1.0058 -0.3535  0.0130
17458TIP3    H273790   3.175   5.580  12.200  1.0096  0.5745 -1.8407
17459TIP3   OH273791   3.391   5.336   3.622  0.4634 -0.2258  0.2814
17459TIP3    H173792   3.338   5.412   3.603 -2.2660 -1.7130  1.6601
17459TIP3    H273793   3.402   5.292   3.538 -2.4332 -1.0669  0.2935
17460TIP3   OH273794   1.012   6.403   6.048 -0.7877  0.5016  0.2637
17460TIP3    H173795   1.000   6.451   5.966  1.4911  1.3456  0.3860
17460TIP3    H273796   1.084   6.343   6.031 -2.0356 -1.1826  0.8613
17461TIP3   OH273797   6.556   2.827   0.777 -0.6663  0.6485 -0.1994
17461TIP3    H173798   6.639   2.857   0.813 -0.4943 -0.2624  0.1559
17461TIP3    H273799   6.501   2.906   0.777  1.0366  1.9269 -2.9856
17462TIP3   OH273800   2.805   2.969  16.945 -0.3990 -0.3901  0.1570
17462TIP3    H173801   2.883   3.016  16.976 -0.1169 -0.8434  0.1357
17462TIP3    H273802   2.753   2.954  17.024 -0.5090 -0.0054  0.1579
17463TIP3   OH273803   3.176   3.927  13.593  0.0711  0.0316  0.6261
17463TIP3    H173804   3.252   3.884  13.631 -0.3813  0.6638  2.3257
17463TIP3    H273805   3.199   4.020  13.591 -1.2655  0.4320  2.7252
17464TIP3   OH273806   4.580   2.434   3.981  0.2980 -0.4747  0.5547
17464TIP3    H173807   4.558   2.524   4.005 -0.4802  0.1035 -2.2055
17464TIP3    H273808   4.673   2.438   3.958  0.1536 -0.2589 -0.0113
17465TIP3   OH273809   3.012   5.665   4.479  0.1966  0.1440  0.3564
17465TIP3    H173810   3.054   5.672   4.393 -0.4956  4.1843  0.2547
17465TIP3    H273811   3.084   5.645   4.539  1.0420 -0.4922 -0.8436
17466TIP3   OH273812   6.664   6.665   0.755 -0.5588  0.1793 -0.3732
17466TIP3    H173813   6.626   6.715   0.682  2.6406  0.0830 -2.1782
17466TIP3    H273814   6.623   6.579   0.749 -1.4042  0.6244 -1.1696
17467TIP3   OH273815   1.323   1.247  15.912  0.0817 -0.0127 -0.1480
17467TIP3    H173816   1.364   1.199  15.984 -2.0416 -1.1084  0.4118
17467TIP3    H273817   1.365   1.213  15.833  0.5847 -0.7337  0.4232
17468TIP3   OH273818   0.375   4.379  15.220 -0.0512  0.0035  0.0872
17468TIP3    H173819   0.353   4.470  15.199 -0.8634 -0.6799 -2.1136
17468TIP3    H273820   0.299   4.347  15.268 -0.2463  0.1585 -0.1167
17469TIP3   OH273821   4.588   5.247  14.917 -0.3503 -0.4307 -0.1625
17469TIP3    H173822   4.592   5.339  14.893 -0.7285 -0.5710 -0.7879
17469TIP3    H273823   4.525   5.244  14.989 -1.0910 -0.3303 -0.8032
17470TIP3   OH273824   5.418   4.809   2.203  0.4420 -0.4123  0.0330
17470TIP3    H173825   5.475   4.747   2.159  0.2668 -0.5424 -0.0147
17470TIP3    H273826   5.350   4.830   2.138  0.8592  0.3216 -0.1690
17471TIP3   OH273827   0.632   4.013   2.177 -0.2832 -0.3760 -0.2955
17471TIP3    H173828   0.593   3.961   2.106  1.1750 -0.8708 -0.7459
17471TIP3    H273829   0.566   4.079   2.197 -1.4347 -1.3142 -0.9206
17472TIP3   OH273830   2.453   6.242   1.064 -0.2591 -0.1153  0.4856
17472TIP3    H173831   2.371   6.271   1.025 -1.1231 -1.3117  1.3661
17472TIP3    H273832   2.513   6.317   1.054 -1.5911  0.9376  0.2524
17473TIP3   OH273833   4.943   4.291  16.331 -0.1391 -0.2316  0.2566
17473TIP3    H173834   5.008   4.342  16.379  0.2934 -1.8613  1.4532
17473TIP3    H273835   4.925   4.215  16.387 -2.3139 -0.3386 -0.5214
17474TIP3   OH273836   6.764   3.413  14.722  0.0276  0.1546 -0.0148
17474TIP3    H173837   6.741   3.414  14.815 -0.3935 -0.8979 -0.1060
17474TIP3    H273838   6.711   3.484  14.684 -0.0034  0.4079  0.4931
17475TIP3   OH273839   4.058   4.031   1.605 -0.1112 -0.1700  0.3649
17475TIP3    H173840   4.053   3.986   1.690 -0.3520  1.0417  1.0009
17475TIP3    H273841   4.026   3.966   1.542  0.3347 -1.1770  1.1572
17476TIP3   OH273842   1.860   1.395   6.442  0.2772 -0.0793  0.1434
17476TIP3    H173843   1.840   1.318   6.496  2.0780  0.5475  1.7686
17476TIP3    H273844   1.951   1.416   6.463  1.2360 -0.1265 -3.5976
17477TIP3   OH273845   6.761   6.322   2.201  0.4222 -0.1462 -0.0516
17477TIP3    H173846   6.797   6.332   2.289 -0.4550 -1.0466  0.4206
17477TIP3    H273847   6.720   6.406   2.182 -0.0607 -0.2011  0.7184
17478TIP3   OH273848   1.954   2.280  13.378 -0.2153 -0.1393 -0.4483
17478TIP3    H173849   2.022   2.318  13.434 -0.0505  1.6513 -1.8124
17478TIP3    H273850   1.991   2.281  13.290 -1.6040 -0.1245 -1.0473
17479TIP3   OH273851   0.586   3.872  16.418  0.2479 -0.4991  0.4864
17479TIP3    H173852   0.497   3.884  16.453  0.8831  1.6041  1.4625
17479TIP3    H273853   0.596   3.941  16.354  0.6206 -1.7635 -0.8405
17480TIP3   OH273854   3.689   5.320  12.382  0.2344  0.4611 -0.0594
17480TIP3    H173855   3.655   5.400  12.342  1.2894  0.5453 -0.8298
17480TIP3    H273856   3.755   5.351  12.445  1.4109  0.1812 -1.1216
17481TIP3   OH273857   5.578   6.027   1.904 -0.3070 -0.1007  0.2557
17481TIP3    H173858   5.536   5.984   1.978 -0.6225 -0.8646 -0.3474
17481TIP3    H273859   5.519   6.010   1.830  2.1744 -3.1924 -1.1220
17482TIP3   OH273860   0.437   6.054  15.679  0.4019  0.2722 -0.6829
17482TIP3    H173861   0.408   6.134  15.636 -1.9308  0.2358  0.7219
17482TIP3    H273862   0.367   6.034  15.742  1.4377 -2.2863 -0.2834
17483TIP3   OH273863   0.401   2.040  16.963 -0.0583  0.1778  0.0109
17483TIP3    H173864   0.481   2.094  16.970  0.0361  0.0663 -0.1964
17483TIP3    H273865   0.371   2.054  16.873  1.0771 -1.6685 -0.6832
17484TIP3   OH273866   5.055   1.391  15.791  0.0376 -0.3495  0.0101
17484TIP3    H173867   5.023   1.343  15.868 -2.6593  0.6417 -0.4348
17484TIP3    H273868   5.057   1.482  15.819  0.8305 -0.2029 -0.5274
17485TIP3   OH273869   6.184   5.226   3.164 -0.3148  0.1142  0.0482
17485TIP3    H173870   6.259   5.284   3.178  0.0162 -0.1320 -0.6795
17485TIP3    H273871   6.220   5.153   3.114 -0.8480 -0.4630  0.5004
17486TIP3   OH273872   2.964   6.575  11.125  0.1585  0.2735 -0.2535
17486TIP3    H173873   2.889   6.609  11.173 -0.3623 -0.9484 -0.1738
17486TIP3    H273874   2.951   6.480  11.124  1.0728  0.1424 -1.2921
17487TIP3   OH273875   0.999   2.608   2.986  0.3165 -0.3948  0.0534
17487TIP3    H173876   0.982   2.517   3.010  0.5277 -0.4795 -0.1114
17487TIP3    H273877   0.997   2.656   3.068  2.5031 -0.9160  0.4255
17488TIP3   OH273878   2.862   1.457   3.661  0.2465  0.0397 -0.8175
17488TIP3    H173879   2.789   1.480   3.604 -0.7098  0.5271  0.5724
17488TIP3    H273880   2.861   1.361   3.663  0.5209  0.0055 -1.8944
17489TIP3   OH273881   6.641   5.178   1.868 -0.1295 -0.1538  0.2725
17489TIP3    H173882   6.599   5.101   1.905  0.9319 -1.4414 -1.1503
17489TIP3    H273883   6.721   5.144   1.827 -0.3377  1.4943 -1.5590
17490TIP3   OH273884   3.800   5.948  16.065  0.0040 -0.4476 -0.3022
17490TIP3    H173885   3.737   6.018  16.086 -1.2685 -1.3206 -1.1471
17490TIP3    H273886   3.836   5.974  15.980 -0.5975 -0.9047 -0.6975
17491TIP3   OH273887   1.697   0.091  11.167 -0.0567 -0.5959 -0.4450
17491TIP3    H173888   1.606   0.092  11.138  0.4582  0.7108 -2.1265
17491TIP3    H273889   1.702   0.163  11.230 -1.0118 -2.9881  2.4376
17492TIP3   OH273890   4.666   3.618  14.096 -0.3621  0.2746  0.3009
17492TIP3    H173891   4.599   3.612  14.164 -0.7885 -1.6328 -0.2651
17492TIP3    H273892   4.748   3.597  14.141 -0.5451 -0.2638  0.3879
17493TIP3   OH273893   0.577   2.209   0.748 -0.0659  0.5454 -0.4520
17493TIP3    H173894   0.534   2.195   0.663  1.5196 -2.1673 -0.8721
17493TIP3    H273895   0.576   2.122   0.790  3.1771  0.8476  0.3452
17494TIP3   OH273896   4.955   3.076  14.157  0.0167  0.2458  0.5346
17494TIP3    H173897   4.912   3.046  14.237  0.2514 -0.2817  0.4656
17494TIP3    H273898   5.045   3.045  14.165 -0.1563 -0.4892 -0.2939
17495TIP3   OH273899   1.785   2.261  16.916 -0.4816 -0.4829  0.2305
17495TIP3    H173900   1.872   2.271  16.955 -0.6273 -0.0121  0.4228
17495TIP3    H273901   1.726   2.253  16.990 -0.9128  1.6179  0.1384
17496TIP3   OH273902   3.847   3.606   5.922  0.5707  0.3175 -0.3643
17496TIP3    H173903   3.890   3.556   5.853  3.0739  1.5989  0.1935
17496TIP3    H273904   3.850   3.697   5.892 -0.3993  0.6121  0.3848
17497TIP3   OH273905   2.784   6.607   2.362 -0.1718  0.3319  0.1986
17497TIP3    H173906   2.848   6.538   2.347 -0.4620 -0.1407  1.1367
17497TIP3    H273907   2.780   6.654   2.278  1.9170  0.8117  0.3502
17498TIP3   OH273908   4.089   6.445  11.788 -0.8649 -0.0026 -0.2887
17498TIP3    H173909   4.087   6.425  11.881 -1.6658 -0.7140 -0.4568
17498TIP3    H273910   4.027   6.517  11.776 -0.5158  0.3106 -0.2246
17499TIP3   OH273911   3.398   2.958  13.329 -0.2150  0.2551 -0.3873
17499TIP3    H173912   3.351   2.926  13.253 -0.9411  0.4584 -0.0245
17499TIP3    H273913   3.399   2.885  13.391  1.2389 -0.2411 -0.9783
17500TIP3   OH273914   3.628   0.290   4.355  0.7114 -0.6057 -0.5915
17500TIP3    H173915   3.682   0.213   4.372 -0.9209 -1.1745  2.4179
17500TIP3    H273916   3.671   0.361   4.403 -0.3923 -0.7502  0.6440
17501TIP3   OH273917   0.230   6.345  16.011  0.1942  0.4091  0.0718
17501TIP3    H173918   0.194   6.358  16.098  0.6373 -0.6919  0.4338
17501TIP3    H273919   0.173   6.395  15.953 -1.9451 -1.3209  0.6302
17502TIP3   OH273920   1.491   6.199  16.982 -0.1849 -0.2388  0.2485
17502TIP3    H173921   1.579   6.225  17.008  0.5800 -1.4156 -1.1334
17502TIP3    H273922   1.494   6.195  16.887 -1.6049 -0.7471  0.2185
17503TIP3   OH273923   3.376   2.044   6.531 -0.1283  0.2560  0.0829
17503TIP3    H173924   3.413   2.098   6.461 -0.0656 -0.0198 -0.1005
17503TIP3    H273925   3.451   1.995   6.566 -0.3478 -0.4756 -0.4443
17504TIP3   OH273926   1.717   6.182   4.530  0.5990 -0.4559 -0.2319
17504TIP3    H173927   1.664   6.257   4.558 -0.6727 -1.2335 -0.5402
17504TIP3    H273928   1.799   6.221   4.499 -1.2680  1.0774 -3.4422
17505TIP3   OH273929   0.347   2.218   3.885  0.0219  0.0426 -0.7260
17505TIP3    H173930   0.384   2.224   3.972  0.1130  0.2864 -0.7813
17505TIP3    H273931   0.392   2.286   3.835  0.4459 -0.5351 -1.1369
17506TIP3   OH273932   0.423   4.993  15.225  0.1861 -0.1231 -0.1019
17506TIP3    H173933   0.409   4.924  15.291  1.2155 -0.8175 -0.6032
17506TIP3    H273934   0.486   4.956  15.164 -2.2551 -0.2654 -2.6471
17507TIP3   OH273935   5.765   1.327  16.085  0.1551  0.1221 -0.2238
17507TIP3    H173936   5.800   1.242  16.109  1.0007  0.1879 -1.1852
17507TIP3    H273937   5.717   1.356  16.162  2.3102  0.0672  1.1749
17508TIP3   OH273938   2.204   4.096  16.952  0.1197  0.5508 -0.0436
17508TIP3    H173939   2.210   4.153  17.029 -0.2365  1.4209 -0.6372
17508TIP3    H273940   2.215   4.156  16.878 -3.3272  0.3767 -0.7860
17509TIP3   OH273941   4.725   2.034  16.722 -0.3130  0.1254  0.6267
17509TIP3    H173942   4.729   2.129  16.737 -0.0693 -0.1368  2.2951
17509TIP3    H273943   4.817   2.008  16.714 -0.3400 -0.1098  1.0868
17510TIP3   OH273944   1.145   0.918  13.424 -0.6945  0.0373 -0.3901
17510TIP3    H173945   1.130   1.004  13.462 -3.0794  0.3785 -2.0055
17510TIP3    H273946   1.212   0.933  13.357  1.4441 -0.0558  1.6501
17511TIP3   OH273947   3.927   0.002  13.827 -0.0990  0.5332 -0.0671
17511TIP3    H173948   3.926  -0.093  13.820  0.5614  0.5668 -0.6751
17511TIP3    H273949   3.915   0.019  13.921  1.9037 -0.2100  0.3530
17512TIP3   OH273950   1.371   5.185   3.385 -0.5110  0.5433  0.1936
17512TIP3    H173951   1.361   5.279   3.399  0.3671  0.5058  1.0910
17512TIP3    H273952   1.460   5.175   3.350 -0.9389  0.1337 -0.8203
17513TIP3   OH273953   6.018   3.598  12.135 -0.2231  0.0371  0.1169
17513TIP3    H173954   6.034   3.519  12.186  0.4865  0.2195  0.1711
17513TIP3    H273955   6.042   3.670  12.192 -0.9600  0.3054  0.1001
17514TIP3   OH273956   3.452   1.910  13.107 -0.1187 -0.0492 -0.1977
17514TIP3    H173957   3.440   1.816  13.109 -0.8573  0.0573  0.2983
17514TIP3    H273958   3.462   1.936  13.199  0.3773  0.3227 -0.3475
17515TIP3   OH273959   0.667   2.850  15.179  0.3980 -0.4701  0.3260
17515TIP3    H173960   0.579   2.827  15.210  0.5469 -0.8134  0.4930
17515TIP3    H273961   0.656   2.867  15.085 -0.0318  0.4499  0.5400
17516TIP3   OH273962   5.515   0.260   4.688  0.0489  0.1914 -0.7042
17516TIP3    H173963   5.448   0.299   4.743 -1.6178 -2.1014 -1.0643
17516TIP3    H273964   5.581   0.228   4.749 -0.9695 -0.8283 -0.1359
17517TIP3   OH273965   6.145   4.031  14.026  0.0125 -0.3526  0.1385
17517TIP3    H173966   6.111   4.066  13.944 -0.1646 -0.1307  0.3059
17517TIP3    H273967   6.229   3.991  14.003 -1.3126 -2.7556 -0.6793
17518TIP3   OH273968   1.368   3.861   0.726 -0.5334  0.0806  0.1601
17518TIP3    H173969   1.450   3.817   0.748 -0.3397  0.9193  1.1437
17518TIP3    H273970   1.329   3.884   0.810 -1.5675  0.0818 -0.3095
17519TIP3   OH273971   0.871   2.210  15.177  0.2821 -0.3651 -0.1124
17519TIP3    H173972   0.931   2.283  15.195  0.1924 -0.4211  0.4179
17519TIP3    H273973   0.787   2.251  15.160  0.7149 -0.2129 -2.0074
17520TIP3   OH273974   1.448   5.586   4.117 -0.2281  0.6278 -0.2677
17520TIP3    H173975   1.541   5.564   4.104 -0.5088 -0.8051  0.0915
17520TIP3    H273976   1.409   5.577   4.030 -0.4846 -1.0548  0.0045
17521TIP3   OH273977   5.394   4.794   3.607 -0.3032  0.3316 -0.4038
17521TIP3    H173978   5.400   4.847   3.528  0.5527 -0.3734 -0.8212
17521TIP3    H273979   5.456   4.835   3.668 -1.6895  1.4787  0.2834
17522TIP3   OH273980   4.961   0.567  15.205  0.6662  0.6559 -0.1356
17522TIP3    H173981   4.873   0.559  15.167  1.1200 -1.8420 -0.7698
17522TIP3    H273982   4.945   0.602  15.293 -0.9951 -0.0100 -0.1488
17523TIP3   OH273983   3.263   0.373   1.684 -0.3095  0.2862 -0.6862
17523TIP3    H173984   3.239   0.286   1.715  0.3268  0.0647 -0.7976
17523TIP3    H273985   3.354   0.364   1.655 -0.4908  0.7851 -1.4529
17524TIP3   OH273986   0.343   3.297  14.425 -0.2922 -0.8219 -0.5962
17524TIP3    H173987   0.314   3.290  14.516  1.0179 -0.0787 -0.0982
17524TIP3    H273988   0.437   3.277  14.429  0.3129  1.6905 -1.3893
17525TIP3   OH273989   0.813   4.614   2.219 -0.1240  0.1853 -0.4213
17525TIP3    H173990   0.807   4.709   2.207  1.6205  0.4426  0.6273
17525TIP3    H273991   0.847   4.582   2.135 -0.9255  0.4449 -0.8564
17526TIP3   OH273992   1.916   1.403   5.936  0.0972 -0.7029 -0.0874
17526TIP3    H173993   1.960   1.402   6.021 -3.3198 -1.3391  1.7443
17526TIP3    H273994   1.825   1.425   5.956 -0.1355  2.3969 -3.9366
17527TIP3   OH273995   4.143   3.180   2.098 -0.0902  0.1833 -0.4840
17527TIP3    H173996   4.109   3.264   2.131  2.2210  1.1636 -0.5157
17527TIP3    H273997   4.097   3.168   2.015 -0.1375  1.6533 -0.6992
17528TIP3   OH273998   1.935   0.319   5.655 -0.0642 -0.0409  0.7794
17528TIP3    H173999   1.956   0.250   5.592  0.2769  1.7795 -1.1578
17528TIP3    H274000   1.954   0.280   5.741  0.8524 -2.0804 -0.3222
17529TIP3   OH274001   2.603   5.051  12.390  0.0594 -0.2189  0.4171
17529TIP3    H174002   2.516   5.044  12.351 -0.1077  0.4359  0.6665
17529TIP3    H274003   2.660   5.006  12.328  0.0880  2.3961 -1.5358
17530TIP3   OH274004   1.183   6.327   1.715  0.2420  0.2646  0.2832
17530TIP3    H174005   1.188   6.390   1.643  1.6299  0.8037  0.8288
17530TIP3    H274006   1.094   6.338   1.750  0.3454  1.6775  0.1503
17531TIP3   OH274007   4.793   3.408   4.579 -0.2628  0.2607  0.2016
17531TIP3    H174008   4.749   3.409   4.664 -1.7315 -0.5674 -0.5186
17531TIP3    H274009   4.814   3.500   4.563 -1.1201  0.5915  0.8969
17532TIP3   OH274010   4.505   4.239  14.255 -0.2095 -0.3111 -0.0337
17532TIP3    H174011   4.450   4.191  14.193 -0.7491 -0.0772  0.2559
17532TIP3    H274012   4.588   4.192  14.255 -0.4967 -0.8244 -0.2833
17533TIP3   OH274013   5.570   0.158  11.854  0.0605  0.5381  0.3656
17533TIP3    H174014   5.608   0.078  11.890 -0.4731 -0.3707 -1.0518
17533TIP3    H274015   5.593   0.226  11.917  2.7603 -0.2446  0.2847
17534TIP3   OH274016   6.571   3.863   1.278 -0.2166  0.5546  0.0429
17534TIP3    H174017   6.495   3.920   1.285 -0.4574  0.2636 -0.1874
17534TIP3    H274018   6.556   3.796   1.344  0.1265  0.8295  0.3982
17535TIP3   OH274019   6.460   1.950   3.787 -0.2146 -0.6305 -0.1738
17535TIP3    H174020   6.435   1.859   3.772 -0.1900 -0.3545 -2.0864
17535TIP3    H274021   6.531   1.966   3.725  0.4233  0.4204  0.8079
17536TIP3   OH274022   1.861   6.503   5.303 -0.9674  0.0685 -0.0200
17536TIP3    H174023   1.896   6.590   5.285 -0.4925 -0.2011 -0.3876
17536TIP3    H274024   1.808   6.482   5.227  2.3492 -1.7622 -1.9554
17537TIP3   OH274025   4.919   5.347   0.463  0.7274  1.0760 -0.1828
17537TIP3    H174026   4.891   5.367   0.374 -0.5698  1.9158  0.3820
17537TIP3    H274027   4.994   5.405   0.478  0.9126  0.9716 -0.7190
17538TIP3   OH274028   1.413   2.228  13.223  0.7050  0.1647 -0.2841
17538TIP3    H174029   1.398   2.162  13.155  1.5175  1.1682 -1.4626
17538TIP3    H274030   1.401   2.312  13.178  0.7203  0.8397  0.9440
17539TIP3   OH274031   2.069   2.144   1.506 -0.2449  0.2650  0.1118
17539TIP3    H174032   2.008   2.070   1.498  0.7736 -0.4374 -1.3675
17539TIP3    H274033   2.056   2.195   1.426  1.1053  0.0789 -0.2536
17540TIP3   OH274034   0.622   6.421  11.079  0.2046 -0.5002  0.2826
17540TIP3    H174035   0.637   6.474  11.002 -0.7310 -0.8366 -0.1428
17540TIP3    H274036   0.533   6.386  11.067 -0.4585  0.4774  2.1010
17541TIP3   OH274037   3.542   6.574   3.608  0.0007  0.5031  0.4512
17541TIP3    H174038   3.502   6.549   3.525 -0.6505 -2.4629  1.6082
17541TIP3    H274039   3.488   6.647   3.639 -2.0572 -0.8139  0.0562
17542TIP3   OH274040   3.335   1.233  13.614  0.5646 -0.2780 -0.2838
17542TIP3    H174041   3.345   1.166  13.682  0.9658 -0.1383 -0.2017
17542TIP3    H274042   3.244   1.226  13.586  0.2845 -0.0658  0.5491
17543TIP3   OH274043   5.637   1.599   5.719  0.0885  0.3161  0.2238
17543TIP3    H174044   5.677   1.524   5.674 -3.7272 -0.4459 -2.1617
17543TIP3    H274045   5.598   1.562   5.798 -1.4732 -0.1771 -0.7652
17544TIP3   OH274046   1.924   5.863  13.999  0.3049 -0.0780 -0.0966
17544TIP3    H174047   1.903   5.955  13.984  0.7539  0.2010  0.9350
17544TIP3    H274048   1.840   5.820  14.010 -0.0044 -0.1212 -2.3503
17545TIP3   OH274049   5.377   2.093   0.328 -0.1917  0.6956  0.2952
17545TIP3    H174050   5.416   2.152   0.263 -1.4480  0.3552 -0.7986
17545TIP3    H274051   5.321   2.035   0.276  0.2577 -0.8133  1.4774
17546TIP3   OH274052   1.440   5.496  15.299  0.2516  0.0172 -0.2713
17546TIP3    H174053   1.482   5.416  15.329 -2.7354 -1.7051 -0.4776
17546TIP3    H274054   1.379   5.520  15.369  0.2650  1.4793 -0.7256
17547TIP3   OH274055   5.227   2.896   4.131  0.0291  0.0480  0.6679
17547TIP3    H174056   5.139   2.860   4.121  0.2060  0.0709 -1.1760
17547TIP3    H274057   5.214   2.991   4.133  0.1721  0.1685 -1.9980
17548TIP3   OH274058   5.016   1.066  15.843 -0.4367  0.2214  0.2677
17548TIP3    H174059   4.922   1.067  15.864 -0.6141 -1.3322 -0.3743
17548TIP3    H274060   5.053   1.002  15.903  0.2881  1.1254  0.7871
17549TIP3   OH274061   1.667   2.974  14.991 -0.0184  0.2323  0.4207
17549TIP3    H174062   1.627   3.053  15.027 -0.4750 -1.4690  3.9114
17549TIP3    H274063   1.593   2.922  14.961  0.1520  0.4119 -0.3064
17550TIP3   OH274064   0.792   5.540  17.064  0.2663  0.1707  0.8209
17550TIP3    H174065   0.697   5.543  17.074  0.2041 -0.7857  0.5196
17550TIP3    H274066   0.806   5.503  16.977  0.9157 -0.2056  1.0825
17551TIP3   OH274067   3.079   5.812  11.144 -0.7226  0.0192  0.3105
17551TIP3    H174068   3.120   5.791  11.060 -0.1682  1.5713  0.1652
17551TIP3    H274069   3.049   5.902  11.133 -2.3820 -0.4157  1.1286
17552TIP3   OH274070   4.455   4.677  12.018 -0.3283 -0.0732  0.1734
17552TIP3    H174071   4.383   4.720  12.063 -0.3024 -0.0727  0.2145
17552TIP3    H274072   4.440   4.583  12.033 -0.4636 -0.0848 -0.0380
17553TIP3   OH274073   3.252   3.634  15.289  0.2904  0.3645 -0.0065
17553TIP3    H174074   3.197   3.681  15.352 -1.9376 -1.2058 -0.7345
17553TIP3    H274075   3.211   3.649  15.204 -0.2637 -2.5549 -0.3031
17554TIP3   OH274076   1.368   0.317  14.322 -0.7291 -0.8876 -0.9216
17554TIP3    H174077   1.389   0.394  14.269  0.2189 -1.3978 -1.3033
17554TIP3    H274078   1.403   0.243  14.272 -1.2618 -1.5268 -0.3588
17555TIP3   OH274079   0.864   2.591   5.894 -0.6091 -0.2940 -0.2833
17555TIP3    H174080   0.931   2.617   5.830 -0.3813  2.1903  0.9067
17555TIP3    H274081   0.783   2.630   5.861 -0.8368 -0.5566 -0.0346
17556TIP3   OH274082   4.427   0.959   2.633  0.0753  0.2222 -0.9907
17556TIP3    H174083   4.407   0.975   2.540  3.8197  0.1293 -1.9112
17556TIP3    H274084   4.473   1.037   2.661  0.0259 -0.2609  0.4449
17557TIP3   OH274085   5.353   3.528  11.900 -0.7516  1.2475 -0.1375
17557TIP3    H174086   5.342   3.554  11.992  1.3780 -0.0564  0.5116
17557TIP3    H274087   5.387   3.607  11.857  0.3199  1.2266  0.6544
17558TIP3   OH274088   5.212   0.344  13.568  0.3917 -0.3747  0.7818
17558TIP3    H174089   5.211   0.303  13.482 -0.5726  1.0743  0.0646
17558TIP3    H274090   5.197   0.273  13.630 -2.4224 -0.9797 -0.5053
17559TIP3   OH274091   1.321   6.349   3.670  0.0995  0.0811 -0.1307
17559TIP3    H174092   1.384   6.420   3.659  0.8659 -0.5587  0.1041
17559TIP3    H274093   1.375   6.270   3.678 -0.7553 -0.5783 -0.7737
17560TIP3   OH274094   3.472   2.707   0.609  0.5488 -0.2572 -0.2336
17560TIP3    H174095   3.520   2.695   0.691  0.7849 -0.6680 -0.4269
17560TIP3    H274096   3.514   2.782   0.567  0.5918 -0.2030 -0.0927
17561TIP3   OH274097   1.175   6.032   4.229 -0.2428 -0.5818  0.3995
17561TIP3    H174098   1.229   5.956   4.251 -0.8723 -1.2742 -0.4461
17561TIP3    H274099   1.238   6.103   4.219  0.3610 -1.0077  1.0760
17562TIP3   OH274100   4.284   0.513  11.600  0.5735 -0.0284  0.2252
17562TIP3    H174101   4.342   0.575  11.557 -1.1185  0.2434 -1.7218
17562TIP3    H274102   4.295   0.432  11.551 -0.7017  0.0329 -0.1747
17563TIP3   OH274103   1.921   4.555   4.258  0.3708  0.2997 -0.3776
17563TIP3    H174104   1.890   4.471   4.293 -0.8474 -0.1145 -2.3810
17563TIP3    H274105   1.851   4.617   4.280  1.4288  0.9167  1.4171
17564TIP3   OH274106   5.790   0.564   2.874  0.5210 -0.1032  0.0014
17564TIP3    H174107   5.810   0.494   2.811  1.0681 -0.2498  0.3348
17564TIP3    H274108   5.797   0.522   2.959 -2.2705 -0.4335  0.1124
17565TIP3   OH274109   2.599   1.131   6.158  0.4725  0.5554 -0.0672
17565TIP3    H174110   2.649   1.134   6.239  1.3791  0.6490 -0.6208
17565TIP3    H274111   2.642   1.195   6.100  0.8041 -0.6238 -1.1560
17566TIP3   OH274112   0.501   3.618  11.156 -0.6165 -0.3038  0.0367
17566TIP3    H174113   0.559   3.625  11.080 -2.4448 -1.1786 -1.4680
17566TIP3    H274114   0.418   3.655  11.126 -1.2784 -0.4033  1.7124
17567TIP3   OH274115   5.400   4.887  14.883  0.0755 -0.7111 -0.2337
17567TIP3    H174116   5.349   4.812  14.853 -0.2694  0.3658 -2.4678
17567TIP3    H274117   5.339   4.938  14.937  0.2641 -1.9196  1.1529
17568TIP3   OH274118   0.827   1.623  16.228  0.2385  0.1314 -0.2537
17568TIP3    H174119   0.914   1.591  16.251 -0.4040 -0.1778  1.8626
17568TIP3    H274120   0.773   1.545  16.225 -0.3187  0.4986  0.1565
17569TIP3   OH274121   6.129   6.185   1.240  0.4789  0.3200 -0.7625
17569TIP3    H174122   6.158   6.240   1.312  0.0112  0.2443 -0.5127
17569TIP3    H274123   6.197   6.194   1.173  0.6065  0.8723 -0.5574
17570TIP3   OH274124   3.510   5.574  11.255  0.4580 -0.1870  0.2483
17570TIP3    H174125   3.438   5.515  11.278 -0.8856  1.6567  0.7974
17570TIP3    H274126   3.489   5.606  11.168  1.6680 -1.2217 -0.4376
17571TIP3   OH274127   1.069   4.854   2.917  0.2427  1.0187 -0.1133
17571TIP3    H174128   0.992   4.898   2.880  0.9767  0.9508 -1.7485
17571TIP3    H274129   1.143   4.885   2.865  1.1437 -0.0033  0.5219
17572TIP3   OH274130   4.904   4.489   5.121  0.3343 -0.1577  0.0736
17572TIP3    H174131   4.966   4.529   5.060  0.7819  0.6526  1.0366
17572TIP3    H274132   4.953   4.419   5.163 -0.6337 -2.1565 -2.0500
17573TIP3   OH274133   0.087   0.194   1.512 -0.1635  0.5129  0.1688
17573TIP3    H174134   0.090   0.242   1.430 -1.1556  2.7725  1.4166
17573TIP3    H274135  -0.005   0.193   1.537 -0.0520 -1.2725  0.6422
17574TIP3   OH274136   3.017   5.251   2.440  0.2957 -0.4355 -0.1947
17574TIP3    H174137   3.053   5.187   2.379  0.0945  0.1694 -0.9524
17574TIP3    H274138   3.081   5.322   2.442  0.2384 -0.3920  0.1938
17575TIP3   OH274139   3.940   0.524   3.941 -0.5257  0.4002  0.5582
17575TIP3    H174140   3.964   0.472   3.864  0.4354  0.0871  1.0711
17575TIP3    H274141   3.918   0.610   3.904 -0.5081  0.1217 -0.1189
17576TIP3   OH274142   6.264   5.040  16.236 -0.0581  0.1327 -0.1430
17576TIP3    H174143   6.321   5.102  16.282  0.6232 -0.1727 -0.5607
17576TIP3    H274144   6.256   5.077  16.147  0.9349 -0.7340 -0.6073
17577TIP3   OH274145   4.403   2.698   0.395  0.0329  0.1174  0.3667
17577TIP3    H174146   4.343   2.626   0.417  1.0022 -0.3436  1.5593
17577TIP3    H274147   4.372   2.771   0.449  1.4075 -0.5432  2.1118
17578TIP3   OH274148   4.581   3.862  16.855  0.2357 -0.4469 -0.1063
17578TIP3    H174149   4.554   3.776  16.885 -1.1662 -0.1729 -0.5447
17578TIP3    H274150   4.528   3.923  16.906  0.6163  0.1350 -0.3970
17579TIP3   OH274151   5.207   0.490  15.663  0.2966 -0.8683  0.4286
17579TIP3    H174152   5.206   0.586  15.673  1.1872 -0.8618  0.4489
17579TIP3    H274153   5.225   0.476  15.570 -0.8458 -1.0147  0.2182
17580TIP3   OH274154   1.825   4.468   6.058 -0.4409  0.2155  0.4424
17580TIP3    H174155   1.858   4.385   6.092  0.3250  0.2836 -0.1098
17580TIP3    H274156   1.800   4.518   6.136 -2.0886 -1.0069  0.7159
17581TIP3   OH274157   4.062   5.933   3.482 -0.1039 -0.2006  0.0823
17581TIP3    H174158   4.123   5.984   3.429  0.5830 -1.1160 -0.0096
17581TIP3    H274159   3.976   5.965   3.456  0.3272  1.2288  0.3405
17582TIP3   OH274160   1.999   2.210  12.083 -0.2802  0.2923 -0.0189
17582TIP3    H174161   1.910   2.214  12.051 -0.1752 -2.9109 -0.8786
17582TIP3    H274162   1.992   2.166  12.168  0.6607 -1.6913 -0.9548
17583TIP3   OH274163   4.633   0.402  11.954 -0.0162 -0.4068  0.0476
17583TIP3    H174164   4.553   0.416  11.902 -1.0389 -0.9359  1.4410
17583TIP3    H274165   4.639   0.307  11.963  0.7583 -0.3649 -0.0073
17584TIP3   OH274166   4.114   5.841  16.990 -0.3540 -0.2221  0.1052
17584TIP3    H174167   4.197   5.886  17.002 -0.5086  0.5003 -1.3451
17584TIP3    H274168   4.137   5.748  16.985  0.3535 -0.0365 -0.1100
17585TIP3   OH274169   3.814   2.298  10.424  0.2219  0.3869  0.2041
17585TIP3    H174170   3.889   2.304  10.483  1.6329 -1.1039 -1.3872
17585TIP3    H274171   3.799   2.204  10.414 -0.4490  0.6346 -1.2475
17586TIP3   OH274172   1.863   2.396   3.239  0.1787  0.0222  0.0196
17586TIP3    H174173   1.911   2.456   3.296 -1.5137  1.0159  0.4467
17586TIP3    H274174   1.930   2.344   3.196  1.5449  0.0503  2.0659
17587TIP3   OH274175   6.326   4.840  16.981 -0.2420 -0.2951 -0.3141
17587TIP3    H174176   6.265   4.767  16.991  2.1675 -2.5610 -1.5037
17587TIP3    H274177   6.398   4.821  17.041  1.0161  0.4098 -1.5479
17588TIP3   OH274178   0.603   0.509   0.120  0.3010  0.1788  0.1660
17588TIP3    H174179   0.570   0.428   0.159  0.0450  0.1544 -0.1027
17588TIP3    H274180   0.609   0.491   0.026 -1.0735  0.9171 -0.0737
17589TIP3   OH274181   5.361   1.417  13.177  0.7431 -0.1848 -0.2131
17589TIP3    H174182   5.424   1.393  13.244  0.4625 -2.1784 -0.6414
17589TIP3    H274183   5.413   1.429  13.098  1.0089  1.6694  0.2152
17590TIP3   OH274184   1.454   2.489  16.386  0.1694 -0.2190 -0.6793
17590TIP3    H174185   1.377   2.546  16.382 -0.6653 -1.2464  0.4018
17590TIP3    H274186   1.504   2.522  16.461 -0.1856 -0.7144 -0.2130
17591TIP3   OH274187   3.593   5.894  14.698 -0.3387  0.3223  0.4550
17591TIP3    H174188   3.626   5.930  14.780  0.4999  0.5754  0.0129
17591TIP3    H274189   3.540   5.965  14.661  0.4876  0.7467  0.0712
17592TIP3   OH274190   4.526   4.106   4.727  0.2582  0.1159  0.8353
17592TIP3    H174191   4.479   4.025   4.708  0.9640 -0.1173  0.0432
17592TIP3    H274192   4.464   4.160   4.775 -0.7381 -0.2746 -0.0161
17593TIP3   OH274193   4.591   3.331  14.776  0.3740  0.0558 -0.2801
17593TIP3    H174194   4.633   3.409  14.743 -1.1909  0.8359 -0.5010
17593TIP3    H274195   4.594   3.268  14.704  1.1189  0.1196 -0.2988
17594TIP3   OH274196   4.821   3.083  14.751 -0.1750  0.0907  0.7160
17594TIP3    H174197   4.904   3.045  14.777  0.6807  1.9255  0.7443
17594TIP3    H274198   4.777   3.013  14.703  2.0722 -0.4089 -0.7093
17595TIP3   OH274199   4.620   2.848   1.591  0.0538 -0.2649 -0.3049
17595TIP3    H174200   4.531   2.830   1.563 -0.2675 -0.5610  0.9014
17595TIP3    H274201   4.668   2.863   1.509 -1.3617  1.1660 -0.8995
17596TIP3   OH274202   5.154   3.887  13.296  0.1723 -0.0995  0.4725
17596TIP3    H174203   5.103   3.806  13.298 -1.0877  0.6944  1.4096
17596TIP3    H274204   5.234   3.866  13.344  0.1834 -0.9924  0.0750
17597TIP3   OH274205   2.961   4.197   3.296  0.7236 -0.2702 -0.7501
17597TIP3    H174206   2.927   4.112   3.267  2.7881 -0.9248 -1.3404
17597TIP3    H274207   2.918   4.212   3.380 -2.6344 -0.0186 -2.4454
17598TIP3   OH274208   3.249   2.524   2.912  0.8199  0.4345  0.0237
17598TIP3    H174209   3.268   2.458   2.979 -0.1203 -1.2679 -1.3382
17598TIP3    H274210   3.192   2.587   2.956  0.2271 -0.6563  0.8402
17599TIP3   OH274211   3.164   5.006  15.722  0.0355 -0.1460 -0.2057
17599TIP3    H174212   3.215   5.086  15.712  1.6132 -1.2147 -0.8795
17599TIP3    H274213   3.075   5.036  15.741  0.4466  1.7685 -1.2280
17600TIP3   OH274214   6.272   6.424   2.236 -1.2275  0.1569  0.5667
17600TIP3    H174215   6.277   6.519   2.224  0.2841  0.0600  0.4300
17600TIP3    H274216   6.351   6.390   2.195 -1.6829 -1.1553  0.7580
17601TIP3   OH274217   2.226   0.599  12.022 -0.0729  0.1272 -0.1573
17601TIP3    H174218   2.264   0.535  11.962  1.3815 -0.3435  1.2534
17601TIP3    H274219   2.133   0.579  12.023  0.0830 -0.6618 -1.2915
17602TIP3   OH274220   3.930   1.357   6.503  0.0306  0.4564 -0.3594
17602TIP3    H174221   3.961   1.370   6.414 -0.7232  0.4745 -0.6256
17602TIP3    H274222   4.005   1.321   6.550  0.4779  0.5983 -0.9605
17603TIP3   OH274223   5.044   5.605  15.638  0.2559  0.7505 -0.2021
17603TIP3    H174224   5.111   5.593  15.570  0.6511 -0.6718  0.4032
17603TIP3    H274225   5.072   5.683  15.686  1.6053  0.0624  0.1623
17604TIP3   OH274226   0.169   4.097   5.452  0.1848  0.3671 -0.6010
17604TIP3    H174227   0.155   4.094   5.547  0.0817  1.5309 -0.5715
17604TIP3    H274228   0.081   4.091   5.415  0.2004  0.2267 -0.6151
17605TIP3   OH274229   5.770   5.963   4.379  0.1299 -0.6144  0.0384
17605TIP3    H174230   5.741   5.919   4.459  2.6458 -3.1234 -0.3665
17605TIP3    H274231   5.768   5.895   4.312  3.7938 -0.1139 -0.6746
17606TIP3   OH274232   6.387   4.071  13.217  0.5514 -0.4314 -0.4243
17606TIP3    H174233   6.343   3.991  13.187  0.7604 -0.4543 -0.6723
17606TIP3    H274234   6.410   4.054  13.308 -0.1013 -0.3579 -0.2436
17607TIP3   OH274235   0.942   1.147   0.658  0.1267 -0.2360  0.0502
17607TIP3    H174236   0.913   1.139   0.749 -0.0022 -0.8300 -0.0415
17607TIP3    H274237   0.921   1.237   0.634  2.0124  0.5399  1.2403
17608TIP3   OH274238   4.227   5.767  11.416  0.8372 -0.5579 -0.0683
17608TIP3    H174239   4.220   5.810  11.501 -0.9732  0.2499 -0.6068
17608TIP3    H274240   4.235   5.839  11.353  0.6420 -1.0985 -0.7180
17609TIP3   OH274241   3.949   0.862   3.428 -0.0778  0.0266  0.1019
17609TIP3    H174242   3.920   0.811   3.352 -0.5697 -2.7402  2.0549
17609TIP3    H274243   3.895   0.941   3.426  0.3227  0.2788 -2.7212
17610TIP3   OH274244   5.233   3.939   5.192 -0.4873 -0.6029 -0.0679
17610TIP3    H174245   5.323   3.959   5.163 -0.7656  0.7162 -0.0741
17610TIP3    H274246   5.178   3.997   5.139 -1.2506 -0.5772  0.7405
17611TIP3   OH274247   4.023   2.745  15.615 -0.1126  0.4434  0.3571
17611TIP3    H174248   3.942   2.796  15.610 -0.1498  0.2390 -1.4790
17611TIP3    H274249   4.037   2.714  15.526  2.5702  1.3568  0.4230
17612TIP3   OH274250   1.454   0.296   2.669 -0.1399  0.1636  0.2992
17612TIP3    H174251   1.459   0.275   2.762 -1.4195 -0.0221  0.3352
17612TIP3    H274252   1.477   0.215   2.625 -1.9988 -0.4841  0.4584
17613TIP3   OH274253   0.894   2.608  12.505 -0.3834  0.2099  0.3978
17613TIP3    H174254   0.840   2.666  12.559  1.6310  2.2439  0.2986
17613TIP3    H274255   0.872   2.632  12.415 -1.8755 -1.4262  0.2983
17614TIP3   OH274256   4.741   5.777   3.015 -0.7652 -0.3482  0.0883
17614TIP3    H174257   4.706   5.696   2.978  0.6065 -1.5875  1.3935
17614TIP3    H274258   4.812   5.802   2.956 -0.2428 -0.9221  0.4582
17615TIP3   OH274259   1.659   6.104  15.121  0.0606  0.1678 -0.0500
17615TIP3    H174260   1.642   6.094  15.027  0.7185 -0.1631 -0.1361
17615TIP3    H274261   1.682   6.016  15.151  0.1828  0.3339  0.3510
17616TIP3   OH274262   2.518   2.258  12.112 -0.1328  0.4850  0.3640
17616TIP3    H174263   2.543   2.255  12.020 -1.6150 -0.5779 -0.0140
17616TIP3    H274264   2.427   2.287  12.112  0.4108  2.2909  1.6142
17617TIP3   OH274265   1.115   6.494   6.578  0.5896  0.6172  0.7470
17617TIP3    H174266   1.029   6.466   6.609  1.7989 -2.0677  1.7946
17617TIP3    H274267   1.161   6.521   6.657  1.9381 -1.4440  0.7084
17618TIP3   OH274268   2.094   4.252  10.781  0.8067  0.2644  0.5119
17618TIP3    H174269   2.021   4.227  10.724  1.7835 -2.9103  0.5710
17618TIP3    H274270   2.154   4.300  10.724 -0.7736  1.9220  0.2012
17619TIP3   OH274271   2.728   3.695   1.408 -0.7169  0.5644  0.0008
17619TIP3    H174272   2.695   3.645   1.483  0.6695  0.1091  0.3127
17619TIP3    H274273   2.674   3.666   1.335 -1.2135  0.0544  0.5617
17620TIP3   OH274274   0.049   4.223   3.709 -0.1034 -0.3862 -0.2433
17620TIP3    H174275   0.094   4.173   3.777  1.2249 -3.6670 -3.3455
17620TIP3    H274276  -0.039   4.185   3.705 -0.6022  0.6771  0.4968
17621TIP3   OH274277   1.697   0.435   2.020 -0.2285  0.6957  0.3631
17621TIP3    H174278   1.653   0.518   2.001 -1.9830  0.0666  1.5605
17621TIP3    H274279   1.662   0.374   1.956  0.2027  0.5958  0.2192
17622TIP3   OH274280   4.202   0.114  15.634  0.5784  0.1465  0.3648
17622TIP3    H174281   4.290   0.152  15.644 -0.9915  3.5041  2.2043
17622TIP3    H274282   4.178   0.085  15.722  0.5398 -2.4958 -0.4772
17623TIP3   OH274283   6.546   0.906  13.497  0.2839  0.0308 -0.7327
17623TIP3    H174284   6.607   0.868  13.560 -1.1737 -2.5077 -0.7596
17623TIP3    H274285   6.473   0.937  13.550  1.0985  2.1549 -0.7937
17624TIP3   OH274286   2.522   3.356   1.495  0.0580 -0.5329 -0.2764
17624TIP3    H174287   2.520   3.433   1.553  0.7548 -0.4423 -0.3643
17624TIP3    H274288   2.549   3.284   1.552  0.4779 -0.4971 -0.4270
17625TIP3   OH274289   0.926   6.533  15.345  0.4642  0.2976 -0.4887
17625TIP3    H174290   0.953   6.455  15.299  0.4120  0.1285 -0.2370
17625TIP3    H274291   0.999   6.554  15.403  0.0733 -0.1608  0.1927
17626TIP3   OH274292   3.270   0.928  15.487  0.1424 -0.3427  0.1788
17626TIP3    H174293   3.229   0.909  15.571  0.0101 -0.0818  0.1740
17626TIP3    H274294   3.260   0.848  15.436  1.0553 -0.8262  0.7465
17627TIP3   OH274295   2.532   0.359   1.458 -0.5816  0.3767  0.0306
17627TIP3    H174296   2.589   0.436   1.457 -0.2688  0.1957  1.9940
17627TIP3    H274297   2.449   0.390   1.423 -0.1330  1.3568 -0.1659
17628TIP3   OH274298   2.037   3.339  14.852 -0.7544 -0.3988 -0.3232
17628TIP3    H174299   1.998   3.424  14.835 -0.0983  0.2416  1.2513
17628TIP3    H274300   1.987   3.305  14.927  1.3308  0.1943  1.3585
17629TIP3   OH274301   0.669   6.609   2.123  0.1474  0.3425 -0.2046
17629TIP3    H174302   0.648   6.681   2.063 -0.7085 -0.6728 -1.1494
17629TIP3    H274303   0.619   6.535   2.090  0.0371 -0.3724  1.5053
17630TIP3   OH274304   4.198   5.039  16.961 -0.4865  0.5267 -0.0120
17630TIP3    H174305   4.169   5.087  16.883 -1.4674 -0.6087 -0.3590
17630TIP3    H274306   4.232   4.957  16.926 -1.4933 -0.2409  0.8142
17631TIP3   OH274307   3.249   4.300   0.591 -0.3066 -0.1738  0.5838
17631TIP3    H174308   3.191   4.345   0.530  1.3394 -1.3790 -1.9266
17631TIP3    H274309   3.234   4.207   0.575 -0.1871 -0.5289  2.3883
17632TIP3   OH274310   5.554   3.995  13.032 -0.1818  0.1735  0.4247
17632TIP3    H174311   5.577   3.923  12.973 -1.0391  0.0346  0.2495
17632TIP3    H274312   5.609   3.982  13.109  0.5718  0.0500 -0.1221
17633TIP3   OH274313   5.927   1.006  11.503  0.0627 -0.2206  0.4106
17633TIP3    H174314   5.866   1.008  11.430  1.2586  2.4187 -0.6029
17633TIP3    H274315   5.872   1.005  11.581 -1.2964  1.7596 -0.4804
17634TIP3   OH274316   2.823   4.681   0.232 -0.1191 -0.0504  0.1183
17634TIP3    H174317   2.787   4.673   0.321  1.3588  1.6513  0.9092
17634TIP3    H274318   2.835   4.775   0.220  1.2595 -0.3940 -1.2571
17635TIP3   OH274319   2.166   1.693   5.721 -0.5452  0.3484 -0.0262
17635TIP3    H174320   2.096   1.744   5.680 -0.4058  2.2544  1.9552
17635TIP3    H274321   2.247   1.727   5.682 -0.5125  1.0108  0.5955
17636TIP3   OH274322   6.539   0.299  15.475  0.1673  0.2181  0.2804
17636TIP3    H174323   6.493   0.375  15.437  0.7597  0.6995  0.5184
17636TIP3    H274324   6.563   0.245  15.399  0.2297  0.5459  0.0636
17637TIP3   OH274325   0.990   3.656   4.972 -0.1251  0.1867 -0.2166
17637TIP3    H174326   0.932   3.727   4.999 -1.1166  0.1885 -2.2453
17637TIP3    H274327   1.022   3.683   4.886  0.1730 -1.4434 -0.6261
17638TIP3   OH274328   3.239   0.247   3.834 -0.4849  0.2588  0.0096
17638TIP3    H174329   3.235   0.265   3.928  0.3417  0.8155 -0.0519
17638TIP3    H274330   3.273   0.328   3.795 -0.0268 -0.2464 -0.6692
17639TIP3   OH274331   3.940   2.860   6.096 -0.1948 -0.5687 -0.6212
17639TIP3    H174332   3.912   2.846   6.005 -0.3983 -0.3701 -0.5902
17639TIP3    H274333   4.023   2.814   6.103 -0.3910 -0.9510 -0.7884
17640TIP3   OH274334   6.642   2.322  15.937  0.2550 -0.2544  0.0027
17640TIP3    H174335   6.659   2.265  15.862 -0.6037 -1.2482  0.5555
17640TIP3    H274336   6.727   2.329  15.981  0.3081 -1.3006  0.0659
17641TIP3   OH274337   3.112   6.192   5.054  0.4104 -0.7772  0.5551
17641TIP3    H174338   3.023   6.195   5.090  1.5543 -1.2777  3.5537
17641TIP3    H274339   3.152   6.274   5.083  0.3989  0.2549 -2.2809
17642TIP3   OH274340   5.655   1.509   3.495 -0.3734  0.2146  0.1504
17642TIP3    H174341   5.649   1.483   3.403 -1.4993  3.0186 -0.6187
17642TIP3    H274342   5.598   1.447   3.540 -1.6035  0.2042 -1.3686
17643TIP3   OH274343   5.472   2.040  11.803 -0.0953  0.5426 -0.3308
17643TIP3    H174344   5.439   2.036  11.713  1.6916 -2.1396 -0.9284
17643TIP3    H274345   5.437   1.961  11.845 -2.2133  2.5608  1.8439
17644TIP3   OH274346   4.449   2.469   3.385  0.1651 -0.2695  0.6551
17644TIP3    H174347   4.418   2.477   3.294  1.0895 -1.0688  0.2595
17644TIP3    H274348   4.396   2.532   3.434  0.2788  0.8094 -0.5934
17645TIP3   OH274349   2.738   5.874   2.782  0.2972 -0.4197  0.6115
17645TIP3    H174350   2.644   5.874   2.797  0.2961 -0.1496  0.6077
17645TIP3    H274351   2.774   5.819   2.852  0.4233  1.9431  2.4540
17646TIP3   OH274352   0.907   4.388   6.381 -0.2868  0.9296 -0.1939
17646TIP3    H174353   0.963   4.458   6.348  0.5720 -0.2092 -1.2025
17646TIP3    H274354   0.845   4.371   6.310  0.5412 -0.4230 -0.6232
17647TIP3   OH274355   5.794   4.226  13.905 -0.3013 -0.0344  0.1616
17647TIP3    H174356   5.703   4.251  13.888 -0.5297 -0.5739  0.5774
17647TIP3    H274357   5.828   4.295  13.962  0.2098  1.3269 -1.7377
17648TIP3   OH274358   1.474   6.120   0.879  0.1099 -0.4668 -0.4134
17648TIP3    H174359   1.519   6.181   0.821  3.2840 -0.1675  2.2455
17648TIP3    H274360   1.444   6.174   0.952  1.0108 -1.6773  0.8785
17649TIP3   OH274361   1.420   5.133  14.344 -0.2667 -0.0825  0.4797
17649TIP3    H174362   1.420   5.097  14.255  0.6703  0.5523  0.2117
17649TIP3    H274363   1.327   5.143  14.366 -0.5523  3.6435 -2.0560
17650TIP3   OH274364   6.538   5.365  16.247 -0.0290  0.3021 -0.3532
17650TIP3    H174365   6.563   5.284  16.204 -1.4593 -0.1005 -0.4325
17650TIP3    H274366   6.619   5.398  16.285  0.7483 -0.6339 -1.1904
17651TIP3   OH274367   5.942   3.453  16.547  0.8404 -0.0125 -0.7698
17651TIP3    H174368   6.027   3.455  16.503  1.7827  1.4884  1.0499
17651TIP3    H274369   5.949   3.381  16.611  0.6466 -0.0599 -0.8010
17652TIP3   OH274370   3.156   6.370  11.734 -0.6692  0.1883  0.2398
17652TIP3    H174371   3.229   6.396  11.790  1.9734 -4.3317 -0.8703
17652TIP3    H274372   3.166   6.424  11.656  1.0839  0.1418  0.4086
17653TIP3   OH274373   1.840   4.843   6.270 -0.2100  0.2460  0.3104
17653TIP3    H174374   1.897   4.892   6.328  1.0014 -0.1909 -0.4949
17653TIP3    H274375   1.790   4.910   6.223  0.6919  0.6716 -0.0437
17654TIP3   OH274376   0.036   2.323   4.503  0.3243  0.2050 -0.5260
17654TIP3    H174377  -0.055   2.323   4.533  0.0232  2.0868 -1.3471
17654TIP3    H274378   0.078   2.252   4.551 -1.5312 -0.5199  0.0344
17655TIP3   OH274379   3.268   6.010  16.417 -0.2998 -0.4097  0.0976
17655TIP3    H174380   3.262   5.916  16.405  0.1974 -0.5814  1.1064
17655TIP3    H274381   3.205   6.030  16.486 -0.5336  0.0277 -0.2376
17656TIP3   OH274382   1.468   5.144   2.162  0.1070 -0.0646  0.0484
17656TIP3    H174383   1.388   5.114   2.206 -0.0697  1.4988  0.8187
17656TIP3    H274384   1.470   5.094   2.080 -1.9411  0.2271 -0.2061
17657TIP3   OH274385   6.696   4.798   0.837 -0.3109  0.7368  0.5951
17657TIP3    H174386   6.788   4.821   0.840 -0.5794  1.8122  0.4829
17657TIP3    H274387   6.650   4.875   0.871 -1.0224 -0.6144  2.8399
17658TIP3   OH274388   4.586   4.600   4.658 -0.1473  0.6148 -0.6971
17658TIP3    H174389   4.581   4.589   4.753  2.3831  0.5634 -0.5506
17658TIP3    H274390   4.616   4.690   4.646  0.7405  0.2244 -1.4239
17659TIP3   OH274391   5.700   3.969   4.903  0.3072  0.7193 -0.6318
17659TIP3    H174392   5.786   4.000   4.931 -0.5039  2.6919 -0.2950
17659TIP3    H274393   5.718   3.883   4.863  2.3943  1.0362 -0.4400
17660TIP3   OH274394   3.659   5.695   2.643  0.3238 -0.0529  0.1780
17660TIP3    H174395   3.594   5.736   2.587  0.4938  0.4480  0.3454
17660TIP3    H274396   3.741   5.702   2.594  0.4435  0.2450  0.4189
17661TIP3   OH274397   2.862   1.910  10.498 -0.9173  0.0825 -0.1776
17661TIP3    H174398   2.937   1.851  10.488 -0.4678  0.3444  1.4345
17661TIP3    H274399   2.793   1.855  10.536 -0.7859  0.3873  0.5018
17662TIP3   OH274400   2.106   5.591   3.939 -0.4142  0.3051  0.0163
17662TIP3    H174401   2.070   5.571   4.025 -2.0789  0.0908 -0.7065
17662TIP3    H274402   2.127   5.505   3.901 -1.8644  0.2426 -0.6880
17663TIP3   OH274403   4.749   2.938   0.084  0.6724 -0.5622  0.5916
17663TIP3    H174404   4.678   2.988   0.126  0.8090  0.3223 -0.2144
17663TIP3    H274405   4.728   2.847   0.104 -1.5875 -0.4284 -0.9424
17664TIP3   OH274406   1.614   3.123  13.300  0.2190  0.0496  0.2281
17664TIP3    H174407   1.636   3.186  13.231  0.1271 -2.3199 -2.0332
17664TIP3    H274408   1.695   3.114  13.350  1.5550 -1.1986 -2.0522
17665TIP3   OH274409   4.288   3.362   3.648  0.6868  0.0666 -0.1226
17665TIP3    H174410   4.205   3.361   3.696  2.5760 -1.8318  3.3295
17665TIP3    H274411   4.334   3.439   3.681  1.2593 -0.2120 -0.2599
17666TIP3   OH274412   0.728   6.418  14.356  0.4556  0.2134 -0.6057
17666TIP3    H174413   0.686   6.494  14.316  0.9803  0.3926 -0.8266
17666TIP3    H274414   0.700   6.344  14.302 -1.5041 -0.0156  0.6784
17667TIP3   OH274415   3.963   6.252  15.615 -0.0670 -0.8954 -0.7584
17667TIP3    H174416   4.016   6.276  15.539 -0.2858  0.1008 -0.6042
17667TIP3    H274417   4.024   6.259  15.689 -0.3014 -0.1473 -0.6321
17668TIP3   OH274418   5.043   6.260   5.050  0.0453 -0.2384 -0.5456
17668TIP3    H174419   4.991   6.329   5.009 -0.0248  0.2096  0.2816
17668TIP3    H274420   4.992   6.180   5.035 -0.0626 -0.0553 -1.1766
17669TIP3   OH274421   0.419   2.624   2.400 -0.7620  0.2137 -0.2945
17669TIP3    H174422   0.399   2.662   2.314  0.9402  0.6101 -0.5371
17669TIP3    H274423   0.491   2.564   2.383 -0.9433 -0.3047  0.7333
17670TIP3   OH274424   6.462   1.726  16.459 -0.3693  0.4344  0.2205
17670TIP3    H174425   6.558   1.724  16.459 -0.3369  1.5288  0.7507
17670TIP3    H274426   6.437   1.718  16.551 -0.8678 -2.0517 -0.0985
17671TIP3   OH274427   2.531   5.969   0.952 -0.0401 -0.4145 -0.4213
17671TIP3    H174428   2.579   6.050   0.973  0.2656 -0.5277 -0.6752
17671TIP3    H274429   2.592   5.920   0.897 -1.4004  0.5183 -2.7950
17672TIP3   OH274430   4.447   3.201  11.270  0.4098 -0.3801  0.1786
17672TIP3    H174431   4.509   3.142  11.313  0.7267 -0.2082 -0.0368
17672TIP3    H274432   4.373   3.206  11.330  0.8852 -0.0711  0.7549
17673TIP3   OH274433   1.473   5.014  13.012 -0.5450 -0.4587  0.2801
17673TIP3    H174434   1.481   4.967  12.929 -1.1399  1.1765 -0.7367
17673TIP3    H274435   1.382   5.002  13.037 -0.6381 -0.0583  0.1382
17674TIP3   OH274436   5.613   5.407   2.490 -0.7067 -0.6801 -0.0686
17674TIP3    H174437   5.560   5.486   2.480  0.4796  0.1276 -0.0633
17674TIP3    H274438   5.550   5.336   2.488 -1.8416  0.2951  0.3781
17675TIP3   OH274439   5.060   5.759  17.028  0.0040 -0.0748  0.3602
17675TIP3    H174440   5.015   5.675  17.022 -0.7325  0.4092 -1.4044
17675TIP3    H274441   4.991   5.824  17.017  0.8018  0.7233 -0.0394
17676TIP3   OH274442   3.833   2.156   5.533  0.0745 -0.1706 -0.3314
17676TIP3    H174443   3.759   2.184   5.478  0.6236 -0.7743 -1.4003
17676TIP3    H274444   3.860   2.236   5.579 -1.3148  0.0269  0.1617
17677TIP3   OH274445   4.054   1.092  11.404 -0.3911 -0.2246 -0.3406
17677TIP3    H174446   3.986   1.032  11.433 -1.6213  0.3334 -1.9993
17677TIP3    H274447   4.108   1.041  11.343  1.7326 -1.1652  2.2036
17678TIP3   OH274448   6.213   2.650   5.199 -0.7689 -0.2447 -0.2106
17678TIP3    H174449   6.194   2.624   5.108 -2.0964  0.2786 -0.0938
17678TIP3    H274450   6.306   2.672   5.198 -0.1569 -2.6753 -0.8554
17679TIP3   OH274451   4.944   5.000   6.233  0.1699 -0.3999 -0.2336
17679TIP3    H174452   5.038   5.000   6.251  0.2426 -3.3519 -0.3172
17679TIP3    H274453   4.935   4.943   6.157 -1.7989 -1.2092  0.5716
17680TIP3   OH274454   0.404   2.480   2.025  0.4725  0.0596  0.2898
17680TIP3    H174455   0.438   2.481   1.935 -0.2473 -0.9833 -0.0081
17680TIP3    H274456   0.450   2.407   2.067  0.5770  0.3491  0.6813
17681TIP3   OH274457   4.876   6.037  13.505 -0.0912  0.0644  0.5747
17681TIP3    H174458   4.885   6.042  13.600  0.8236  0.3132  0.4765
17681TIP3    H274459   4.854   5.946  13.488 -1.1493  0.2074  1.0912
17682TIP3   OH274460   2.596   3.415   2.134 -0.1791  0.5304 -0.6611
17682TIP3    H174461   2.658   3.477   2.174 -0.5368  1.1425 -1.0559
17682TIP3    H274462   2.519   3.467   2.114 -1.9335 -0.7758  2.3629
17683TIP3   OH274463   1.788   3.651  15.711 -0.7342  0.7828 -0.0460
17683TIP3    H174464   1.774   3.628  15.619  1.8138 -0.6339 -0.1209
17683TIP3    H274465   1.738   3.732  15.723 -2.0955  0.3278 -2.3367
17684TIP3   OH274466   0.454   5.241   2.105 -0.1272  0.4439  0.9189
17684TIP3    H174467   0.367   5.238   2.066  0.6414  2.3011 -1.0111
17684TIP3    H274468   0.470   5.151   2.135 -2.2199 -0.1737  0.2705
17685TIP3   OH274469   0.024   2.120   0.766  0.1778 -0.2911 -0.2366
17685TIP3    H174470   0.012   2.090   0.856 -0.3770  0.2683 -0.1226
17685TIP3    H274471   0.085   2.057   0.728 -1.0411 -1.6425 -0.0211
17686TIP3   OH274472   4.780   1.102  15.035 -0.1680  0.1329 -0.2233
17686TIP3    H174473   4.827   1.182  15.057 -0.2381  0.1307 -0.0710
17686TIP3    H274474   4.794   1.091  14.941  2.7025 -1.5271  0.3382
17687TIP3   OH274475   1.421   5.007  12.076  0.4289 -0.1620 -0.3701
17687TIP3    H174476   1.396   5.059  12.153 -1.0632 -0.4568 -0.6522
17687TIP3    H274477   1.474   4.936  12.112 -0.1870 -0.2491  0.3845
17688TIP3   OH274478   5.646   5.071  14.126  0.2658 -0.4099  0.7620
17688TIP3    H174479   5.559   5.105  14.149  1.4986  2.5641  1.3292
17688TIP3    H274480   5.677   5.130  14.058  1.6314 -1.7703  0.1969
17689TIP3   OH274481   5.402   5.603  13.605  0.7049 -0.5720  0.1304
17689TIP3    H174482   5.492   5.622  13.579  0.8033 -1.3575 -0.1087
17689TIP3    H274483   5.402   5.616  13.700  1.9818 -4.0387  0.6591
17690TIP3   OH274484   6.773   5.927  13.629 -0.0778  0.2703  0.3504
17690TIP3    H174485   6.766   5.955  13.721 -0.8243 -1.3221  0.7946
17690TIP3    H274486   6.698   5.966  13.586  0.0743  0.7274  0.5009
17691TIP3   OH274487   2.013   5.623  11.244 -0.5161  0.3175  0.5327
17691TIP3    H174488   1.938   5.645  11.299 -0.5575  4.0269 -0.8810
17691TIP3    H274489   1.982   5.636  11.154  0.4773 -2.6172 -0.2821
17692TIP3   OH274490   3.563   2.625   0.082  0.5256 -0.4838 -0.3086
17692TIP3    H174491   3.636   2.562   0.083  0.5335 -0.5047  2.6167
17692TIP3    H274492   3.522   2.615   0.167 -0.6846  2.1227 -0.5329
17693TIP3   OH274493   3.023   0.981  11.330  0.3767  0.3336 -0.1195
17693TIP3    H174494   2.987   1.009  11.246 -0.4666 -0.6172 -0.0791
17693TIP3    H274495   2.948   0.974  11.388  0.9622  1.0029  0.7218
17694TIP3   OH274496   3.411   1.652   5.886  0.0395 -0.2857 -1.1011
17694TIP3    H174497   3.363   1.679   5.965 -0.8422  1.6606 -2.2772
17694TIP3    H274498   3.484   1.714   5.880 -0.9246  0.7405 -2.7754
17695TIP3   OH274499   1.560   6.420   1.272  0.8365  0.5580  0.7584
17695TIP3    H174500   1.648   6.421   1.310 -0.3235 -1.8047  3.7048
17695TIP3    H274501   1.506   6.469   1.333 -0.5987 -1.1475  0.8960
17696TIP3   OH274502   0.999   4.003  15.608 -0.0579 -0.1866  0.2692
17696TIP3    H174503   1.034   4.090  15.591 -0.3378  0.0151  0.7163
17696TIP3    H274504   0.943   4.014  15.685 -0.8230 -0.5791 -0.2253
17697TIP3   OH274505   3.709   2.514  10.801  0.2637 -0.3518 -0.2222
17697TIP3    H174506   3.643   2.538  10.736 -0.7119 -0.9018  0.5372
17697TIP3    H274507   3.790   2.553  10.770 -0.3769  0.1223 -1.3059
17698TIP3   OH274508   4.530   2.388   3.638 -0.4160  0.2010  0.4045
17698TIP3    H174509   4.592   2.319   3.615 -1.1156 -0.9472  1.8848
17698TIP3    H274510   4.497   2.421   3.554 -0.8511 -1.9920 -0.2966
17699TIP3   OH274511   0.303   3.597   2.511 -0.0159 -0.0628 -0.2888
17699TIP3    H174512   0.389   3.598   2.470  0.7239  1.2730  1.2770
17699TIP3    H274513   0.303   3.672   2.570 -2.0515 -0.3756  0.1520
17700TIP3   OH274514   2.854   4.908  16.960  0.3374 -0.2372 -0.5639
17700TIP3    H174515   2.833   4.907  17.053 -1.7609  0.7883 -0.9945
17700TIP3    H274516   2.824   4.823  16.927  0.0782 -0.1627 -0.5172
17701TIP3   OH274517   3.291   0.277   1.323  0.0576 -0.1899  0.0810
17701TIP3    H174518   3.292   0.363   1.281  1.6444 -1.0920 -1.8541
17701TIP3    H274519   3.206   0.271   1.366 -0.3137  2.0765 -0.3015
17702TIP3   OH274520   2.073   4.331   3.313  0.4815  0.0718 -0.5935
17702TIP3    H174521   2.072   4.395   3.384 -0.6502 -1.6722  1.0247
17702TIP3    H274522   2.152   4.279   3.329 -0.2324 -0.8777 -0.0636
17703TIP3   OH274523   5.815   1.706  12.124  1.0494  0.2563 -0.2445
17703TIP3    H174524   5.791   1.795  12.098  2.6833  0.9874  0.6343
17703TIP3    H274525   5.788   1.699  12.216  1.2137 -0.0281 -0.2147
17704TIP3   OH274526   0.902   3.481  10.684  0.2753  0.4551  0.0842
17704TIP3    H174527   0.968   3.434  10.633 -0.2324 -0.4946  0.2938
17704TIP3    H274528   0.865   3.415  10.743 -1.2600  0.8346 -0.4259
17705TIP3   OH274529   2.201   1.428  14.537  0.1486 -0.1733 -0.1177
17705TIP3    H174530   2.195   1.421  14.442 -0.3812  0.0693 -0.1077
17705TIP3    H274531   2.155   1.510  14.558  0.6135 -0.0209  0.3086
17706TIP3   OH274532   5.555   1.075   2.111  0.1432 -0.7305  0.0014
17706TIP3    H174533   5.470   1.034   2.098  0.3119 -0.5691 -1.8371
17706TIP3    H274534   5.602   1.058   2.029  1.5741 -0.1155  0.6756
17707TIP3   OH274535   6.044   0.665   0.039 -0.6496 -1.0981  0.1727
17707TIP3    H174536   6.006   0.579   0.054  3.3759 -3.3384 -1.7516
17707TIP3    H274537   6.032   0.680  -0.055 -1.7985  0.7381  0.5817
17708TIP3   OH274538   4.634   3.959  13.434 -0.1668  0.0566 -0.7974
17708TIP3    H174539   4.631   4.054  13.446 -2.7004  0.1398 -1.7683
17708TIP3    H274540   4.601   3.923  13.517  2.4247 -0.0773  0.2255
17709TIP3   OH274541   5.723   3.342  11.501  0.2614 -0.1383  0.0332
17709TIP3    H174542   5.817   3.356  11.511  0.3565 -1.3746  1.0554
17709TIP3    H274543   5.685   3.371  11.584 -0.3506  0.9859 -0.6182
17710TIP3   OH274544   2.017   0.323  12.242 -0.4028 -0.7899  0.7112
17710TIP3    H174545   2.110   0.328  12.222 -0.8963 -0.6933 -1.7166
17710TIP3    H274546   2.005   0.383  12.316  1.2714 -0.0054  0.3691
17711TIP3   OH274547   3.065   4.221  13.976  0.9419  0.2622 -0.3162
17711TIP3    H174548   2.969   4.228  13.968  0.8433 -0.4268  0.3182
17711TIP3    H274549   3.097   4.253  13.892  0.1935  1.5232 -0.1396
17712TIP3   OH274550   2.411   6.609  12.186  0.2875 -0.2368 -0.1514
17712TIP3    H174551   2.387   6.528  12.230  0.5221  0.4885  1.3729
17712TIP3    H274552   2.463   6.581  12.110  1.4868 -1.4669  1.0883
17713TIP3   OH274553   2.438   3.508   2.468 -0.3211 -0.6329  0.0992
17713TIP3    H174554   2.426   3.602   2.455  1.3994 -0.1577  1.6658
17713TIP3    H274555   2.516   3.487   2.417  0.6966 -0.7014  1.6419
17714TIP3   OH274556   1.359   6.371   0.366  0.6153  0.7043 -0.5131
17714TIP3    H174557   1.319   6.286   0.347 -0.3297  1.5456 -2.5435
17714TIP3    H274558   1.443   6.369   0.319  1.9077 -0.1585  1.7824
17715TIP3   OH274559   6.642   6.746   5.051  0.0352 -0.4482 -0.2761
17715TIP3    H174560   6.687   6.755   5.135 -1.0418 -1.6898  0.4569
17715TIP3    H274561   6.562   6.797   5.061 -1.4747 -2.8718  0.5071
17716TIP3   OH274562   3.347   3.103   1.115 -0.0690  0.1132  0.0558
17716TIP3    H174563   3.293   3.053   1.176  0.2138 -1.8189 -1.2394
17716TIP3    H274564   3.286   3.132   1.047  0.3593 -1.5334 -1.0715
17717TIP3   OH274565   6.004   3.018   2.077  0.2789  0.6534 -0.5819
17717TIP3    H174566   6.054   3.026   2.159  0.8481 -1.7254 -0.6820
17717TIP3    H274567   5.924   3.067   2.094  0.2486 -0.0533  1.5108
17718TIP3   OH274568   3.994   4.753  11.096  0.5395  0.2126 -0.7866
17718TIP3    H174569   4.044   4.689  11.147  1.3532 -0.7648 -2.7550
17718TIP3    H274570   3.923   4.780  11.155  1.4004 -0.9270  0.8227
17719TIP3   OH274571   6.604   2.137   4.723 -0.2624  0.0079  0.2619
17719TIP3    H174572   6.554   2.143   4.804 -0.8251  0.5391 -0.1207
17719TIP3    H274573   6.557   2.072   4.670 -0.9146  0.9566 -0.3449
17720TIP3   OH274574   0.452   5.876  15.245  0.1968  0.0968 -0.4148
17720TIP3    H174575   0.505   5.944  15.286  0.7519  0.3091 -1.4844
17720TIP3    H274576   0.384   5.924  15.196 -0.4311 -0.1552  0.1961
17721TIP3   OH274577   3.025   0.303   1.023  0.3125 -0.1343  0.0434
17721TIP3    H174578   2.947   0.253   0.999 -0.4527  1.0818 -0.0767
17721TIP3    H274579   2.995   0.360   1.094  0.6140  1.5878 -1.1809
17722TIP3   OH274580   6.739   3.714   6.490  0.1800 -0.4544  0.2387
17722TIP3    H174581   6.823   3.749   6.459  0.4824 -2.0133 -0.7246
17722TIP3    H274582   6.676   3.742   6.424  0.5862 -2.5488 -1.0562
17723TIP3   OH274583   5.852   3.965  15.889  0.1102 -0.4571  0.5182
17723TIP3    H174584   5.835   4.055  15.915  1.4460 -0.0258 -0.0586
17723TIP3    H274585   5.853   3.967  15.793  1.2307 -0.8595  0.5120
17724TIP3   OH274586   1.194   4.273  15.533 -0.2051 -0.1324 -0.0027
17724TIP3    H174587   1.261   4.213  15.501 -0.1662  0.9960 -2.0914
17724TIP3    H274588   1.178   4.333  15.460 -2.2442  0.6787  1.0674
17725TIP3   OH274589   6.626   1.876  12.997 -0.6924  0.3518 -0.0826
17725TIP3    H174590   6.707   1.836  12.967 -2.1397 -3.0520  0.2752
17725TIP3    H274591   6.612   1.839  13.085 -1.1382  3.1723  1.0807
17726TIP3   OH274592   5.110   6.063   5.953 -0.2358  0.1418 -0.0753
17726TIP3    H174593   5.025   6.029   5.979 -0.0577 -0.9519 -0.9005
17726TIP3    H274594   5.130   6.019   5.871 -0.3875  2.9068 -1.6426
17727TIP3   OH274595   0.038   0.146   4.483 -0.0833 -0.0224  0.5314
17727TIP3    H174596   0.106   0.115   4.423  0.3314  1.0360  0.4560
17727TIP3    H274597   0.042   0.085   4.557  3.5689  2.2631  2.3303
17728TIP3   OH274598   1.757   6.671  12.689 -0.0030 -0.1346 -0.0311
17728TIP3    H174599   1.707   6.659  12.609  0.6494  0.7203 -0.5738
17728TIP3    H274600   1.830   6.610  12.682 -0.6684 -1.0105  0.5247
17729TIP3   OH274601   6.123   1.647   4.365  0.5033  0.3995 -0.1265
17729TIP3    H174602   6.161   1.669   4.450  0.1567  1.1418 -0.1560
17729TIP3    H274603   6.029   1.641   4.382  0.4187  0.6847 -0.4861
17730TIP3   OH274604   1.386   4.682  16.483  0.4972 -0.5687  0.4392
17730TIP3    H174605   1.310   4.720  16.528  1.0080 -2.0304  2.5743
17730TIP3    H274606   1.435   4.758  16.451 -0.8561  0.4272  0.6794
17731TIP3   OH274607   1.675   1.033  12.199 -0.0425  0.1007 -0.3270
17731TIP3    H174608   1.590   0.995  12.222  0.6689 -1.7753 -0.6951
17731TIP3    H274609   1.731   0.957  12.181  0.8703  1.3696 -3.0703
17732TIP3   OH274610   4.247   1.683   0.200 -0.5977  0.3404  0.1301
17732TIP3    H174611   4.213   1.712   0.285  0.0718  0.7554  0.2591
17732TIP3    H274612   4.330   1.729   0.190  0.4138 -1.4085  0.2538
17733TIP3   OH274613   2.639   5.522  13.062  0.1596 -0.2569 -0.1910
17733TIP3    H174614   2.686   5.535  13.144 -0.2481  0.9346 -0.1420
17733TIP3    H274615   2.687   5.451  13.018 -0.4209 -1.8688  1.6665
17734TIP3   OH274616   4.696   5.489   5.276 -0.7224 -0.7913  0.1014
17734TIP3    H174617   4.695   5.399   5.310 -1.3288 -0.9225 -0.2626
17734TIP3    H274618   4.779   5.495   5.229 -0.9212 -1.3328 -0.3277
17735TIP3   OH274619   0.398   1.873  15.876 -0.0929  0.1864  0.8232
17735TIP3    H174620   0.444   1.941  15.925 -0.2587 -0.5605  2.0633
17735TIP3    H274621   0.348   1.826  15.943 -0.0545 -1.0946 -0.0278
17736TIP3   OH274622   2.347   6.584  13.599 -0.1126 -0.5215  0.3557
17736TIP3    H174623   2.351   6.641  13.522 -2.1824  1.2122  1.5122
17736TIP3    H274624   2.408   6.513  13.578  0.1662  0.4673 -2.4288
17737TIP3   OH274625   1.260   5.640  15.899  0.5118 -0.1800 -0.4822
17737TIP3    H174626   1.324   5.579  15.934 -0.8539 -1.5123 -0.2441
17737TIP3    H274627   1.293   5.727  15.923  1.2744 -0.9279  1.2304
17738TIP3   OH274628   4.313   4.101  14.076 -0.8509  0.6268 -0.0537
17738TIP3    H174629   4.235   4.062  14.116 -1.5331  1.6312 -0.3996
17738TIP3    H274630   4.290   4.115  13.985  0.1986 -0.2845 -0.4746
17739TIP3   OH274631   1.507   0.085  11.934 -0.4397  0.2807 -0.0940
17739TIP3    H174632   1.529  -0.008  11.941 -2.0065 -0.0767  0.3392
17739TIP3    H274633   1.581   0.124  11.888  0.4335 -1.1065  0.1145
17740TIP3   OH274634   3.833   3.340   5.478  0.3124 -0.7396  0.0016
17740TIP3    H174635   3.766   3.339   5.547  0.1161 -0.7556 -0.1924
17740TIP3    H274636   3.903   3.285   5.513  0.3473 -0.4885  0.3279
17741TIP3   OH274637   0.203   4.741   6.089  0.3639  0.4457 -0.1035
17741TIP3    H174638   0.211   4.817   6.032  0.6938  0.4806 -0.0095
17741TIP3    H274639   0.264   4.677   6.054 -0.9256 -0.3071 -1.0168
17742TIP3   OH274640   6.172   6.669   3.186 -0.1421  0.0055  0.0756
17742TIP3    H174641   6.166   6.756   3.147  0.2296 -0.1178 -0.2617
17742TIP3    H274642   6.087   6.629   3.168  0.3255 -0.3725 -1.3999
17743TIP3   OH274643   3.369   6.075  14.636 -0.3911  0.6341 -0.0304
17743TIP3    H174644   3.374   6.026  14.554  1.7028 -0.9632  0.9977
17743TIP3    H274645   3.275   6.079  14.656 -0.5899 -4.0405  0.4346
17744TIP3   OH274646   4.122   4.905  15.681  0.1421  0.1614  1.5110
17744TIP3    H174647   4.169   4.852  15.745 -0.8909  0.0936  2.2413
17744TIP3    H274648   4.066   4.962  15.734 -2.7017 -1.7130  0.6695
17745TIP3   OH274649   6.067   5.252   0.097  0.4968  0.3154 -0.0216
17745TIP3    H174650   6.083   5.332   0.147 -1.6570  2.2173 -2.2337
17745TIP3    H274651   6.023   5.194   0.159 -0.3822  1.8837  0.8722
17746TIP3   OH274652   1.627   0.403  17.077 -0.0107 -0.2291  0.6205
17746TIP3    H174653   1.545   0.408  17.125  0.1627 -1.5610  1.0654
17746TIP3    H274654   1.670   0.324  17.110  0.3338 -0.8964 -1.3853
17747TIP3   OH274655   2.172   2.113  16.511  0.2722  0.5432 -0.0836
17747TIP3    H174656   2.086   2.078  16.535 -0.2031  0.0043 -2.4576
17747TIP3    H274657   2.233   2.066  16.567 -0.9392  0.7906  1.5062
17748TIP3   OH274658   5.790   6.532   2.328 -0.0144 -0.3598 -0.2637
17748TIP3    H174659   5.863   6.587   2.357  0.8090 -0.3925 -2.1991
17748TIP3    H274660   5.817   6.443   2.350  0.8268 -0.4318 -1.5493
17749TIP3   OH274661   3.833   4.458   4.607 -0.5357  0.1614  0.9878
17749TIP3    H174662   3.858   4.407   4.530 -1.8766 -0.0134  0.6458
17749TIP3    H274663   3.752   4.502   4.581 -0.2554  1.1872  1.8323
17750TIP3   OH274664   0.815   6.078   2.127 -0.1050  0.1595 -0.1691
17750TIP3    H174665   0.809   6.052   2.219 -1.7479  0.3509 -0.2066
17750TIP3    H274666   0.732   6.049   2.089  0.5025  0.2162 -1.5656
17751TIP3   OH274667   1.348   4.189   6.024  0.3051  0.5052  0.2266
17751TIP3    H174668   1.280   4.149   6.079 -0.7833  0.0711 -1.4107
17751TIP3    H274669   1.395   4.115   5.985 -2.3996  0.6865 -3.6551
17752TIP3   OH274670   6.740   2.548  11.673 -0.3941  0.2939  0.0744
17752TIP3    H174671   6.788   2.558  11.590 -0.0568 -3.0977 -0.2024
17752TIP3    H274672   6.809   2.536  11.739 -0.7461 -1.3293  0.1653
17753TIP3   OH274673   4.547   6.410   4.125 -0.3864  0.3918 -0.3235
17753TIP3    H174674   4.600   6.470   4.178 -1.5688  2.2988 -1.2472
17753TIP3    H274675   4.591   6.408   4.040  0.1870 -0.8316 -0.0139
17754TIP3   OH274676   5.013   2.193   0.201  0.3806  0.6182  0.0196
17754TIP3    H174677   5.066   2.167   0.276  1.2870  0.6750 -0.5811
17754TIP3    H274678   5.077   2.217   0.134 -0.2984 -2.8856 -2.0194
17755TIP3   OH274679   5.631   6.010   2.609 -0.0244 -0.0045 -0.2127
17755TIP3    H174680   5.670   5.960   2.537 -0.7096 -0.5934 -0.1802
17755TIP3    H274681   5.558   5.956   2.638  0.7000 -0.1113  1.4218
17756TIP3   OH274682   5.844   4.868   3.548 -0.5223 -0.7870 -0.6345
17756TIP3    H174683   5.934   4.856   3.520 -0.3857 -1.3592  0.0357
17756TIP3    H274684   5.851   4.894   3.640 -1.0602 -1.4126 -0.4136
17757TIP3   OH274685   3.959   1.273  12.740  0.4257 -0.2628  0.2300
17757TIP3    H174686   3.902   1.266  12.663  2.1082 -1.6702 -0.9115
17757TIP3    H274687   3.996   1.186  12.750  1.1930  0.2463  1.9018
17758TIP3   OH274688   3.815   1.513  16.469  0.1088 -0.2697 -1.1274
17758TIP3    H174689   3.897   1.556  16.445  0.3677 -1.1607 -1.8879
17758TIP3    H274690   3.804   1.532  16.562  0.3197  1.2517 -1.3920
17759TIP3   OH274691   2.129   2.202   3.435 -0.1362 -0.2587 -0.2129
17759TIP3    H174692   2.208   2.250   3.410  0.9799 -1.7623  0.3827
17759TIP3    H274693   2.137   2.118   3.390 -1.7668 -0.1439 -0.7405
17760TIP3   OH274694   1.426   1.550   5.240 -0.2165  0.6811  0.2120
17760TIP3    H174695   1.422   1.554   5.145  1.8882  0.9880  0.1211
17760TIP3    H274696   1.509   1.591   5.263  1.2356 -2.9956  1.9279
17761TIP3   OH274697   1.686   3.514  11.345  0.7321 -0.1047 -0.3547
17761TIP3    H174698   1.605   3.507  11.293  1.6535 -0.7454 -1.7282
17761TIP3    H274699   1.657   3.499  11.435 -0.8039  0.4286 -0.7308
17762TIP3   OH274700   2.200   1.965  17.177 -0.1955  0.3754  0.3809
17762TIP3    H174701   2.281   1.952  17.226 -0.1374  1.9275  0.7540
17762TIP3    H274702   2.134   1.982  17.245 -0.7389 -0.4677  0.0614
17763TIP3   OH274703   3.522   6.631   0.094 -0.3060 -0.0366 -0.2627
17763TIP3    H174704   3.430   6.654   0.085 -0.4889  0.4130  2.3532
17763TIP3    H274705   3.566   6.715   0.105  0.5812 -0.1719 -2.5054
17764TIP3   OH274706   1.216   5.510  15.128  0.2282 -0.5521  0.0539
17764TIP3    H174707   1.186   5.479  15.213  0.7587  3.2486  1.7226
17764TIP3    H274708   1.311   5.495  15.129  0.5953  1.6379  1.1584
17765TIP3   OH274709   2.793   1.716  15.439 -0.1766  0.5247  0.3628
17765TIP3    H174710   2.728   1.768  15.393 -0.3453  0.3459  0.3977
17765TIP3    H274711   2.863   1.777  15.460 -1.0794  1.0878  1.7888
17766TIP3   OH274712   5.669   6.634   0.541  0.1348  0.0851  0.3276
17766TIP3    H174713   5.604   6.626   0.610 -0.2480  0.0564 -0.0307
17766TIP3    H274714   5.646   6.564   0.479  1.4847 -0.9616  0.9914
17767TIP3   OH274715   5.999   2.760   4.148  0.5762  0.1901 -0.0532
17767TIP3    H174716   5.957   2.705   4.215 -0.3995  0.6821 -0.2412
17767TIP3    H274717   6.009   2.703   4.072 -0.6359  0.3195 -0.3225
17768TIP3   OH274718   2.689   6.670   0.262 -0.5955 -0.1510 -0.5425
17768TIP3    H174719   2.647   6.692   0.179 -0.6113  1.7012 -0.0436
17768TIP3    H274720   2.703   6.753   0.306  2.6647 -0.7700 -0.2291
17769TIP3   OH274721   1.965   1.027  11.676  0.5921  0.1307  0.0594
17769TIP3    H174722   1.947   1.026  11.583  1.1494 -3.2666 -0.0635
17769TIP3    H274723   1.954   0.937  11.705 -3.1383  1.6564  4.0266
17770TIP3   OH274724   6.012   6.264   0.187 -0.1227 -0.1508  1.3424
17770TIP3    H174725   6.081   6.212   0.146 -2.7983 -1.8898 -1.1235
17770TIP3    H274726   5.968   6.204   0.246 -1.1364  0.2315  0.9878
17771TIP3   OH274727   2.851   3.283  12.760 -0.0794 -0.1113 -0.5196
17771TIP3    H174728   2.910   3.320  12.695 -0.6030  0.0873 -0.8890
17771TIP3    H274729   2.827   3.357  12.815  0.6863 -0.3573  0.1610
17772TIP3   OH274730   5.632   2.256  11.705 -0.4505 -0.2231 -0.3417
17772TIP3    H174731   5.662   2.210  11.627 -1.7936 -2.8595  0.6420
17772TIP3    H274732   5.578   2.192  11.752  1.3635  0.8057  3.4029
17773TIP3   OH274733   2.708   5.845  13.321 -0.3710  0.7028  0.0616
17773TIP3    H174734   2.648   5.907  13.280 -1.3684  0.1474  0.6444
17773TIP3    H274735   2.669   5.828  13.407 -0.0832 -0.6682 -0.0566
17774TIP3   OH274736   6.657   4.140   5.431  0.7053 -0.2467  0.3835
17774TIP3    H174737   6.642   4.100   5.346 -0.9484 -0.3085  0.6866
17774TIP3    H274738   6.603   4.219   5.431 -0.9425 -1.3411  2.1462
17775TIP3   OH274739   6.683   2.959  16.537  0.1079  0.0178 -0.1545
17775TIP3    H174740   6.667   3.008  16.456 -2.1589  1.2952  1.0114
17775TIP3    H274741   6.745   3.013  16.586  0.0327  0.1812 -0.2387
17776TIP3   OH274742   5.670   2.854  11.013  0.0300  0.5471  0.6092
17776TIP3    H174743   5.666   2.790  11.084 -1.4649  1.0592  0.9955
17776TIP3    H274744   5.616   2.816  10.944  1.4053  0.0951 -0.2299
17777TIP3   OH274745   3.144   5.068  12.323  0.4756  0.5079 -0.2082
17777TIP3    H174746   3.120   5.108  12.240  0.2492  2.3149  0.6998
17777TIP3    H274747   3.120   5.133  12.389  0.1037 -1.1280  1.3251
17778TIP3   OH274748   5.615   6.195   0.634 -0.4929  0.1191 -0.4633
17778TIP3    H174749   5.624   6.169   0.542 -0.9800 -1.7364  0.0033
17778TIP3    H274750   5.705   6.212   0.662 -0.2097 -0.6248 -0.9068
17779TIP3   OH274751   0.152   6.143   2.119 -0.0731 -0.0004  0.3413
17779TIP3    H174752   0.097   6.073   2.084 -0.8317  0.3174  0.8869
17779TIP3    H274753   0.091   6.214   2.138  0.8647  1.4139 -1.6610
17780TIP3   OH274754   5.639   0.816  16.803 -0.1820  0.0022 -0.0489
17780TIP3    H174755   5.668   0.740  16.854  0.5521  0.3689  0.0833
17780TIP3    H274756   5.643   0.787  16.712 -1.1481 -0.5337  0.0686
17781TIP3   OH274757   3.112   6.287   1.043 -0.2235  0.1112 -0.0904
17781TIP3    H174758   3.120   6.349   1.115  1.9148  0.0356 -0.2335
17781TIP3    H274759   3.191   6.300   0.991  0.4143 -2.9062  0.0364
17782TIP3   OH274760   0.494   4.647   0.897  0.0162  0.4390 -0.2790
17782TIP3    H174761   0.588   4.627   0.905  0.1938 -0.4262 -3.7958
17782TIP3    H274762   0.490   4.719   0.835 -1.6765 -0.0944 -0.8142
17783TIP3   OH274763   0.158   1.519   1.681  0.3392 -0.0353  0.1739
17783TIP3    H174764   0.102   1.441   1.682  0.8528 -0.5032 -2.7778
17783TIP3    H274765   0.247   1.484   1.674  0.5788  0.7877 -1.0576
17784TIP3   OH274766   2.493   5.586   6.163 -0.0070 -0.0258 -0.3318
17784TIP3    H174767   2.507   5.645   6.089 -0.7009 -0.1445 -0.5655
17784TIP3    H274768   2.564   5.606   6.224 -0.6695  1.5964 -0.0570
17785TIP3   OH274769   1.669   2.995   5.299 -0.3967  0.5826  0.0349
17785TIP3    H174770   1.735   3.063   5.282  0.0785  0.6054  1.8117
17785TIP3    H274771   1.589   3.043   5.317 -1.0360  0.5477 -2.4789
17786TIP3   OH274772   5.137   1.652   5.037 -0.2216  0.2000  0.1161
17786TIP3    H174773   5.169   1.636   4.948  0.4311  1.5547  0.0891
17786TIP3    H274774   5.131   1.565   5.077 -3.2245 -0.6676 -2.1451
17787TIP3   OH274775   6.140   3.102   3.423 -0.0433  0.2046  0.8565
17787TIP3    H174776   6.151   3.014   3.461 -0.7771  0.6224  2.0554
17787TIP3    H274777   6.115   3.157   3.498 -0.7046  1.2085 -0.0995
17788TIP3   OH274778   3.415   3.571  15.839  0.5487  0.2329  0.7893
17788TIP3    H174779   3.434   3.664  15.826  1.7811  0.3097  2.9325
17788TIP3    H274780   3.320   3.564  15.827  0.5980  1.5495 -0.5354
17789TIP3   OH274781   5.289   1.873  16.944  0.3544  0.2472  0.2840
17789TIP3    H174782   5.292   1.959  16.903  0.2188 -0.2830 -0.8720
17789TIP3    H274783   5.377   1.838  16.931  0.3670  0.1517  0.6232
17790TIP3   OH274784   6.628   3.353  13.779  0.0912  0.1225 -0.4168
17790TIP3    H174785   6.547   3.374  13.732 -1.6342 -2.8650  1.1464
17790TIP3    H274786   6.613   3.384  13.868  1.2714  0.8518 -0.4526
17791TIP3   OH274787   1.406   0.446   6.066 -0.1105  0.0188  0.3885
17791TIP3    H174788   1.425   0.406   6.151  1.5796 -1.6791 -0.7318
17791TIP3    H274789   1.313   0.429   6.052 -0.2607 -0.2433  1.6152
17792TIP3   OH274790   5.752   1.411   1.496  0.2378  0.0362  0.9932
17792TIP3    H174791   5.804   1.429   1.418 -1.1837 -1.5546 -0.3626
17792TIP3    H274792   5.691   1.485   1.502  0.7613  0.4760  0.9737
17793TIP3   OH274793   3.170   4.195  16.375  0.2363  0.2813  0.4234
17793TIP3    H174794   3.258   4.167  16.400  0.1054  0.8139  1.5171
17793TIP3    H274795   3.181   4.239  16.291  1.1495  1.0755  0.9502
17794TIP3   OH274796   4.315   0.799  15.030  0.1114 -0.1056  0.0333
17794TIP3    H174797   4.335   0.849  14.951 -0.9066 -0.5893 -0.5325
17794TIP3    H274798   4.384   0.733  15.034 -1.8935 -2.4438 -2.4956
17795TIP3   OH274799   0.765   3.417  14.082  0.5721  0.1710  0.6003
17795TIP3    H174800   0.727   3.330  14.086  0.7725  0.0815  0.5647
17795TIP3    H274801   0.702   3.473  14.128  0.1792  0.1042  0.1501
17796TIP3   OH274802   1.699   6.783  16.054  0.3591 -0.0510  0.5045
17796TIP3    H174803   1.720   6.800  15.962 -1.5642  0.0413  0.0616
17796TIP3    H274804   1.783   6.763  16.095  1.5623  2.1449 -0.7885
17797TIP3   OH274805   1.923   4.209   4.248 -0.1264 -0.3597 -0.4018
17797TIP3    H174806   1.905   4.119   4.277  0.4682 -0.4239 -0.2241
17797TIP3    H274807   1.891   4.212   4.158 -1.4005 -0.3469  0.0436
17798TIP3   OH274808   0.843   5.259   4.386 -0.2348 -0.5130 -0.0782
17798TIP3    H174809   0.754   5.280   4.357 -0.5024 -1.2673  0.1719
17798TIP3    H274810   0.893   5.338   4.370 -0.9942 -0.0233 -0.0656
17799TIP3   OH274811   0.535   1.047  15.452  0.4051  0.4017 -0.2239
17799TIP3    H174812   0.517   1.021  15.361 -0.7524 -1.3085  0.4563
17799TIP3    H274813   0.631   1.047  15.458  0.4975  0.8720 -1.5426
17800TIP3   OH274814   5.384   2.440  15.454 -0.0052 -0.4037  0.2494
17800TIP3    H174815   5.434   2.473  15.379  1.5392 -0.8358  1.0648
17800TIP3    H274816   5.435   2.466  15.530 -1.0180 -0.8965  1.1103
17801TIP3   OH274817   3.134   1.645  17.162  0.2001 -0.0105 -0.1810
17801TIP3    H174818   3.193   1.643  17.238  1.0419  1.7664 -0.7648
17801TIP3    H274819   3.127   1.738  17.140 -0.3506 -0.4805 -2.0442
17802TIP3   OH274820   4.398   4.647   4.276 -0.4738  0.1789 -0.4086
17802TIP3    H174821   4.485   4.681   4.257 -1.7931  2.7605 -2.1623
17802TIP3    H274822   4.402   4.554   4.252  1.6961  0.3286 -0.6860
17803TIP3   OH274823   3.843   2.950  14.582  0.1538 -0.0438 -0.1447
17803TIP3    H174824   3.861   3.024  14.524  1.2513  0.6653  1.0627
17803TIP3    H274825   3.859   2.985  14.670 -0.8495 -1.2781  0.5410
17804TIP3   OH274826   5.980   0.026   3.377 -0.2830 -0.3932 -0.0363
17804TIP3    H174827   5.995  -0.030   3.301 -0.5026  0.4845 -0.7415
17804TIP3    H274828   5.887   0.049   3.371 -0.5808 -1.2423  1.1458
17805TIP3   OH274829   4.502   6.105  14.968  0.4762 -0.3303  0.1565
17805TIP3    H174830   4.595   6.089  14.955  0.5652  0.9549 -0.9750
17805TIP3    H274831   4.471   6.137  14.883 -1.1505 -1.4254  0.3192
17806TIP3   OH274832   4.391   4.442   6.195  0.7830 -0.1254 -0.1724
17806TIP3    H174833   4.296   4.456   6.202  0.3319 -1.3868 -2.8087
17806TIP3    H274834   4.413   4.392   6.273 -1.0670 -1.2694 -0.3370
17807TIP3   OH274835   1.211   3.484  14.119  0.5343 -1.0222 -0.1255
17807TIP3    H174836   1.182   3.453  14.034  1.6670 -2.6346  0.0419
17807TIP3    H274837   1.169   3.569  14.130 -0.2882 -1.1832 -1.9146
17808TIP3   OH274838   3.139   2.285   3.573  0.3241 -0.3339  0.0615
17808TIP3    H174839   3.187   2.224   3.517  1.8065  1.1123 -0.2501
17808TIP3    H274840   3.137   2.367   3.524 -2.6005 -0.3594 -0.0002
17809TIP3   OH274841   2.404   4.262  13.006  0.0184  0.4107 -0.2371
17809TIP3    H174842   2.372   4.183  13.050  0.0725  0.2371 -0.5129
17809TIP3    H274843   2.498   4.262  13.021  0.0444  0.3227 -0.4015
17810TIP3   OH274844   3.626   6.473  12.822  0.0314 -0.0472  0.5867
17810TIP3    H174845   3.601   6.527  12.747  1.4703 -0.5542 -0.2562
17810TIP3    H274846   3.610   6.529  12.898 -3.2444 -0.1820  0.0675
17811TIP3   OH274847   0.842   5.652  15.730  0.2795  0.3879  0.2141
17811TIP3    H174848   0.795   5.675  15.810  1.1169  1.0651  0.5231
17811TIP3    H274849   0.781   5.598  15.680 -1.3256  2.3250  0.0131
17812TIP3   OH274850   2.046   2.465   1.841  0.0825  0.0965 -1.1480
17812TIP3    H174851   1.974   2.421   1.796 -1.1067  2.3828 -1.5875
17812TIP3    H274852   2.047   2.427   1.928 -2.1407  0.5165 -0.9090
17813TIP3   OH274853   3.503   1.193  11.782 -0.2760  0.2270  0.0798
17813TIP3    H174854   3.552   1.275  11.774 -0.2228  0.1809 -0.0685
17813TIP3    H274855   3.444   1.207  11.856  0.7246 -0.1085  0.9558
17814TIP3   OH274856   1.005   5.704   3.417  0.2358  0.0910  0.1811
17814TIP3    H174857   1.036   5.775   3.362 -1.5229  0.5406 -0.2698
17814TIP3    H274858   0.922   5.677   3.377  1.2375 -2.7290 -0.1223
17815TIP3   OH274859   1.977   1.341   4.346  0.5660 -0.0836  0.5372
17815TIP3    H174860   1.932   1.348   4.261  0.8934 -0.9176  0.2854
17815TIP3    H274861   1.965   1.426   4.387  0.4885  0.3601 -0.3947
17816TIP3   OH274862   2.096   2.481  15.926 -0.1940  1.1072  0.5840
17816TIP3    H174863   2.179   2.433  15.930 -0.3240  0.8924  0.6860
17816TIP3    H274864   2.053   2.462  16.009 -0.4241  1.0755  0.4604
17817TIP3   OH274865   0.350   1.089   4.318 -0.0774  0.5922 -0.0226
17817TIP3    H174866   0.393   1.004   4.322 -0.5953  0.2810 -0.7899
17817TIP3    H274867   0.376   1.133   4.398  0.0114 -0.3810  0.4937
17818TIP3   OH274868   0.604   4.195  13.998  0.3399 -0.1476  0.3075
17818TIP3    H174869   0.651   4.144  14.063  3.2851 -0.6396 -2.1099
17818TIP3    H274870   0.568   4.130  13.938  0.2341  0.4230 -0.2524
17819TIP3   OH274871   2.924   3.189  13.184  0.3121 -0.0558  0.3016
17819TIP3    H174872   2.863   3.171  13.256 -0.4433 -2.0315 -0.7921
17819TIP3    H274873   2.919   3.284  13.171 -0.1315  0.2090  2.3326
17820TIP3   OH274874   0.705   4.775  17.181 -0.0363  0.5498 -0.2661
17820TIP3    H174875   0.616   4.756  17.211 -0.2148  2.8181  0.7173
17820TIP3    H274876   0.752   4.799  17.260  0.5320  2.7356 -1.2482
17821TIP3   OH274877   3.151   4.076  11.086  0.4648 -0.2153  0.2918
17821TIP3    H174878   3.235   4.082  11.131  0.2096 -2.2519  1.1173
17821TIP3    H274879   3.086   4.075  11.156 -0.1292 -0.4874 -0.2501
17822TIP3   OH274880   5.306   0.779  15.830  0.0645 -0.0826  0.1586
17822TIP3    H174881   5.324   0.873  15.824  0.1470 -0.0067  1.4172
17822TIP3    H274882   5.211   0.772  15.817  0.2565  0.0195 -1.3934
17823TIP3   OH274883   0.352   4.384   4.394 -0.6610  0.6391  0.4044
17823TIP3    H174884   0.305   4.349   4.318  1.3895  0.4521 -0.8045
17823TIP3    H274885   0.420   4.320   4.412  0.2115  1.7403  1.0883
17824TIP3   OH274886   2.141   0.241  11.353  0.2382 -0.6028  0.3307
17824TIP3    H174887   2.109   0.304  11.289  0.1121 -0.3393  0.6515
17824TIP3    H274888   2.135   0.156  11.309  0.4627 -0.3842 -0.1184
17825TIP3   OH274889   3.530   3.269  17.181 -0.1622 -0.4411 -0.2961
17825TIP3    H174890   3.534   3.323  17.260  1.0084  1.3626 -1.5511
17825TIP3    H274891   3.617   3.231  17.173 -0.1877 -0.3842 -0.8828
17826TIP3   OH274892   6.576   6.540  16.927 -0.1602 -0.1930 -0.0029
17826TIP3    H174893   6.647   6.585  16.883 -1.0828  1.8322  0.5235
17826TIP3    H274894   6.602   6.448  16.928  1.0190  0.0894 -2.5138
17827TIP3   OH274895   0.923   5.635  10.879  0.1226  0.5687 -0.2878
17827TIP3    H174896   0.998   5.675  10.923  1.4442  0.3846 -2.3493
17827TIP3    H274897   0.918   5.679  10.794 -1.4484 -0.1922 -0.6138
17828TIP3   OH274898   0.560   4.383   5.862 -0.2127  0.2464 -0.3008
17828TIP3    H174899   0.573   4.335   5.944  0.2987  0.4335 -0.2721
17828TIP3    H274900   0.489   4.336   5.818 -2.4699  1.8570  1.5454
17829TIP3   OH274901   2.718   2.765  13.217  0.0858 -0.5601  0.2293
17829TIP3    H174902   2.775   2.786  13.290  1.2692  2.2034 -1.4152
17829TIP3    H274903   2.630   2.788  13.248  0.3156 -1.2619  1.4347
17830TIP3   OH274904   4.577   4.675   3.963 -0.3052  0.3078  0.2439
17830TIP3    H174905   4.591   4.645   3.873 -1.7751  1.2574 -0.3208
17830TIP3    H274906   4.555   4.767   3.954 -0.3538  0.4359  1.6009
17831TIP3   OH274907   4.812   1.534   2.502 -0.2163 -0.1409  0.2816
17831TIP3    H174908   4.763   1.598   2.450  1.7643  0.6664 -0.6451
17831TIP3    H274909   4.878   1.586   2.547  1.7448 -1.5653 -0.8765
17832TIP3   OH274910   2.170   2.991   0.411 -0.2937 -0.5283 -0.6352
17832TIP3    H174911   2.164   2.941   0.330  0.5456 -2.4414  0.4592
17832TIP3    H274912   2.082   2.987   0.449 -0.6989  0.4060 -1.4396
17833TIP3   OH274913   0.910   0.222  11.352 -0.5134 -0.2891 -0.6170
17833TIP3    H174914   0.828   0.172  11.349 -1.2752  0.8600  0.6282
17833TIP3    H274915   0.962   0.177  11.419 -1.3064  0.7021  0.6980
17834TIP3   OH274916   0.661   1.729   0.988 -0.4607  0.5463  0.2080
17834TIP3    H174917   0.685   1.688   0.904 -2.2594  1.2262 -0.6525
17834TIP3    H274918   0.745   1.739   1.034  0.6614  0.8477 -1.8210
17835TIP3   OH274919   5.369   1.929  15.980 -0.4686 -0.6599  0.2824
17835TIP3    H174920   5.342   1.840  15.957  0.7823 -1.4301  1.7424
17835TIP3    H274921   5.420   1.958  15.904  1.2023 -2.1136  0.8247
17836TIP3   OH274922   1.570   6.650  11.430 -0.7238  0.1500  0.7027
17836TIP3    H174923   1.546   6.572  11.479 -0.1039  0.3394  1.3253
17836TIP3    H274924   1.487   6.694  11.411 -1.0008 -0.1871  1.1451
17837TIP3   OH274925   2.928   5.519   3.699  0.3214  0.0918  0.1675
17837TIP3    H174926   2.880   5.442   3.731  0.5252 -0.0076  0.2340
17837TIP3    H274927   2.891   5.592   3.749 -0.4323  0.1500 -0.4617
17838TIP3   OH274928   3.711   3.967  12.501 -0.3952  0.1538 -0.5080
17838TIP3    H174929   3.783   3.995  12.557 -0.9523 -1.9341  1.2922
17838TIP3    H274930   3.644   3.935  12.561 -2.2311  0.6349 -2.2279
17839TIP3   OH274931   6.083   1.162  14.718 -0.2693 -0.3425 -0.5281
17839TIP3    H174932   6.071   1.212  14.798 -1.2101 -1.9546  0.3648
17839TIP3    H274933   6.001   1.175  14.669 -0.7167 -1.3767 -0.0699
17840TIP3   OH274934   2.852   0.325  13.210 -0.3060  0.0095  0.5461
17840TIP3    H174935   2.804   0.383  13.151  0.4646 -0.5251 -0.6344
17840TIP3    H274936   2.821   0.348  13.297 -0.5118  1.7260  0.0372
17841TIP3   OH274937   2.677   5.193  14.624 -0.0414 -0.3782  0.5520
17841TIP3    H174938   2.687   5.127  14.692  0.9285 -1.3268 -0.4809
17841TIP3    H274939   2.734   5.265  14.651  0.5922 -0.8891  0.5779
17842TIP3   OH274940   4.060   1.713  11.892  0.3655 -0.6585  0.2458
17842TIP3    H174941   4.006   1.791  11.875 -0.4735 -1.0129  1.2300
17842TIP3    H274942   4.046   1.657  11.816  0.4867 -0.1228 -0.1774
17843TIP3   OH274943   0.740   2.324   3.810 -0.0439  0.1671 -0.4406
17843TIP3    H174944   0.795   2.255   3.772 -2.7915 -1.8400 -0.8403
17843TIP3    H274945   0.738   2.305   3.903 -1.4232 -0.7674 -0.6518
17844TIP3   OH274946   5.686   5.952  13.915  0.2825 -0.2080 -0.3861
17844TIP3    H174947   5.647   5.991  13.836  1.3288  0.3700 -0.6223
17844TIP3    H274948   5.648   6.001  13.987 -0.7653 -0.8105 -0.5182
17845TIP3   OH274949   3.600   4.863  11.299  0.3887 -0.6966  0.3574
17845TIP3    H174950   3.559   4.911  11.227 -0.8813 -0.0043  1.5159
17845TIP3    H274951   3.586   4.771  11.278 -0.4410 -0.4852 -0.0179
17846TIP3   OH274952   4.643   4.633  15.888  0.0454  0.2969 -0.1607
17846TIP3    H174953   4.698   4.697  15.933 -0.0819 -0.4290  1.0463
17846TIP3    H274954   4.701   4.559  15.870 -0.1950  0.0985 -0.1281
17847TIP3   OH274955   1.386   4.064  12.424 -0.1929  0.3698  0.2631
17847TIP3    H174956   1.426   4.096  12.343 -0.3586 -3.5784 -1.5022
17847TIP3    H274957   1.461   4.039  12.479 -0.0728 -1.6665 -0.7599
17848TIP3   OH274958   1.653   1.280   4.615  0.2642 -0.2091  0.6601
17848TIP3    H174959   1.617   1.341   4.551 -0.3970 -0.6161  0.6420
17848TIP3    H274960   1.699   1.214   4.563  0.5226 -0.0214  0.6509
17849TIP3   OH274961   1.297   1.827  12.366 -0.0859 -0.4520  0.5595
17849TIP3    H174962   1.215   1.861  12.332  1.3315  0.9733 -1.5335
17849TIP3    H274963   1.284   1.732  12.372 -2.5384 -0.0540  2.2150
17850TIP3   OH274964   2.863   4.369  14.242 -0.3719 -0.2153  0.1841
17850TIP3    H174965   2.838   4.290  14.291  2.0239 -0.4718  1.0734
17850TIP3    H274966   2.789   4.386  14.185 -2.4503 -1.0533  2.5355
17851TIP3   OH274967   2.849   6.146   5.145  0.1954  0.3410 -0.1687
17851TIP3    H174968   2.835   6.176   5.235 -1.7187 -4.0221  1.1504
17851TIP3    H274969   2.766   6.162   5.102 -0.0542 -0.8042 -0.1231
17852TIP3   OH274970   6.303   2.873   0.576  0.5148  0.1024  0.3701
17852TIP3    H174971   6.285   2.866   0.670 -0.1616  0.2952  0.2534
17852TIP3    H274972   6.394   2.844   0.567  1.0824  1.5474  1.2947
17853TIP3   OH274973   2.450   0.777  16.898 -0.8450  0.7777  0.1596
17853TIP3    H174974   2.423   0.705  16.841 -0.1876  1.6291 -1.2331
17853TIP3    H274975   2.426   0.857  16.851 -1.6381  1.4849  1.7225
17854TIP3   OH274976   2.627   5.329   1.247  0.0101 -0.4959 -0.0047
17854TIP3    H174977   2.651   5.240   1.219  0.9226 -0.3466  0.2694
17854TIP3    H274978   2.542   5.345   1.206  0.0128 -1.3559 -0.3613
17855TIP3   OH274979   2.998   6.480   4.990 -0.4107  0.1046 -0.0773
17855TIP3    H174980   2.933   6.430   4.940 -1.4541 -0.0785  1.4427
17855TIP3    H274981   3.030   6.419   5.056 -0.1263  0.7793  0.4131
17856TIP3   OH274982   2.213   6.147  16.648 -1.0131 -0.0844  0.1375
17856TIP3    H174983   2.231   6.216  16.712 -2.6524  0.9236 -0.4527
17856TIP3    H274984   2.176   6.075  16.700 -0.0324 -0.2457  0.6410
17857TIP3   OH274985   6.726   0.994   0.106  0.3325 -0.2594  0.1008
17857TIP3    H174986   6.719   0.923   0.170  1.4925 -0.0944  0.4143
17857TIP3    H274987   6.661   0.971   0.039 -0.6539 -0.6103  1.1455
17858TIP3   OH274988   1.455   4.176  13.385 -0.0219  0.3013 -0.3310
17858TIP3    H174989   1.479   4.094  13.428  0.8141  1.5450  1.6575
17858TIP3    H274990   1.537   4.205  13.343 -0.1164  0.4960 -0.3816
17859TIP3   OH274991   6.501   3.087   0.694  0.4938 -0.1088 -0.1416
17859TIP3    H174992   6.538   3.139   0.765 -2.3462  1.2860  0.4072
17859TIP3    H274993   6.447   3.150   0.644 -0.8784 -1.9498 -1.0373
17860TIP3   OH274994   1.426   5.031   4.128  0.0602  0.4678 -0.2490
17860TIP3    H174995   1.339   5.039   4.088  0.4371  0.6219 -1.0537
17860TIP3    H274996   1.466   5.117   4.114  0.7680  0.0419 -0.8991
17861TIP3   OH274997   5.680   2.875   2.098  0.6431 -0.2216  0.1641
17861TIP3    H174998   5.590   2.906   2.096  1.4686  2.4171  1.2556
17861TIP3    H274999   5.709   2.878   2.006  0.4995  1.7136  0.1690
17862TIP3   OH275000   5.203   3.303  14.659 -0.3754 -0.2017  0.3038
17862TIP3    H175001   5.237   3.222  14.697 -1.0435  0.3192  2.0629
17862TIP3    H275002   5.260   3.320  14.584  0.4378 -1.7224  0.5600
17863TIP3   OH275003   1.691   4.738   5.551 -0.1857  0.0211  0.2162
17863TIP3    H175004   1.762   4.788   5.591 -0.5681  0.6918  0.0524
17863TIP3    H275005   1.611   4.774   5.589 -0.4471 -0.6902  0.3504
17864TIP3   OH275006   6.015   2.836   2.437  0.7396 -0.2286  0.0685
17864TIP3    H175007   6.053   2.816   2.522  0.7606 -0.5347 -0.0087
17864TIP3    H275008   5.965   2.916   2.450 -1.0274 -1.4154  0.8990
17865TIP3   OH275009   3.480   0.309   1.930  0.5500  0.0446 -0.4154
17865TIP3    H175010   3.516   0.396   1.920  0.6790 -0.0648 -0.9104
17865TIP3    H275011   3.388   0.323   1.954 -0.0466  0.3192 -2.7538
17866TIP3   OH275012   3.229   2.170  16.214 -0.2293 -0.0625 -0.0444
17866TIP3    H175013   3.197   2.256  16.241 -0.5495  0.5746 -2.3052
17866TIP3    H275014   3.163   2.108  16.247 -0.5118  0.6588  0.7528
17867TIP3   OH275015   4.422   2.126  16.517  0.5981 -0.0382 -0.2367
17867TIP3    H175016   4.376   2.192  16.569 -1.8878 -1.2248 -0.8939
17867TIP3    H275017   4.434   2.167  16.431  0.1145 -0.0132 -0.2897
17868TIP3   OH275018   6.015   2.521  17.091 -0.3219  0.0426  0.2752
17868TIP3    H175019   6.009   2.616  17.089  0.4740  0.0894 -0.5966
17868TIP3    H275020   5.975   2.493  17.008  1.1096 -0.2656 -0.3245
17869TIP3   OH275021   2.389   5.605  16.990 -0.4028  0.0743 -0.6170
17869TIP3    H175022   2.431   5.684  17.023  0.2437 -0.0664 -1.0894
17869TIP3    H275023   2.300   5.632  16.970 -0.5336  0.3807  0.3736
17870TIP3   OH275024   0.222   0.195   2.940  0.1531  0.3646 -0.5035
17870TIP3    H175025   0.230   0.270   2.882  3.4470  0.7678  0.3579
17870TIP3    H275026   0.292   0.135   2.912  0.7380 -0.1714  1.9395
17871TIP3   OH275027   2.809   0.506   4.134  0.3473 -0.3173 -0.6889
17871TIP3    H175028   2.786   0.493   4.226  2.1356  2.2318  0.1879
17871TIP3    H275029   2.840   0.420   4.105 -1.5127 -1.4799  0.6731
17872TIP3   OH275030   0.344   1.805   5.323 -0.3414  0.2359 -0.1817
17872TIP3    H175031   0.376   1.764   5.242 -0.2571 -0.1288  0.0341
17872TIP3    H275032   0.392   1.760   5.393 -1.6897 -0.6529  0.1832
17873TIP3   OH275033   3.395   2.120   2.719 -0.2128 -0.3686 -0.0841
17873TIP3    H175034   3.348   2.068   2.784 -0.4948 -1.1821 -0.9306
17873TIP3    H275035   3.331   2.186   2.692 -0.1194 -0.0750  0.4060
17874TIP3   OH275036   5.592   0.449   3.838 -0.2504 -0.0478 -0.4890
17874TIP3    H175037   5.616   0.513   3.771  0.4687 -0.9834 -1.1341
17874TIP3    H275038   5.501   0.471   3.860 -0.2921  0.6553 -1.3295
17875TIP3   OH275039   0.046   0.513   0.366 -0.4853  0.0974  0.1694
17875TIP3    H175040   0.040   0.418   0.354  1.1776 -0.0178  0.1475
17875TIP3    H275041   0.104   0.542   0.296 -1.8601  1.2821 -0.4883
17876TIP3   OH275042   2.228   2.942  15.643  0.2996 -0.2248 -0.0395
17876TIP3    H175043   2.293   2.949  15.713  0.3209  2.3009 -0.2677
17876TIP3    H275044   2.264   2.996  15.572 -0.5648 -1.3379 -1.3529
17877TIP3   OH275045   4.628   1.621  14.196  0.1733  0.6072  0.6235
17877TIP3    H175046   4.638   1.568  14.116 -0.5089  1.1639  0.1578
17877TIP3    H275047   4.715   1.621  14.236 -0.0299 -1.6508  1.1261
17878TIP3   OH275048   5.854   5.194  11.343 -0.1155  0.2623 -0.3398
17878TIP3    H175049   5.779   5.194  11.402 -0.0075 -1.1765 -0.1903
17878TIP3    H275050   5.851   5.109  11.300 -0.0934  1.2114 -2.3029
17879TIP3   OH275051   2.566   4.971   4.060 -0.3870  0.1843  0.0962
17879TIP3    H175052   2.514   5.013   3.992  0.0078  0.5868  0.0356
17879TIP3    H275053   2.655   5.005   4.047  0.1768 -1.5127 -0.6395
17880TIP3   OH275054   1.075   2.954  12.777  0.1729 -0.0791  0.3576
17880TIP3    H175055   1.017   2.982  12.706 -0.1774  1.0949  1.1051
17880TIP3    H275056   1.141   2.899  12.733 -1.1220 -0.9006 -0.5835
17881TIP3   OH275057   0.791   3.137  12.861 -0.2385  0.5041  0.1092
17881TIP3    H175058   0.813   3.228  12.840 -1.2639  1.1544  1.7024
17881TIP3    H275059   0.864   3.106  12.915 -0.8065  1.0377  1.2066
17882TIP3   OH275060   4.827   5.594  14.699 -0.2305  0.0795 -0.2806
17882TIP3    H175061   4.804   5.518  14.645  1.6203  0.3639 -1.4712
17882TIP3    H275062   4.895   5.561  14.758  0.5996  0.8122 -0.8211
17883TIP3   OH275063   2.146   3.104  15.112  0.4929  0.3619 -0.0725
17883TIP3    H175064   2.184   3.193  15.110 -0.3148  0.7352  0.7476
17883TIP3    H275065   2.138   3.079  15.020  0.1935  1.3735 -0.3283
17884TIP3   OH275066   5.625   4.623  12.381 -0.6378  0.1704 -0.3154
17884TIP3    H175067   5.619   4.677  12.460 -0.5844 -0.9944  0.4965
17884TIP3    H275068   5.690   4.668  12.327  0.5821  0.0647  1.0315
17885TIP3   OH275069   1.068   2.770  16.101 -0.4954  0.0715 -0.1150
17885TIP3    H175070   1.082   2.835  16.169 -0.4267  0.1482 -0.2027
17885TIP3    H275071   0.985   2.728  16.125  0.0503 -0.6213  0.5846
17886TIP3   OH275072   3.645   2.153  13.835  0.1761  0.1088 -0.3779
17886TIP3    H175073   3.635   2.222  13.901 -0.1777 -0.3097  0.0127
17886TIP3    H275074   3.569   2.165  13.777  0.0740 -0.0027 -0.2657
17887TIP3   OH275075   4.103   5.410   4.005  0.2324 -0.1009  0.3748
17887TIP3    H175076   4.151   5.492   3.998  0.5096 -0.1371  1.6478
17887TIP3    H275077   4.067   5.411   4.094  0.5771 -1.5307  0.5500
17888TIP3   OH275078   6.127   6.639   4.057  0.7691  0.6286  0.2395
17888TIP3    H175079   6.188   6.709   4.080 -1.1015  2.1420  0.6687
17888TIP3    H275080   6.066   6.679   3.997 -1.0038 -0.3178  1.3731
17889TIP3   OH275081   0.707   5.578   0.933 -0.3497 -0.5484  0.1895
17889TIP3    H175082   0.736   5.610   1.019 -0.6630  0.1843  0.0288
17889TIP3    H275083   0.685   5.658   0.885  1.1581 -0.8595 -1.0682
17890TIP3   OH275084   4.363   5.904  17.052  0.0234 -0.0022  0.8332
17890TIP3    H175085   4.381   5.997  17.036  0.5397 -0.1959  0.2602
17890TIP3    H275086   4.448   5.867  17.075 -0.2095 -0.3080  1.1955
17891TIP3   OH275087   5.063   2.188  12.110  0.1633  0.0970 -1.0187
17891TIP3    H175088   5.112   2.246  12.168 -1.9215  0.3130  0.6135
17891TIP3    H275089   5.120   2.175  12.034  2.7331  0.2424  0.8378
17892TIP3   OH275090   0.471   5.325   5.444  0.2511 -0.0487 -0.2533
17892TIP3    H175091   0.478   5.242   5.492  1.7319 -0.2591 -0.7907
17892TIP3    H275092   0.456   5.299   5.353 -0.1045  0.2945 -0.2946
17893TIP3   OH275093   5.874   5.494   2.493  0.3697 -0.4138  0.3584
17893TIP3    H175094   5.787   5.455   2.497 -0.5009  1.4754  0.2083
17893TIP3    H275095   5.878   5.536   2.406  1.2480 -0.0888  0.5466
17894TIP3   OH275096   3.377   0.917   5.980  0.1302  0.1365  0.4458
17894TIP3    H175097   3.390   0.824   5.999 -1.4604  0.3948  2.9364
17894TIP3    H275098   3.403   0.962   6.060 -2.0733  1.6048  0.3809
17895TIP3   OH275099   4.467   4.003  14.494  0.1980 -0.2566 -0.8983
17895TIP3    H175100   4.399   3.937  14.505 -1.1943  1.0678 -1.4199
17895TIP3    H275101   4.423   4.086  14.512  1.8637  0.5560 -0.5031
17896TIP3   OH275102   1.058   4.816   5.174  0.1060 -0.1474  0.0579
17896TIP3    H175103   1.099   4.894   5.213 -1.0072  0.0440  0.8787
17896TIP3    H275104   0.973   4.810   5.217 -0.4171 -0.9803 -1.0696
17897TIP3   OH275105   1.569   5.978   0.257 -0.2859 -0.2249 -0.0669
17897TIP3    H175106   1.664   5.969   0.250 -0.3874 -1.4214 -0.0329
17897TIP3    H275107   1.535   5.929   0.183 -0.9546 -2.5034  1.6922
17898TIP3   OH275108   3.953   1.088   5.281  0.3037  0.0319 -0.1874
17898TIP3    H175109   3.956   1.181   5.302 -0.5653  0.0440 -0.1262
17898TIP3    H275110   3.890   1.081   5.209  0.2274 -0.5319 -0.0709
17899TIP3   OH275111   6.116   4.322  13.129  0.4694 -0.4172  0.5666
17899TIP3    H175112   6.051   4.301  13.062  0.2022  0.2963  0.6067
17899TIP3    H275113   6.177   4.382  13.086  1.1840 -1.1930  0.4837
17900TIP3   OH275114   1.442   2.624   5.587 -0.0952 -0.4873 -0.1542
17900TIP3    H175115   1.414   2.715   5.575 -1.7927 -0.9507  0.1136
17900TIP3    H275116   1.460   2.593   5.498 -1.0649 -0.3638 -0.3994
17901TIP3   OH275117   0.517   4.242  15.722 -0.6104 -0.5135  0.2122
17901TIP3    H175118   0.506   4.325  15.768 -3.2911 -0.9775  0.4864
17901TIP3    H275119   0.604   4.248  15.683 -0.3873  2.0386  0.9874
17902TIP3   OH275120   1.669   2.180  11.431 -0.2066  1.1407 -0.6198
17902TIP3    H175121   1.720   2.241  11.378  1.6965 -0.3724 -0.6074
17902TIP3    H275122   1.704   2.191  11.520  1.5165 -1.2426 -0.9311
17903TIP3   OH275123   6.028   3.793   4.824  0.4793  0.0092  0.0722
17903TIP3    H175124   6.107   3.792   4.771 -0.6731 -0.2644 -1.6908
17903TIP3    H275125   6.043   3.863   4.888  0.4962  2.8156 -2.8649
17904TIP3   OH275126   3.999   4.578  11.763 -0.3894  0.0468  0.7054
17904TIP3    H175127   4.007   4.648  11.699  1.1675 -0.7591 -0.0252
17904TIP3    H275128   3.915   4.537  11.744 -0.0376 -0.0522 -0.7126
17905TIP3   OH275129   1.456   2.183  11.816  0.0677  0.5044  0.1612
17905TIP3    H175130   1.453   2.275  11.790 -0.6279  0.0269 -1.4571
17905TIP3    H275131   1.435   2.134  11.737  1.2167 -1.0951  0.8062
17906TIP3   OH275132   5.871   5.311  12.909 -0.3126 -0.3078 -0.1498
17906TIP3    H175133   5.833   5.232  12.871  1.4209 -1.7203  1.0116
17906TIP3    H275134   5.902   5.361  12.833  0.4925 -1.7401 -0.7728
17907TIP3   OH275135   6.758   5.537   4.258  0.0451  0.5325  0.3952
17907TIP3    H175136   6.804   5.541   4.174  0.0286  0.5862  0.3884
17907TIP3    H275137   6.760   5.626   4.291 -1.7337  0.9447 -0.5180
17908TIP3   OH275138   3.733   5.028  13.162  0.2266  0.1725 -0.5512
17908TIP3    H175139   3.683   5.009  13.241  1.3284  1.8884  0.5658
17908TIP3    H275140   3.666   5.044  13.095 -0.7137 -2.0188 -0.1823
17909TIP3   OH275141   3.153   6.117  16.962  0.6997  0.3746  0.3446
17909TIP3    H175142   3.187   6.071  16.885 -1.7450 -1.9448  0.5715
17909TIP3    H275143   3.088   6.178  16.927 -1.1781 -1.4268  0.6014
17910TIP3   OH275144   6.411   0.154   0.805 -0.1184 -0.3022 -0.2123
17910TIP3    H175145   6.369   0.069   0.817  3.4970 -1.9681  1.2564
17910TIP3    H275146   6.375   0.187   0.723 -1.4840 -3.3140 -0.8878
17911TIP3   OH275147   6.718   6.703   3.879 -0.0489 -0.0133 -0.1324
17911TIP3    H175148   6.706   6.632   3.816 -0.8060  0.1564 -0.1876
17911TIP3    H275149   6.734   6.781   3.826 -0.2629  0.0500 -0.1060
17912TIP3   OH275150   3.603   4.214  16.699 -0.7126 -0.8420  0.7264
17912TIP3    H175151   3.547   4.166  16.638  0.1152 -0.8024 -0.0636
17912TIP3    H275152   3.661   4.147  16.736 -0.7208 -0.7418  0.9261
17913TIP3   OH275153   5.225   6.337  13.172  0.2553  0.6342  0.3259
17913TIP3    H175154   5.214   6.324  13.267 -2.4920 -1.8167 -0.2574
17913TIP3    H275155   5.283   6.266  13.145 -2.8881 -1.7132 -0.5317
17914TIP3   OH275156   3.251   5.086  14.937  0.0440 -0.2475 -0.0814
17914TIP3    H175157   3.284   5.146  15.004 -0.4400  0.6215 -0.6072
17914TIP3    H275158   3.245   5.140  14.858 -0.7685 -0.8948 -0.4672
17915TIP3   OH275159   5.772   2.752   4.396 -0.6843  0.1840  0.6354
17915TIP3    H175160   5.727   2.740   4.479 -0.2008  0.3151  0.9172
17915TIP3    H275161   5.830   2.827   4.410 -0.5525  0.1656  0.2030
17916TIP3   OH275162   6.414   6.236   4.591  0.0891  0.5117  0.3341
17916TIP3    H175163   6.400   6.320   4.635 -0.4614  0.3496  0.4701
17916TIP3    H275164   6.504   6.240   4.559 -0.6122  2.0301 -1.5516
17917TIP3   OH275165   2.688   2.128   0.999 -0.1380  0.6561  0.1370
17917TIP3    H175166   2.782   2.137   1.014  0.1617 -1.4205 -0.3018
17917TIP3    H275167   2.652   2.107   1.085  0.0503 -0.2304  0.0072
17918TIP3   OH275168   3.961   2.554   2.627  0.0225  0.5250 -0.4914
17918TIP3    H175169   3.989   2.482   2.571 -2.6916 -0.9594 -0.0810
17918TIP3    H275170   4.025   2.556   2.698  0.5738 -0.9891 -0.9320
17919TIP3   OH275171   0.452   1.997   1.721  0.2181  0.2508  0.0728
17919TIP3    H175172   0.376   2.051   1.742 -0.1492 -0.0856 -0.3697
17919TIP3    H275173   0.415   1.912   1.698  0.7667 -0.0709  0.3728
17920TIP3   OH275174   0.638   4.980  13.469 -0.0973 -0.0236 -0.2864
17920TIP3    H175175   0.648   5.064  13.424  0.3969 -0.7021 -1.4666
17920TIP3    H275176   0.567   4.936  13.423  0.3577 -0.6912 -0.3636
17921TIP3   OH275177   6.480   1.765  10.677 -0.8157  0.5436 -0.6190
17921TIP3    H175178   6.567   1.779  10.640 -1.1693  1.0101 -1.2901
17921TIP3    H275179   6.488   1.685  10.728  0.1375  0.8566 -0.2665
17922TIP3   OH275180   6.279   5.121   5.594  0.4421  0.0150  0.2042
17922TIP3    H175181   6.282   5.137   5.499 -3.0080  0.1420  0.0590
17922TIP3    H275182   6.225   5.192   5.628 -0.7255 -1.6430  1.8676
17923TIP3   OH275183   2.099   6.178   5.894 -0.5115  0.4048 -0.1893
17923TIP3    H175184   2.037   6.206   5.961 -0.1434 -1.2983  0.8967
17923TIP3    H275185   2.179   6.158   5.942  0.0270 -0.0041 -1.2334
17924TIP3   OH275186   2.732   4.697   1.938  0.5060 -0.0703 -0.6088
17924TIP3    H175187   2.784   4.718   2.015  1.6180 -0.2119 -1.3068
17924TIP3    H275188   2.651   4.747   1.948  0.1603 -0.9769  1.2002
17925TIP3   OH275189   0.687   0.957   4.828  0.4407 -0.1247  0.3488
17925TIP3    H175190   0.717   0.870   4.855 -0.7057 -1.5093 -2.5884
17925TIP3    H275191   0.592   0.947   4.821  0.3922  1.1288 -0.7895
17926TIP3   OH275192   2.845   3.317   1.747 -0.8128 -0.3008  0.4867
17926TIP3    H175193   2.842   3.224   1.727  1.0425  0.0630 -1.6544
17926TIP3    H275194   2.870   3.322   1.839  4.0484 -1.8966 -0.6182
17927TIP3   OH275195   0.496   5.628   3.561  0.2838 -0.3773 -0.3397
17927TIP3    H175196   0.423   5.574   3.589  0.0340 -0.5496 -1.2874
17927TIP3    H275197   0.511   5.688   3.633 -0.0139 -1.1265  0.3599
17928TIP3   OH275198   5.602   0.111   5.629  0.3404  0.4443 -0.5091
17928TIP3    H175199   5.659   0.051   5.679  1.5549  1.1240 -1.0489
17928TIP3    H275200   5.598   0.190   5.682 -1.3944 -0.1611  0.2766
17929TIP3   OH275201   0.039   5.419   2.402  0.0365  0.1296  0.1870
17929TIP3    H175202   0.062   5.422   2.309 -0.8552 -2.2263 -0.1551
17929TIP3    H275203  -0.038   5.475   2.410 -0.1695 -0.0338 -0.5963
17930TIP3   OH275204   3.224   6.445  13.970 -0.1716 -0.4498 -0.2955
17930TIP3    H175205   3.306   6.474  13.931 -0.6519  0.3028 -0.7358
17930TIP3    H275206   3.251   6.399  14.050  0.7405 -1.1010 -0.9665
17931TIP3   OH275207   2.790   2.188   2.843  0.0030  0.0204 -0.9195
17931TIP3    H175208   2.877   2.227   2.848  0.7431 -1.8681  1.7786
17931TIP3    H275209   2.795   2.130   2.767  0.4168  1.4862 -2.0334
17932TIP3   OH275210   4.707   6.736   1.895 -0.6385 -0.6669 -0.8969
17932TIP3    H175211   4.715   6.830   1.914 -1.7075 -0.1781 -2.7642
17932TIP3    H275212   4.757   6.723   1.815  0.9977 -2.0595  0.3230
17933TIP3   OH275213   4.306   2.327  14.838 -0.1430  0.6410 -0.0037
17933TIP3    H175214   4.312   2.412  14.794  2.1128  0.1364 -0.7628
17933TIP3    H275215   4.372   2.332  14.907 -1.6151  0.3406  1.4395
17934TIP3   OH275216   0.262   2.284  15.117 -0.6523 -0.7986 -0.3889
17934TIP3    H175217   0.174   2.306  15.087 -0.8648 -0.1577  0.6726
17934TIP3    H275218   0.319   2.303  15.043 -1.2693 -0.1284 -0.6931
17935TIP3   OH275219   5.734   6.292  13.142 -0.0887 -0.4828 -0.1122
17935TIP3    H175220   5.683   6.372  13.128 -1.4807 -1.2020  0.7342
17935TIP3    H275221   5.768   6.270  13.056 -1.2884 -0.0273 -0.7208
17936TIP3   OH275222   3.203   0.871  15.786 -0.4160  0.1534 -0.4177
17936TIP3    H175223   3.186   0.900  15.875 -1.3581 -1.3684 -0.0864
17936TIP3    H275224   3.275   0.808  15.795 -1.3874 -0.9803 -0.5676
17937TIP3   OH275225   5.844   5.776   5.495 -0.1371 -0.3050  0.7934
17937TIP3    H175226   5.855   5.760   5.401  0.6903 -0.8677  0.9764
17937TIP3    H275227   5.751   5.762   5.511 -0.2835 -0.1923  0.0501
17938TIP3   OH275228   2.619   6.615  12.881 -0.0913  0.6777  0.3823
17938TIP3    H175229   2.626   6.520  12.894 -0.2675  0.8655  1.9834
17938TIP3    H275230   2.657   6.631  12.795  0.9788 -0.7081  0.5841
17939TIP3   OH275231   2.262   5.041   0.259 -0.1102 -0.6628 -0.3749
17939TIP3    H175232   2.295   5.046   0.169 -0.2472  0.5430 -0.3676
17939TIP3    H275233   2.233   4.951   0.269  0.5475 -0.9856 -1.3175
17940TIP3   OH275234   1.205   5.877  13.435  0.1465  0.3918 -0.4728
17940TIP3    H175235   1.118   5.840  13.419 -0.2884  1.0106  0.4080
17940TIP3    H275236   1.263   5.801  13.441 -0.5254 -0.0849  0.0264
17941TIP3   OH275237   5.607   2.611  16.602 -0.3399  0.1688 -0.0064
17941TIP3    H175238   5.683   2.628  16.547 -0.1108  0.8246  0.5150
17941TIP3    H275239   5.565   2.697  16.613 -0.9114 -0.1153  0.0644
17942TIP3   OH275240   1.799   0.621  14.049  0.0280 -0.8008 -0.5753
17942TIP3    H175241   1.856   0.590  14.121 -0.6292 -1.4180 -0.3158
17942TIP3    H275242   1.794   0.715  14.062  3.2413 -0.3311 -2.2246
17943TIP3   OH275243   1.501   4.587   5.323 -0.4708  0.1959  0.3591
17943TIP3    H175244   1.406   4.577   5.329 -0.5002  0.8636  1.1407
17943TIP3    H275245   1.537   4.526   5.387 -0.3424 -0.5096 -0.3781
17944TIP3   OH275246   3.389   3.245   5.480  0.1444  0.1175 -0.8031
17944TIP3    H175247   3.421   3.174   5.424  1.7398  0.5911 -0.5021
17944TIP3    H275248   3.324   3.203   5.536  0.1671 -0.8412 -1.4830
17945TIP3   OH275249   2.697   5.497  13.866  0.3666 -0.1084  0.1958
17945TIP3    H175250   2.720   5.535  13.951  1.6578 -2.1093  0.7706
17945TIP3    H275251   2.682   5.404  13.884 -0.3461 -0.3704 -1.6030
17946TIP3   OH275252   2.997   1.530   0.294  0.4908  0.2335  0.0022
17946TIP3    H175253   2.978   1.441   0.266 -1.3388  1.0362 -1.3537
17946TIP3    H275254   3.069   1.559   0.237  0.9239 -0.2772  0.2865
17947TIP3   OH275255   1.858   1.000  11.387 -0.5604  0.1767 -0.3096
17947TIP3    H175256   1.881   0.953  11.308  0.2531 -2.3968  1.3968
17947TIP3    H275257   1.883   1.091  11.369  3.9815 -1.1515 -1.3284
17948TIP3   OH275258   0.373   0.806   3.712 -0.8424 -0.4563  0.8020
17948TIP3    H175259   0.364   0.901   3.716 -0.9144 -0.4763  1.2008
17948TIP3    H275260   0.287   0.773   3.740 -1.3981 -0.6325 -1.1007
17949TIP3   OH275261   1.665   5.360   0.893 -0.0674 -0.3223  0.8360
17949TIP3    H175262   1.685   5.450   0.918 -1.9009  0.5189 -0.6588
17949TIP3    H275263   1.681   5.310   0.973 -1.0628  1.6295  2.3253
17950TIP3   OH275264   1.672   4.547  13.027 -0.3725  0.0626 -0.0738
17950TIP3    H175265   1.756   4.503  13.020 -0.4136  0.2783 -2.4114
17950TIP3    H275266   1.692   4.632  13.067  0.3597 -0.2824  0.2988
17951TIP3   OH275267   3.436   0.238  11.685  0.3447  0.3210 -0.1289
17951TIP3    H175268   3.505   0.286  11.730  0.1002  1.0083 -0.4826
17951TIP3    H275269   3.355   0.277  11.718  0.1308 -0.1488 -0.0886
17952TIP3   OH275270   5.889   5.187  16.840  0.1606  0.2007  0.1129
17952TIP3    H175271   5.903   5.216  16.750 -0.1310 -0.9496 -0.3175
17952TIP3    H275272   5.798   5.209  16.859  0.3865  0.9557  0.3262
17953TIP3   OH275273   3.454   4.511   0.647  0.5587  0.4282  0.0925
17953TIP3    H175274   3.453   4.580   0.581  0.4366  0.6909  0.3709
17953TIP3    H275275   3.386   4.450   0.619 -1.1280  1.7332  1.2566
17954TIP3   OH275276   1.847   2.234   4.788  0.0247  0.7788  0.1438
17954TIP3    H175277   1.883   2.323   4.783  0.6709  0.4625 -0.9502
17954TIP3    H275278   1.829   2.221   4.881  0.0780  1.9965  0.3336
17955TIP3   OH275279   5.533   4.453  14.191  0.1820 -0.3691 -0.3860
17955TIP3    H175280   5.535   4.361  14.167 -1.5800 -0.5083 -0.0575
17955TIP3    H275281   5.444   4.468  14.224  0.5502  1.3561 -0.0999
17956TIP3   OH275282   4.852   3.587   4.083 -0.2297  0.0881  0.1775
17956TIP3    H175283   4.917   3.524   4.115  0.5997  0.9621  0.2478
17956TIP3    H275284   4.825   3.553   3.998  1.6763  0.6340 -0.6877
17957TIP3   OH275285   4.572   4.114   6.597 -0.2426  0.6525  0.1946
17957TIP3    H175286   4.629   4.039   6.576 -0.9279 -0.0060  0.6471
17957TIP3    H275287   4.632   4.188   6.605  0.3104  0.4444 -1.6386
17958TIP3   OH275288   0.464   0.133  12.542 -0.5741 -0.0387 -0.5455
17958TIP3    H175289   0.516   0.094  12.612 -0.7447 -1.0454 -0.9866
17958TIP3    H275290   0.389   0.173  12.587 -1.3749 -1.8186 -0.2800
17959TIP3   OH275291   2.676   0.770   6.586 -1.0467 -0.1453  1.1577
17959TIP3    H175292   2.658   0.835   6.518  2.6788  1.3048  1.4474
17959TIP3    H275293   2.688   0.688   6.538  2.1210  0.9757 -0.0613
17960TIP3   OH275294   0.325   5.920   1.555 -0.0940  0.2936  0.3481
17960TIP3    H175295   0.366   5.835   1.542 -0.8028 -0.2675  1.6522
17960TIP3    H275296   0.330   5.962   1.470 -0.2556 -1.2912 -0.4679
17961TIP3   OH275297   2.018   5.045   4.938  1.0441 -0.1554 -0.3536
17961TIP3    H175298   1.943   4.998   4.974  0.5539  1.2677  0.5428
17961TIP3    H275299   2.092   4.986   4.951  0.1655 -1.3966 -0.8481
17962TIP3   OH275300   0.115   6.486  14.472 -0.1110 -0.1368  0.6870
17962TIP3    H175301   0.045   6.547  14.446  0.6421  0.4094 -0.0757
17962TIP3    H275302   0.136   6.438  14.392  0.3448 -0.3388  0.9274
17963TIP3   OH275303   3.697   1.895  13.680  1.3961 -0.9041  0.7588
17963TIP3    H175304   3.719   1.984  13.707 -0.6913  0.4899 -1.9410
17963TIP3    H275305   3.642   1.861  13.750  2.4939 -0.2281  1.9717
17964TIP3   OH275306   4.650   6.649  11.286 -0.9215  0.1855 -0.7728
17964TIP3    H175307   4.556   6.641  11.305 -0.3094  0.0739  2.3773
17964TIP3    H275308   4.669   6.577  11.226 -2.6037 -0.4938 -0.5154
17965TIP3   OH275309   5.160   1.206  13.944  0.2739  0.3344 -0.3271
17965TIP3    H175310   5.203   1.125  13.918  0.2701  0.5214 -0.9123
17965TIP3    H275311   5.067   1.190  13.930  0.1457 -0.0615  0.9167
17966TIP3   OH275312   0.342   1.021   6.273  0.1288  0.0896  0.0338
17966TIP3    H175313   0.255   1.003   6.307  0.4371  0.5697  1.1034
17966TIP3    H275314   0.329   1.034   6.179 -0.5919 -2.2861 -0.2358
17967TIP3   OH275315   2.918   3.495  13.297 -0.0237 -0.6141 -0.2427
17967TIP3    H175316   2.917   3.569  13.238  1.3024 -0.1615  0.2807
17967TIP3    H275317   2.882   3.529  13.379  2.5637  0.0732  0.6674
17968TIP3   OH275318   0.822   0.966   4.439  0.5310 -0.5114  0.0733
17968TIP3    H175319   0.860   0.908   4.374  2.6572 -0.2047  1.0019
17968TIP3    H275320   0.820   1.052   4.397 -1.8817 -1.0350 -1.0105
17969TIP3   OH275321   5.533   2.960  12.065  0.4561  0.8350 -0.1564
17969TIP3    H175322   5.611   2.905  12.066 -0.2189 -0.1444 -0.7498
17969TIP3    H275323   5.566   3.049  12.082  1.4967  0.2038  1.2538
17970TIP3   OH275324   5.166   5.068  12.411  0.0030 -0.1431 -0.4838
17970TIP3    H175325   5.091   5.121  12.439 -2.0081 -3.6600  1.0890
17970TIP3    H275326   5.240   5.108  12.457 -1.6738  0.5542  1.7634
17971TIP3   OH275327   3.099   2.286   5.617  0.3680  0.1933 -0.5773
17971TIP3    H175328   3.067   2.198   5.636  3.5173 -0.4928  1.9864
17971TIP3    H275329   3.185   2.273   5.577  0.3513  2.0624 -1.2813
17972TIP3   OH275330   0.071   1.098   2.843 -0.4016  0.1930  0.4571
17972TIP3    H175331   0.162   1.079   2.866 -0.1801 -0.1129 -0.6444
17972TIP3    H275332   0.054   1.046   2.765 -1.7411 -0.2807  1.0327
17973TIP3   OH275333   4.725   3.504  16.585  0.4246  0.4475  0.6549
17973TIP3    H175334   4.763   3.451  16.655 -0.4262  0.2482  0.9730
17973TIP3    H275335   4.786   3.578  16.575  0.7468  0.2771  1.3367
17974TIP3   OH275336   1.178   6.468  12.198  0.0498 -0.2049  0.0664
17974TIP3    H175337   1.255   6.431  12.242  1.8145  2.6561 -0.5117
17974TIP3    H275338   1.197   6.562  12.191 -3.1270  0.4143 -0.8775
17975TIP3   OH275339   0.348   2.289   4.167 -0.8339  0.0154  0.3693
17975TIP3    H175340   0.405   2.248   4.232 -0.8206 -0.1074  0.2794
17975TIP3    H275341   0.392   2.371   4.146 -0.5009 -0.2539  0.0242
17976TIP3   OH275342   0.822   1.097  10.935  0.1503 -0.2959  0.3003
17976TIP3    H175343   0.835   1.003  10.949 -0.9679 -0.8970 -2.4862
17976TIP3    H275344   0.807   1.106  10.841  1.6819  2.8608  0.2947
17977TIP3   OH275345   3.865   4.232   4.780 -0.4384 -0.2668  0.3143
17977TIP3    H175346   3.868   4.298   4.711 -0.4128 -2.0226 -1.3957
17977TIP3    H275347   3.774   4.233   4.811 -0.8706 -0.6812 -0.9402
17978TIP3   OH275348   2.428   5.870  17.128  0.8544  1.1780 -0.1882
17978TIP3    H175349   2.473   5.824  17.199 -0.4052 -1.5483 -1.1330
17978TIP3    H275350   2.336   5.868  17.152  0.4072  0.1779 -1.9128
17979TIP3   OH275351   3.960   6.187  14.047 -0.3771  0.3252  0.5972
17979TIP3    H175352   3.917   6.240  14.114 -0.7655 -2.4465  2.6256
17979TIP3    H275353   3.909   6.106  14.044  3.0288 -1.9685  1.1407
17980TIP3   OH275354   4.361   3.718  13.672 -0.4735  0.1370 -0.0514
17980TIP3    H175355   4.368   3.669  13.590  0.2878 -0.0812  0.1420
17980TIP3    H275356   4.450   3.751  13.688 -1.1776  2.4861 -0.7401
17981TIP3   OH275357   2.484   6.736   5.192 -0.1381  0.0710 -0.6110
17981TIP3    H175358   2.557   6.692   5.149  0.5018  0.6093 -0.0774
17981TIP3    H275359   2.487   6.705   5.282 -0.2473  0.4986 -0.4586
17982TIP3   OH275360   1.880   6.726  11.065  0.5289 -0.1077  0.3525
17982TIP3    H175361   1.844   6.735  10.977 -0.5555 -1.4368  0.6440
17982TIP3    H275362   1.840   6.797  11.114 -0.2020 -0.4046  0.1935
17983TIP3   OH275363   5.698   6.257  15.294 -0.2742  0.0655  0.2041
17983TIP3    H175364   5.693   6.198  15.219 -0.2920 -0.6783  0.7823
17983TIP3    H275365   5.610   6.294  15.302 -0.9898 -1.8127  1.4125
17984TIP3   OH275366   3.686   6.123   0.345  0.3147 -0.1873 -0.7182
17984TIP3    H175367   3.749   6.055   0.370  0.6663 -0.9496 -3.4816
17984TIP3    H275368   3.720   6.158   0.263 -1.7482  0.9132 -1.1400
17985TIP3   OH275369   0.572   2.798  12.771 -0.3536 -0.4126  0.3205
17985TIP3    H175370   0.510   2.784  12.843  0.1805 -0.5538  0.7612
17985TIP3    H275371   0.589   2.892  12.772 -0.5756 -0.3719  0.1896
17986TIP3   OH275372   6.188   4.411   3.460  0.0060 -0.0069  0.3181
17986TIP3    H175373   6.278   4.381   3.478 -0.3299 -1.6721 -0.7224
17986TIP3    H275374   6.137   4.331   3.451 -1.2365  0.9029 -0.9314
17987TIP3   OH275375   0.624   1.991   3.272 -0.1945 -0.0471  0.7357
17987TIP3    H175376   0.620   1.984   3.367  1.5181  0.6678  0.8781
17987TIP3    H275377   0.555   2.053   3.249  0.0494  0.5616  1.6181
17988TIP3   OH275378   5.431   4.047  16.420 -0.0962 -0.3319 -0.6795
17988TIP3    H175379   5.485   3.999  16.357  1.3716 -0.3158  0.5498
17988TIP3    H275380   5.434   3.995  16.500  1.1229  1.5274  0.5247
17989TIP3   OH275381   1.064   4.188   5.265 -0.3959 -0.7185  0.0004
17989TIP3    H175382   0.993   4.155   5.320  1.5571 -1.2708  2.2619
17989TIP3    H275383   1.065   4.129   5.189 -2.1396 -0.8969  0.1046
17990TIP3   OH275384   6.044   6.421  12.738  0.7503  0.5177  0.2844
17990TIP3    H175385   6.014   6.404  12.828 -0.3570 -1.3094 -0.4053
17990TIP3    H275386   5.988   6.366  12.683  1.2503  1.8139 -1.5626
17991TIP3   OH275387   4.391   0.186  12.586 -0.2049  0.6247 -0.1250
17991TIP3    H175388   4.453   0.242  12.540  0.3978  0.6848  0.7425
17991TIP3    H275389   4.412   0.198  12.679 -3.7348  3.2939  0.4291
17992TIP3   OH275390   6.744   1.568  16.848  0.1181  0.2961  0.2962
17992TIP3    H175391   6.778   1.543  16.762  1.1163  1.0772  0.4630
17992TIP3    H275392   6.721   1.485  16.890 -1.8448 -0.0193 -1.3166
17993TIP3   OH275393   1.829   5.917   3.526 -0.0761 -0.2527 -0.3612
17993TIP3    H175394   1.902   5.935   3.467 -0.7392  0.3973 -1.0052
17993TIP3    H275395   1.794   6.004   3.547 -0.4198 -0.5375  0.2480
17994TIP3   OH275396   2.904   5.399   5.409 -0.2499 -0.7102 -0.0541
17994TIP3    H175397   2.861   5.424   5.327 -1.1244 -1.7868  0.0714
17994TIP3    H275398   2.920   5.482   5.454 -2.1349 -0.2817 -0.1349
17995TIP3   OH275399   1.276   3.464  16.983  0.1238 -0.0710  0.1911
17995TIP3    H175400   1.210   3.395  16.975  1.1033 -1.1878  1.5127
17995TIP3    H275401   1.267   3.514  16.902 -1.7490 -0.7204 -0.0375
17996TIP3   OH275402   2.016   0.271  14.042 -0.1135 -0.1249 -0.2927
17996TIP3    H175403   2.016   0.175  14.038 -0.2888 -0.3195  2.9735
17996TIP3    H275404   1.942   0.293  14.099  0.0939  1.9581 -0.7809
17997TIP3   OH275405   1.283   4.689   0.906 -0.7685 -0.3900  0.0836
17997TIP3    H175406   1.268   4.623   0.973  0.3137 -0.6528  0.0762
17997TIP3    H275407   1.344   4.647   0.845 -0.9098  0.2324 -0.4847
17998TIP3   OH275408   4.969   0.546   6.232  0.6143 -0.0978  0.2733
17998TIP3    H175409   4.952   0.548   6.327 -0.6117  0.2141  0.0567
17998TIP3    H275410   4.996   0.635   6.211 -2.3461  0.7399 -0.2207
17999TIP3   OH275411   2.521   6.004   3.365 -0.8206 -0.1607 -0.4827
17999TIP3    H175412   2.611   6.035   3.376 -0.9944  0.7479 -1.4772
17999TIP3    H275413   2.528   5.909   3.372  0.3561 -0.1621 -1.3843
18000TIP3   OH275414   1.109   0.065   4.998 -0.3311  0.4921 -0.7621
18000TIP3    H175415   1.111   0.068   4.902 -0.4245  1.4326 -0.7412
18000TIP3    H275416   1.194   0.100   5.024  0.6677 -2.0148 -0.5262
18001TIP3   OH275417   0.403   0.950   0.677  0.1836 -0.3161  0.6256
18001TIP3    H175418   0.490   0.912   0.662 -0.0786 -0.9969  0.7849
18001TIP3    H275419   0.378   0.985   0.591  0.8683  0.4381  0.7221
18002TIP3   OH275420   2.773   5.223  14.337  0.2272  0.1429  0.2469
18002TIP3    H175421   2.867   5.210  14.345  0.1293 -0.0484  1.1159
18002TIP3    H275422   2.740   5.218  14.426 -0.6309  0.0399 -0.0677
18003TIP3   OH275423   3.865   2.159  15.537  0.6760 -0.3590  0.1708
18003TIP3    H175424   3.880   2.064  15.542 -0.2453 -0.4196  1.9188
18003TIP3    H275425   3.913   2.195  15.611  1.7478  0.6504 -1.0045
18004TIP3   OH275426   4.712   5.934   5.811 -0.8050 -0.2222 -0.2640
18004TIP3    H175427   4.622   5.923   5.782 -1.5649  0.8876  1.5833
18004TIP3    H275428   4.760   5.865   5.765 -1.8751  1.4665 -4.1487
18005TIP3   OH275429   3.956   4.730  13.589 -0.1201 -0.3704 -0.2060
18005TIP3    H175430   3.953   4.635  13.603 -0.7187 -0.4442 -0.8455
18005TIP3    H275431   4.032   4.759  13.640 -0.5384 -1.0464  0.8281
18006TIP3   OH275432   6.314   6.612  16.798 -0.6350 -0.5254  0.4321
18006TIP3    H175433   6.305   6.538  16.738 -0.7627 -1.8399  2.0349
18006TIP3    H275434   6.407   6.612  16.821 -0.5753  0.0070  0.1916
18007TIP3   OH275435   6.194   2.577   2.067  0.4760 -0.8105  0.0138
18007TIP3    H175436   6.172   2.605   2.156  2.8925 -1.9539  1.0273
18007TIP3    H275437   6.164   2.486   2.063 -0.9778 -0.3026 -0.8680
18008TIP3   OH275438   6.501   4.864   2.319  0.5288  0.3186 -0.2774
18008TIP3    H175439   6.436   4.934   2.309  0.6493  0.4903  0.1274
18008TIP3    H275440   6.449   4.788   2.347  0.5226  0.5017  0.2127
18009TIP3   OH275441   0.814   0.603   3.916  0.3704 -0.1817 -0.1068
18009TIP3    H175442   0.852   0.580   3.831 -2.0900 -4.5880 -0.1655
18009TIP3    H275443   0.754   0.675   3.897  1.4012  0.2838 -1.6761
18010TIP3   OH275444   1.745   2.625   4.829 -0.0104 -0.1282 -0.0437
18010TIP3    H175445   1.732   2.581   4.745 -0.2499  0.4760 -0.3268
18010TIP3    H275446   1.662   2.613   4.875 -0.8399  1.8749 -0.9871
18011TIP3   OH275447   4.586   6.151  12.365 -0.2022  0.5514  0.0464
18011TIP3    H175448   4.630   6.073  12.398 -0.6641 -0.4696 -1.6574
18011TIP3    H275449   4.654   6.218  12.363 -0.0089  0.4417  2.3518
18012TIP3   OH275450   2.737   2.373  15.883  0.2762 -0.2299  0.5376
18012TIP3    H175451   2.792   2.451  15.872  0.2737 -0.1257  1.2457
18012TIP3    H275452   2.744   2.351  15.976  2.0910 -2.4247 -0.0615
18013TIP3   OH275453   0.673   2.355   5.122 -0.2508  0.1992  0.1847
18013TIP3    H175454   0.589   2.388   5.153  0.3792  1.3703  0.6917
18013TIP3    H275455   0.650   2.288   5.058 -1.5645  0.0392  0.8053
18014TIP3   OH275456   6.651   4.469  15.084  0.1466  0.1932 -0.0102
18014TIP3    H175457   6.650   4.399  15.149  2.3435 -0.3075 -0.4802
18014TIP3    H275458   6.712   4.438  15.017 -1.7654  0.8696 -2.1468
18015TIP3   OH275459   1.239   6.765   3.271  0.0347  0.5568 -0.4843
18015TIP3    H175460   1.218   6.676   3.300  0.1284 -0.3284 -3.0342
18015TIP3    H275461   1.287   6.753   3.189  0.9542  2.9376 -0.3311
18016TIP3   OH275462   1.095   3.887   5.356  0.2319  0.5190 -0.2038
18016TIP3    H175463   1.052   3.842   5.429 -0.3357  0.0226 -0.8359
18016TIP3    H275464   1.153   3.950   5.398 -0.2088  0.3508  0.6807
18017TIP3   OH275465   0.283   6.127  12.539 -0.0362  0.3857 -0.4860
18017TIP3    H175466   0.316   6.213  12.516  4.1732 -1.5394 -2.1418
18017TIP3    H275467   0.323   6.108  12.624 -1.5246  0.3241  0.2158
18018TIP3   OH275468   5.248   1.051   3.345  0.3172  0.4229 -0.1945
18018TIP3    H175469   5.180   0.986   3.326  1.9180 -1.1610 -0.6116
18018TIP3    H275470   5.263   1.043   3.439 -0.7760  1.4841  0.0774
18019TIP3   OH275471   4.803   6.775   1.239 -0.0728  0.4009 -0.1900
18019TIP3    H175472   4.721   6.782   1.288 -1.0660 -0.9830 -1.6326
18019TIP3    H275473   4.834   6.686   1.256  1.1562  0.9187  0.3503
18020TIP3   OH275474   6.656   3.992  11.731  0.1187  0.2800  0.3565
18020TIP3    H175475   6.713   4.045  11.676  0.2945 -0.2315  0.0454
18020TIP3    H275476   6.568   4.026  11.715 -0.0473 -1.0043 -1.5514
18021TIP3   OH275477   4.994   5.369   3.290  0.0275 -0.5855 -0.0235
18021TIP3    H175478   4.968   5.440   3.349 -0.8446 -2.5041  1.9565
18021TIP3    H275479   5.090   5.371   3.292  0.0179 -0.7974  1.7139
18022TIP3   OH275480   5.092   5.492  11.445  0.1136 -1.2715  0.0372
18022TIP3    H175481   5.123   5.424  11.505  1.6406 -1.1384 -0.5930
18022TIP3    H275482   5.139   5.477  11.364  0.6445  0.6816 -0.0499
18023TIP3   OH275483   5.924   0.705  11.338  0.3074  0.2063  0.4842
18023TIP3    H175484   6.001   0.754  11.368  1.6275 -1.3940 -0.2146
18023TIP3    H275485   5.927   0.711  11.243 -0.1721 -0.2544  0.4356
18024TIP3   OH275486   3.281   6.428   1.733  1.0182 -0.2873  0.6605
18024TIP3    H175487   3.271   6.506   1.678 -0.6921 -0.5345  0.6090
18024TIP3    H275488   3.346   6.375   1.686  0.9047  0.3120 -0.1993
18025TIP3   OH275489   5.455   2.935   1.789  0.3006 -0.1484  0.0513
18025TIP3    H175490   5.455   3.021   1.749  0.8375  0.6411  1.7122
18025TIP3    H275491   5.469   2.874   1.716 -1.7711  1.0280 -1.3694
18026TIP3   OH275492   0.988   0.397   1.206  0.8430  0.1876 -0.0501
18026TIP3    H175493   1.013   0.399   1.298 -0.8200  0.4331  0.4252
18026TIP3    H275494   1.022   0.314   1.173  0.6988 -0.2957  1.0093
18027TIP3   OH275495   5.799   4.607   6.053 -0.2236  0.3564 -0.5693
18027TIP3    H175496   5.762   4.695   6.045 -1.3862 -0.0150  0.5545
18027TIP3    H275497   5.775   4.578   6.141 -1.2736 -1.7091 -1.4725
18028TIP3   OH275498   1.114   2.543  13.873  0.1133 -0.1189 -0.1998
18028TIP3    H175499   1.064   2.548  13.955  0.2697 -2.2216  0.0703
18028TIP3    H275500   1.120   2.449  13.856  2.8164  0.1695 -0.9571
18029TIP3   OH275501   6.551   5.196  14.907 -0.3006  0.3802  0.0902
18029TIP3    H175502   6.612   5.205  14.833 -0.3412  0.4386  0.0638
18029TIP3    H275503   6.575   5.113  14.948 -1.6606 -0.7152 -1.2477
18030TIP3   OH275504   4.907   5.514  10.556 -0.6480 -0.3070 -0.1598
18030TIP3    H175505   4.878   5.485  10.469  2.7038  1.3783 -1.9585
18030TIP3    H275506   4.913   5.609  10.549  2.4877 -0.3538  0.9018
18031TIP3   OH275507   3.655   5.044  16.041  0.3186  0.3343 -0.1216
18031TIP3    H175508   3.605   5.095  16.105  1.6742  0.2618  1.0204
18031TIP3    H275509   3.689   5.109  15.979  1.5535  0.7814  0.9978
18032TIP3   OH275510   0.114   5.034  11.429  0.6271  0.2609  0.3906
18032TIP3    H175511   0.168   4.970  11.477  0.3352 -1.5481 -1.5801
18032TIP3    H275512   0.177   5.082  11.375  0.3875 -1.6238 -1.6592
18033TIP3   OH275513   2.064   6.086   3.106 -0.5800 -0.1687  0.2603
18033TIP3    H175514   2.134   6.021   3.098  0.5968  0.9962  0.7510
18033TIP3    H275515   2.106   6.169   3.084 -2.0986  0.4147 -0.5038
18034TIP3   OH275516   3.540   3.728  14.796 -0.2208 -0.2466  0.4133
18034TIP3    H175517   3.602   3.696  14.731 -1.0252 -1.0565  0.0252
18034TIP3    H275518   3.530   3.821  14.776  0.7974 -0.1334  0.4253
18035TIP3   OH275519   6.072   6.248   2.134 -0.1745 -0.1952  0.1886
18035TIP3    H175520   6.130   6.311   2.177  1.2626  0.1388 -2.1243
18035TIP3    H275521   6.021   6.300   2.072 -3.1255 -0.4642  2.2866
18036TIP3   OH275522   3.216   0.910   5.286  0.1831  0.2274  0.4553
18036TIP3    H175523   3.157   0.848   5.330  1.2709 -0.5536  0.8239
18036TIP3    H275524   3.193   0.904   5.194  1.0115 -1.5222  0.3606
18037TIP3   OH275525   0.228   2.794   6.768 -0.4753  0.6256  0.2214
18037TIP3    H175526   0.228   2.886   6.796 -3.1878  0.5520  0.5959
18037TIP3    H275527   0.183   2.747   6.838 -0.1454 -0.8271 -0.5169
18038TIP3   OH275528   0.831   6.353  16.962  0.0535  0.1356  0.5879
18038TIP3    H175529   0.851   6.418  17.030  0.1564 -0.3449  1.0183
18038TIP3    H275530   0.738   6.333  16.974  0.1442 -0.1713  0.7766
18039TIP3   OH275531   2.686   2.600   2.311  0.4336  0.1936 -0.1512
18039TIP3    H175532   2.622   2.607   2.381  0.7594 -0.2093  0.1879
18039TIP3    H275533   2.640   2.631   2.233 -0.9897 -2.4712 -0.4292
18040TIP3   OH275534   4.827   1.374  10.984  0.3638 -0.2010  0.0134
18040TIP3    H175535   4.865   1.461  10.971 -0.6287  0.2361 -0.0549
18040TIP3    H275536   4.779   1.357  10.903  1.7391 -1.4469 -0.5568
18041TIP3   OH275537   2.169   4.040  15.331 -0.1875  0.8941  0.2284
18041TIP3    H175538   2.262   4.047  15.348 -0.1717  2.1184 -0.3313
18041TIP3    H275539   2.162   3.986  15.252  0.0453  0.8688  0.2256
18042TIP3   OH275540   2.965   2.901   0.719  0.3429  0.7433  0.1610
18042TIP3    H175541   2.890   2.904   0.660  1.0740  1.4678 -0.7444
18042TIP3    H275542   3.026   2.965   0.683  2.8114 -2.1848 -1.0547
18043TIP3   OH275543   2.420   2.173   3.389  0.0238  0.3017  0.1895
18043TIP3    H175544   2.502   2.216   3.411  0.2596 -0.3317  0.5543
18043TIP3    H275545   2.402   2.199   3.299 -0.1211  1.6090  0.5852
18044TIP3   OH275546   0.255   1.530  17.038 -0.4564  0.0976 -0.0707
18044TIP3    H175547   0.250   1.530  16.943 -0.7758  0.8531 -0.0565
18044TIP3    H275548   0.164   1.539  17.067 -0.2297  1.2033  0.2938
18045TIP3   OH275549   2.873   5.941  11.340 -0.0098  0.3635 -0.3358
18045TIP3    H175550   2.824   6.016  11.373  0.2918  0.9993 -1.3039
18045TIP3    H275551   2.953   5.979  11.303 -0.0175 -0.3875 -1.1463
18046TIP3   OH275552   0.278   4.174  13.071  0.0236  1.2924 -0.2040
18046TIP3    H175553   0.317   4.088  13.086 -0.2980  1.2686  0.4705
18046TIP3    H275554   0.252   4.205  13.157 -1.2926  1.3888 -0.6257
18047TIP3   OH275555   0.951   2.203  14.005 -0.2418  0.5916  0.2674
18047TIP3    H175556   0.948   2.226  14.098 -1.4867 -1.0541  0.6618
18047TIP3    H275557   0.921   2.112  14.002  0.0506  0.5423 -1.7153
18048TIP3   OH275558   0.887   1.546  11.892  0.1481  0.1400 -0.1688
18048TIP3    H175559   0.884   1.604  11.816  2.2047 -1.5205 -1.5590
18048TIP3    H275560   0.873   1.604  11.967 -0.7256  1.9761 -1.7112
18049TIP3   OH275561   0.608   6.389   5.377  0.1128  0.2779  0.6210
18049TIP3    H175562   0.593   6.479   5.405 -0.3835  0.1968  0.6254
18049TIP3    H275563   0.672   6.396   5.306 -0.0601  0.6487  0.5022
18050TIP3   OH275564   5.326   5.223   2.969  0.1620  0.5953 -0.0134
18050TIP3    H175565   5.339   5.159   2.899  0.4386 -0.6510  1.1460
18050TIP3    H275566   5.266   5.179   3.030 -1.5223  2.3552 -0.3384
18051TIP3   OH275567   4.021   2.051  15.005 -0.3588 -0.1899  0.3084
18051TIP3    H175568   4.070   2.038  14.925 -1.5768 -0.9838 -0.3251
18051TIP3    H275569   4.050   1.981  15.064  1.0179  0.7869  0.8170
18052TIP3   OH275570   3.123   5.878  12.976 -0.8125 -0.4474  0.3084
18052TIP3    H175571   3.149   5.944  13.040  1.4343  0.8618 -1.8742
18052TIP3    H275572   3.192   5.812  12.979  0.7460  0.9887 -2.6342
18053TIP3   OH275573   2.727   6.002   3.115 -0.5592  0.6894  0.2540
18053TIP3    H175574   2.700   5.992   3.023 -0.6351  1.7791  0.1540
18053TIP3    H275575   2.732   5.912   3.148  2.5033  0.0758 -1.6753
18054TIP3   OH275576   1.363   4.337   2.928  0.1899  0.2550 -0.7827
18054TIP3    H175577   1.304   4.356   3.001  1.0783  2.8385 -0.6537
18054TIP3    H275578   1.405   4.421   2.909  0.1079 -0.3797 -4.1810
18055TIP3   OH275579   4.559   5.907   3.587 -0.2579  0.6882  0.2615
18055TIP3    H175580   4.627   5.931   3.651 -1.2399  1.4022  1.0526
18055TIP3    H275581   4.486   5.876   3.641 -1.1676  1.4762 -0.5193
18056TIP3   OH275582   2.662   1.069   5.383  0.1733  0.0277  0.0544
18056TIP3    H175583   2.634   1.005   5.449 -1.2551 -0.2433 -0.7916
18056TIP3    H275584   2.584   1.122   5.367  0.3950 -0.1462 -1.6854
18057TIP3   OH275585   1.250   3.771  14.340  0.0761  0.4203  0.0636
18057TIP3    H175586   1.154   3.767  14.340  0.1090 -0.4589  0.1172
18057TIP3    H275587   1.273   3.791  14.430 -0.0951  1.7422 -0.1740
18058TIP3   OH275588   2.392   4.706   0.122  0.2468  0.4132 -0.6033
18058TIP3    H175589   2.319   4.738   0.068  1.3062 -0.4677 -2.6114
18058TIP3    H275590   2.367   4.617   0.147  1.5813 -0.7357 -3.1879
18059TIP3   OH275591   3.997   3.864  13.820  0.3204 -0.2237 -0.1656
18059TIP3    H175592   3.967   3.854  13.729 -0.0982 -1.1945  0.0742
18059TIP3    H275593   3.972   3.954  13.843  1.0731  0.2682 -1.2410
18060TIP3   OH275594   5.265   3.932  10.894 -0.1567 -0.4811 -0.8335
18060TIP3    H175595   5.253   4.027  10.891  0.2156 -0.3539  1.3437
18060TIP3    H275596   5.354   3.920  10.926 -0.0878 -1.5722 -1.4184
18061TIP3   OH275597   5.344   5.832  15.586 -0.0267 -0.2733  0.0769
18061TIP3    H175598   5.342   5.762  15.651 -2.9094  0.0780  0.4233
18061TIP3    H275599   5.353   5.787  15.502  2.0630 -0.8023  0.5424
18062TIP3   OH275600   3.027   6.632  13.708  0.2255  0.3818 -0.4368
18062TIP3    H175601   3.065   6.712  13.671 -1.6464  0.5001 -2.1919
18062TIP3    H275602   3.091   6.564  13.688  1.4054  1.2637  0.2568
18063TIP3   OH275603   3.238   3.140   5.689 -0.2233  0.1277  0.0737
18063TIP3    H175604   3.240   3.068   5.753  0.5250 -0.5977 -0.7558
18063TIP3    H275605   3.211   3.216   5.740  0.1429 -0.4933  1.2141
18064TIP3   OH275606   5.045   3.244   3.288 -0.8249  0.1453  0.4521
18064TIP3    H175607   5.067   3.336   3.278  0.9022 -0.2560  0.2172
18064TIP3    H275608   4.957   3.243   3.325 -0.1331  1.8985  2.2168
18065TIP3   OH275609   1.705   5.043   0.094  0.3577  0.2388  0.7697
18065TIP3    H175610   1.732   5.108   0.029  2.2025 -0.4784  0.7664
18065TIP3    H275611   1.626   5.079   0.133  0.4137  1.6878 -0.4019
18066TIP3   OH275612   2.104   2.884  13.843 -0.0324  0.0108  0.4051
18066TIP3    H175613   2.136   2.794  13.848  0.5565  0.0969 -1.6624
18066TIP3    H275614   2.049   2.886  13.765 -1.1229  1.1251  1.1785
18067TIP3   OH275615   2.646   6.028  12.265  1.0243 -0.4229 -0.6197
18067TIP3    H175616   2.672   6.120  12.261 -1.5846  0.4449  0.9318
18067TIP3    H275617   2.600   6.013  12.182  1.6186 -0.3780 -0.9555
18068TIP3   OH275618   5.584   1.795  16.878  1.2728  0.4895 -0.2476
18068TIP3    H175619   5.526   1.747  16.819 -1.2242  1.4860  1.2898
18068TIP3    H275620   5.652   1.732  16.901  0.1596 -1.1014 -1.2137
18069TIP3   OH275621   2.108   6.343  11.984  0.2254  0.4568 -0.1725
18069TIP3    H175622   2.175   6.278  12.003  0.3429  0.5518 -0.2649
18069TIP3    H275623   2.033   6.317  12.038  0.1045 -0.0232 -0.5722
18070TIP3   OH275624   4.285   3.442  12.999  0.2172 -0.7410  0.1945
18070TIP3    H175625   4.253   3.443  12.909 -1.2837  0.6512  0.7193
18070TIP3    H275626   4.326   3.527  13.011  1.4306 -1.3500  0.4958
18071TIP3   OH275627   6.085   2.648   3.909 -0.6016  0.2244 -0.9154
18071TIP3    H175628   6.145   2.722   3.902 -4.2733  3.3526 -0.6289
18071TIP3    H275629   6.046   2.640   3.822  1.9917 -3.4590 -1.8464
18072TIP3   OH275630   2.658   6.566   2.790  0.7604  0.4818 -0.5159
18072TIP3    H175631   2.719   6.635   2.816 -1.7223  2.5995 -0.1675
18072TIP3    H275632   2.609   6.603   2.718 -1.9317 -0.1570  0.9247
18073TIP3   OH275633   5.036   6.135  14.028 -0.2014 -0.0782  1.3071
18073TIP3    H175634   5.117   6.096  14.061 -0.0648  0.5322  1.6832
18073TIP3    H275635   5.061   6.222  13.998 -0.1793 -0.8370 -1.0401
18074TIP3   OH275636   5.492   1.563   5.459  0.4100  0.0756  0.2601
18074TIP3    H175637   5.520   1.567   5.550  1.9902 -2.0505 -0.0766
18074TIP3    H275638   5.528   1.642   5.419  0.1085  0.7749  1.3739
18075TIP3   OH275639   1.013   1.521  17.097 -0.2038  0.2888  0.3106
18075TIP3    H175640   1.020   1.616  17.082 -1.1254  0.5895  1.6676
18075TIP3    H275641   1.067   1.506  17.175 -0.6305 -0.1822  0.5195
18076TIP3   OH275642   6.454   6.647  12.457 -0.3262  0.4029  0.1397
18076TIP3    H175643   6.540   6.687  12.451 -0.1032 -0.0482  0.3390
18076TIP3    H275644   6.423   6.668  12.545 -0.2935  0.3056  0.1745
18077TIP3   OH275645   4.507   3.552  14.560 -1.0251  0.2563  0.0724
18077TIP3    H175646   4.509   3.587  14.471  0.0591 -0.1461 -0.0572
18077TIP3    H275647   4.422   3.508  14.566 -0.8091 -0.3130 -0.9836
18078TIP3   OH275648   2.052   3.466   2.024 -0.1985  0.0155  0.0321
18078TIP3    H175649   2.010   3.423   2.099  0.4580  0.7894  0.8429
18078TIP3    H275650   2.129   3.509   2.061 -1.3958  2.7396 -0.5921
18079TIP3   OH275651   6.662   5.905  16.791 -0.3184  0.1626 -0.2724
18079TIP3    H175652   6.604   5.881  16.719 -1.2423  2.1724 -0.2145
18079TIP3    H275653   6.675   5.999  16.782  2.2276 -0.0864  0.2569
18080TIP3   OH275654   1.994   1.103   0.736  0.5573 -0.3571 -0.1919
18080TIP3    H175655   2.024   1.120   0.825  0.0309  0.2128 -0.1196
18080TIP3    H275656   2.039   1.023   0.710  1.1208 -0.2340  0.3935
18081TIP3   OH275657   4.950   3.994  12.620 -0.6574 -0.3214 -0.3314
18081TIP3    H175658   4.884   3.953  12.563 -0.2111 -0.7807 -0.5189
18081TIP3    H275659   4.916   3.981  12.708 -1.4779  0.6115 -0.4977
18082TIP3   OH275660   4.733   3.801   5.640 -0.0223 -0.7361  0.1059
18082TIP3    H175661   4.708   3.762   5.724  1.8277 -3.8388 -0.6795
18082TIP3    H275662   4.662   3.777   5.581 -0.5750  0.1094  0.4243
18083TIP3   OH275663   6.403   6.304   2.023  0.6310 -0.1353 -0.0172
18083TIP3    H175664   6.352   6.229   2.054 -0.0537  0.1208 -0.5105
18083TIP3    H275665   6.489   6.268   2.001  0.7245 -0.5415  0.9914
18084TIP3   OH275666   1.682   5.716  13.341 -0.3676 -0.2018  0.2120
18084TIP3    H175667   1.591   5.693  13.361 -0.0965 -1.5569 -0.0758
18084TIP3    H275668   1.690   5.706  13.246  0.2964 -0.9063  0.3344
18085TIP3   OH275669   6.361   1.697   1.878  0.5788 -0.0153  0.4513
18085TIP3    H175670   6.418   1.641   1.827  0.9366 -0.1121  0.9518
18085TIP3    H275671   6.350   1.651   1.961 -1.0453 -0.4933 -0.0054
18086TIP3   OH275672   4.123   2.143   0.557  0.4191 -0.4368 -0.4691
18086TIP3    H175673   4.192   2.205   0.582  0.4421 -0.4519 -0.4951
18086TIP3    H275674   4.065   2.140   0.633 -0.3262  0.6554 -1.0005
18087TIP3   OH275675   1.367   2.954   0.131  0.3180 -0.5260  0.3734
18087TIP3    H175676   1.439   2.991   0.184  0.6443  0.0299 -0.4535
18087TIP3    H275677   1.411   2.906   0.061 -0.1195  0.5389 -0.6402
18088TIP3   OH275678   0.730   0.506   0.659 -0.1992  0.4336  0.5669
18088TIP3    H175679   0.753   0.593   0.691 -1.0616  1.3996 -1.3132
18088TIP3    H275680   0.788   0.492   0.584 -0.7360 -0.2059  0.2628
18089TIP3   OH275681   6.571   6.157   0.591 -0.6536  0.2573  0.7819
18089TIP3    H175682   6.498   6.184   0.536  2.0294  1.6469 -2.2545
18089TIP3    H275683   6.627   6.234   0.596  0.9801 -0.9912  2.4379
18090TIP3   OH275684   0.373   1.859  11.448  0.0560  0.1644  0.1480
18090TIP3    H175685   0.420   1.780  11.422  1.4860  0.7292  0.9567
18090TIP3    H275686   0.326   1.886  11.369  1.5904 -0.0557 -0.8582
18091TIP3   OH275687   3.248   0.407  11.807 -0.0494  0.2020 -0.1943
18091TIP3    H175688   3.213   0.462  11.737 -0.6582  0.5516  0.3701
18091TIP3    H275689   3.313   0.463  11.851 -0.0024  0.1448 -0.1918
18092TIP3   OH275690   1.948   2.592  14.784 -0.2414  0.3362 -0.0586
18092TIP3    H175691   2.021   2.560  14.731 -0.3775  0.1268 -0.1221
18092TIP3    H275692   1.897   2.513  14.805 -1.0927  0.6275 -0.9992
18093TIP3   OH275693   5.430   3.400  16.751  0.3806 -0.1357 -0.1690
18093TIP3    H175694   5.443   3.392  16.657  0.2483  2.5469 -0.4661
18093TIP3    H275695   5.379   3.323  16.775  2.0835 -1.8613 -1.9388
18094TIP3   OH275696   0.208   1.727  11.087 -0.0129  0.0216 -0.3058
18094TIP3    H175697   0.131   1.746  11.141 -0.4877  1.9416 -1.6429
18094TIP3    H275698   0.278   1.779  11.126  0.1485 -0.2071 -0.2871
18095TIP3   OH275699   1.756   4.466   6.491  0.6290 -0.1128 -0.1684
18095TIP3    H175700   1.756   4.530   6.419 -2.6248  0.4897  0.2866
18095TIP3    H275701   1.830   4.408   6.472  1.2433  1.4394 -2.7276
18096TIP3   OH275702   0.256   5.951   1.026  0.0536  0.4716  0.2266
18096TIP3    H175703   0.267   6.041   0.993  4.2809 -0.4033 -1.0775
18096TIP3    H275704   0.275   5.957   1.119  1.4147  0.7678 -0.0636
18097TIP3   OH275705   0.858   0.545   0.234  0.2182  0.2110 -0.0783
18097TIP3    H175706   0.770   0.525   0.203 -0.4067  1.5550  0.7818
18097TIP3    H275707   0.912   0.546   0.155 -0.7340  0.4094 -0.7311
18098TIP3   OH275708   5.479   0.260  16.992  0.0127  0.0273 -0.2969
18098TIP3    H175709   5.537   0.227  16.923 -1.2912 -3.2707  0.1232
18098TIP3    H275710   5.428   0.184  17.019 -1.4557  1.9036  2.3926
18099TIP3   OH275711   3.488   5.324  11.076 -0.3115  0.1618 -0.1936
18099TIP3    H175712   3.454   5.412  11.056 -0.9966 -0.1835 -0.5447
18099TIP3    H275713   3.432   5.292  11.147  0.9874  0.6622  1.0765
18100TIP3   OH275714   4.168   5.927  11.636  0.3914  0.2877 -0.5495
18100TIP3    H175715   4.139   6.018  11.644  0.5083  0.3576 -0.9508
18100TIP3    H275716   4.229   5.915  11.709 -0.4253  0.2238  0.1301
18101TIP3   OH275717   0.804   2.391   4.477 -0.2860  0.6669 -0.1338
18101TIP3    H175718   0.832   2.474   4.515 -0.4158  1.5777 -1.9998
18101TIP3    H275719   0.844   2.388   4.391  0.4043 -1.6114  0.2217
18102TIP3   OH275720   5.789   1.714  15.731  0.3618  0.1640  0.3098
18102TIP3    H175721   5.837   1.790  15.699  1.3030 -0.0773  1.1353
18102TIP3    H275722   5.734   1.689  15.657  1.0638  0.8023 -0.4524
18103TIP3   OH275723   0.075   5.476  11.059 -0.1333 -0.0033 -0.0063
18103TIP3    H175724   0.034   5.430  10.986 -1.3961  2.6203 -1.0037
18103TIP3    H275725   0.034   5.437  11.137 -2.3619  0.5093 -0.8861
18104TIP3   OH275726   0.166   2.068   2.063  1.0350 -0.5085  0.9572
18104TIP3    H175727   0.113   2.139   2.100  0.4794  0.1668 -1.0542
18104TIP3    H275728   0.103   2.010   2.021  1.5858 -1.6336  1.6761
18105TIP3   OH275729   3.753   1.507   6.055 -0.4513 -0.1178  0.0300
18105TIP3    H175730   3.713   1.591   6.075 -1.9861 -1.2872  2.0784
18105TIP3    H275731   3.714   1.480   5.972  1.6070  2.1117 -1.7191
18106TIP3   OH275732   0.677   0.351  15.690 -0.5595  0.0727  0.3979
18106TIP3    H175733   0.617   0.356  15.764 -1.4369  1.2637 -0.3663
18106TIP3    H275734   0.679   0.440  15.655 -0.1121 -0.4598 -0.9622
18107TIP3   OH275735   3.434   0.957   4.461 -0.1430  0.3301  0.3784
18107TIP3    H175736   3.362   0.945   4.522 -0.6340 -1.6269 -0.5624
18107TIP3    H275737   3.503   0.898   4.493  0.4270  0.9221  0.2763
18108TIP3   OH275738   6.287   5.066   0.587 -0.4786  0.2962 -0.7010
18108TIP3    H175739   6.262   5.096   0.674  3.2095 -0.7909  0.7950
18108TIP3    H275740   6.345   4.992   0.602 -0.5875 -0.5857 -4.1297
18109TIP3   OH275741   4.756   3.109   3.810 -0.7692 -0.6144 -0.3349
18109TIP3    H175742   4.749   3.118   3.715  0.4108  0.6127 -0.3258
18109TIP3    H275743   4.837   3.060   3.824  0.1172  0.9147  0.0710
18110TIP3   OH275744   5.629   1.983   0.951  0.4632  0.1487 -0.1606
18110TIP3    H175745   5.606   1.982   1.044  3.0670  0.8448  0.5444
18110TIP3    H275746   5.546   1.992   0.905 -0.8556 -0.1540  2.1017
18111TIP3   OH275747   3.603   3.458   2.270 -0.2806  0.0407  0.2254
18111TIP3    H175748   3.549   3.506   2.333 -0.6282 -0.3295  0.2136
18111TIP3    H275749   3.616   3.372   2.311  1.9074  0.7696  1.1065
18112TIP3   OH275750   3.568   4.318  11.279 -0.0359 -0.2765 -0.2395
18112TIP3    H175751   3.554   4.411  11.294 -1.9861 -0.4655 -0.7721
18112TIP3    H275752   3.652   4.314  11.233  0.3763  1.1545  0.3541
18113TIP3   OH275753   6.323   0.850   3.407  0.0347 -0.4304 -0.2193
18113TIP3    H175754   6.409   0.824   3.438  0.0308 -0.5987 -0.3519
18113TIP3    H275755   6.288   0.906   3.477  1.3313  1.8171 -1.2898
18114TIP3   OH275756   5.126   5.242   2.512  0.0449 -0.0424  0.3523
18114TIP3    H175757   5.061   5.288   2.459 -0.2753  2.8145  3.0790
18114TIP3    H275758   5.200   5.228   2.452 -1.3303  0.6846 -1.5595
18115TIP3   OH275759   4.962   0.342  16.922  0.1930 -0.5446 -0.0065
18115TIP3    H175760   4.909   0.263  16.929  2.8821 -2.3900  0.1540
18115TIP3    H275761   4.947   0.374  16.833  0.9177 -2.6038 -0.8950
18116TIP3   OH275762   4.994   0.574  11.138  0.0728  0.3206  0.0161
18116TIP3    H175763   4.965   0.496  11.091  1.7036 -0.5843  0.4619
18116TIP3    H275764   4.977   0.646  11.078 -1.1891 -0.4050 -0.5176
18117TIP3   OH275765   5.283   6.185  11.473  0.4225 -0.4252  0.1265
18117TIP3    H175766   5.313   6.158  11.386 -1.5002  0.0208 -0.7067
18117TIP3    H275767   5.319   6.274  11.484  0.6929 -0.4950 -0.1882
18118TIP3   OH275768   6.721   1.337   0.195  0.4644 -0.3512 -0.0390
18118TIP3    H175769   6.643   1.284   0.205  1.8522 -2.2933  0.9176
18118TIP3    H275770   6.730   1.383   0.279 -0.0516  0.4706 -0.4240
18119TIP3   OH275771   1.667   4.137  15.950  0.0220 -0.4751 -0.5316
18119TIP3    H175772   1.636   4.211  15.898 -1.4474 -0.5998  0.1432
18119TIP3    H275773   1.680   4.174  16.038 -0.3188 -0.9156 -0.2915
18120TIP3   OH275774   4.105   1.170   0.100 -0.4108  0.2773 -0.3591
18120TIP3    H175775   4.062   1.245   0.141  0.1366  1.1693 -1.4319
18120TIP3    H275776   4.149   1.205   0.023  0.5893 -0.9878 -0.3827
18121TIP3   OH275777   0.798   2.761   0.676 -0.4822  0.4153  0.0950
18121TIP3    H175778   0.746   2.793   0.749 -0.9056  0.9684 -0.4389
18121TIP3    H275779   0.814   2.669   0.696 -2.0527  0.1125  0.0646
18122TIP3   OH275780   5.003   6.426   1.769 -0.5282  0.3119  0.3283
18122TIP3    H175781   5.066   6.434   1.697 -1.3161  0.3906 -0.3623
18122TIP3    H275782   5.016   6.504   1.822 -0.3373  0.5393 -0.0557
18123TIP3   OH275783   4.696   2.026   2.987  0.2586 -0.3784 -0.2623
18123TIP3    H175784   4.670   2.109   3.028  2.6789  0.2101  0.1707
18123TIP3    H275785   4.684   1.961   3.056 -0.1358 -0.1338 -0.0956
18124TIP3   OH275786   3.218   4.325   3.512 -0.5257 -0.3166  0.4489
18124TIP3    H175787   3.281   4.310   3.583  1.3247 -0.0437 -1.1188
18124TIP3    H275788   3.203   4.238   3.475  0.9902 -0.0354 -0.8808
18125TIP3   OH275789   1.209   4.284  12.491 -0.6700 -0.0860 -0.4655
18125TIP3    H175790   1.288   4.339  12.494 -0.1440 -0.9153  2.8081
18125TIP3    H275791   1.242   4.195  12.476 -1.0306 -0.3178  0.0893
18126TIP3   OH275792   3.891   3.360  11.118  0.1548 -0.0785 -0.3862
18126TIP3    H175793   3.953   3.292  11.145  1.1288  0.9967  0.1315
18126TIP3    H275794   3.895   3.425  11.187 -0.7541  0.5217 -0.8892
18127TIP3   OH275795   6.723   0.177   2.939 -0.4466  0.1215 -0.5015
18127TIP3    H175796   6.701   0.229   3.017  0.2997 -0.6172  0.1989
18127TIP3    H275797   6.818   0.180   2.934 -0.4458 -0.5474 -0.9065
18128TIP3   OH275798   3.353   3.065  13.767  0.3017  0.5493  0.6897
18128TIP3    H175799   3.448   3.070  13.756  0.3657 -0.1121  0.9541
18128TIP3    H275800   3.318   3.085  13.680  0.7228 -0.9248  0.1740
18129TIP3   OH275801   2.360   6.293  13.388  0.1047 -0.9806  0.5981
18129TIP3    H175802   2.284   6.323  13.338  1.3794  0.5197 -0.5026
18129TIP3    H275803   2.326   6.280  13.477 -1.4599 -0.4225  0.1115
18130TIP3   OH275804   5.305   6.052  15.087  0.0508 -0.3948 -0.1726
18130TIP3    H175805   5.365   6.125  15.070 -0.9504  0.5355  0.2079
18130TIP3    H275806   5.323   5.990  15.017  0.8978  0.2342 -0.5275
18131TIP3   OH275807   5.865   6.119   4.112  0.6300 -0.4595 -0.1971
18131TIP3    H175808   5.951   6.155   4.133  0.6432 -1.2228  1.0384
18131TIP3    H275809   5.809   6.197   4.101  0.3908 -0.0361  3.6007
18132TIP3   OH275810   5.091   5.316  12.853 -0.4782  0.1643 -0.3523
18132TIP3    H175811   5.126   5.320  12.942 -0.1649  1.1698 -0.5206
18132TIP3    H275812   5.151   5.370  12.801  0.9910 -2.6662 -1.7242
18133TIP3   OH275813   3.233   2.108   1.762  0.4024 -0.4859 -0.1129
18133TIP3    H175814   3.254   2.028   1.809  0.1669 -0.3314  0.2570
18133TIP3    H275815   3.295   2.173   1.796  2.0240 -1.0257 -1.9449
18134TIP3   OH275816   3.172   1.333  13.303 -0.0035  0.1178 -0.3691
18134TIP3    H175817   3.227   1.256  13.289  0.9795  0.4146  1.6232
18134TIP3    H275818   3.146   1.361  13.216  2.8821 -0.1245 -1.3521
18135TIP3   OH275819   6.779   0.462   4.117 -0.1319 -0.1383  0.2181
18135TIP3    H175820   6.776   0.557   4.123 -1.5088 -0.2898  2.1264
18135TIP3    H275821   6.808   0.445   4.027  0.8091  2.0716  0.0798
18136TIP3   OH275822   3.569   1.184  16.786 -0.2638  0.6565  0.2660
18136TIP3    H175823   3.484   1.180  16.829  0.4631 -2.9987  1.6033
18136TIP3    H275824   3.632   1.168  16.856  1.3009  0.0732 -1.2333
18137TIP3   OH275825   3.633   4.276  13.764 -0.1063  0.0858  0.0145
18137TIP3    H175826   3.572   4.331  13.814 -0.8410 -1.4448  0.8250
18137TIP3    H275827   3.674   4.220  13.829 -0.4290 -1.3175 -0.9638
18138TIP3   OH275828   5.089   4.567   4.945  0.8597 -0.4419 -0.0556
18138TIP3    H175829   5.086   4.576   4.849 -1.2358  1.0224  0.1243
18138TIP3    H275830   5.180   4.543   4.963  1.3512 -0.5277 -2.3895
18139TIP3   OH275831   2.265   1.501  11.569  0.1430  0.1760 -0.5196
18139TIP3    H175832   2.176   1.469  11.587  0.3662 -0.1087  0.1180
18139TIP3    H275833   2.261   1.594  11.589 -0.1277  0.2501 -0.9229
18140TIP3   OH275834   3.499   6.629   1.493  0.3533  0.1264  0.1751
18140TIP3    H175835   3.425   6.689   1.501  0.0282 -0.2499 -0.0025
18140TIP3    H275836   3.536   6.648   1.407 -1.3574 -1.7517 -0.9932
18141TIP3   OH275837   4.866   1.387   4.976  0.2776 -0.1322 -0.3889
18141TIP3    H175838   4.856   1.458   4.913  2.7621  1.3753  0.8724
18141TIP3    H275839   4.874   1.430   5.060  2.6681 -1.8583  0.3115
18142TIP3   OH275840   6.649   5.145   3.578 -0.0318 -0.3720  0.7151
18142TIP3    H175841   6.691   5.134   3.663 -0.4740 -2.2558  0.7115
18142TIP3    H275842   6.613   5.058   3.557  0.1799  0.0269 -1.4460
18143TIP3   OH275843   4.179   5.800  14.815  0.0064  0.3611  0.2192
18143TIP3    H175844   4.093   5.761  14.825  0.7076 -1.3219 -0.2602
18143TIP3    H275845   4.185   5.864  14.887 -2.0100  1.2312 -0.3562
18144TIP3   OH275846   1.174   1.682   5.252  0.2678 -0.5562 -0.0180
18144TIP3    H175847   1.092   1.662   5.208  0.6669 -1.9168 -0.1435
18144TIP3    H275848   1.203   1.599   5.289  0.5487  0.3130  1.7963
18145TIP3   OH275849   5.218   5.256   6.196 -0.1818  0.0256  0.2361
18145TIP3    H175850   5.278   5.324   6.225 -0.0144 -0.1898  0.3926
18145TIP3    H275851   5.136   5.302   6.179 -0.9908 -0.2012  3.3303
18146TIP3   OH275852   0.398   4.830  16.213 -0.7084 -0.3356 -0.9174
18146TIP3    H175853   0.359   4.897  16.269 -0.8923  0.5606 -2.1023
18146TIP3    H275854   0.379   4.747  16.258  0.5553  0.4730  1.1773
18147TIP3   OH275855   5.833   2.248   3.147  0.3643 -0.1304 -0.3123
18147TIP3    H175856   5.765   2.265   3.081  0.3741 -2.1290 -0.8669
18147TIP3    H275857   5.793   2.277   3.230 -0.6056  0.0482 -0.8317
18148TIP3   OH275858   3.186   2.469   0.902 -0.7182 -0.3107 -0.2684
18148TIP3    H175859   3.192   2.459   0.997 -1.7425  0.8363 -0.0633
18148TIP3    H275860   3.197   2.381   0.867  0.1120 -0.6709  0.8971
18149TIP3   OH275861   5.794   2.053   6.355  0.2336  0.2406  0.2440
18149TIP3    H175862   5.870   2.109   6.338  0.4439 -0.2398 -0.4210
18149TIP3    H275863   5.744   2.054   6.273  1.3354 -2.2125 -0.4942
18150TIP3   OH275864   0.748   2.395  14.693 -0.5320 -0.3022  0.1813
18150TIP3    H175865   0.678   2.345  14.735 -0.1703 -1.0172 -0.0700
18150TIP3    H275866   0.807   2.329  14.656  0.3046  0.2974  0.4311
18151TIP3   OH275867   2.532   2.883  13.608 -0.3122  1.0600  0.5949
18151TIP3    H175868   2.479   2.805  13.623  0.6197  0.1628 -0.7066
18151TIP3    H275869   2.516   2.938  13.685 -1.6481 -0.0212  1.1106
18152TIP3   OH275870   5.389   3.981   1.796 -0.0334 -0.4967 -0.3110
18152TIP3    H175871   5.301   3.981   1.759  0.0710 -1.0217 -0.5785
18152TIP3    H275872   5.447   3.994   1.720  0.1451 -0.8004 -0.2304
18153TIP3   OH275873   4.409   0.419   2.720  0.7880 -0.1591  0.1946
18153TIP3    H175874   4.350   0.380   2.784  0.5808  1.3476  0.9416
18153TIP3    H275875   4.486   0.447   2.770  1.3548 -0.4819 -0.4815
18154TIP3   OH275876   3.962   2.655   5.203 -0.7885 -0.1075  0.5223
18154TIP3    H175877   3.934   2.649   5.294  0.0766 -0.9271  0.7361
18154TIP3    H275878   3.883   2.682   5.156 -1.3099  0.0479  1.4727
18155TIP3   OH275879   0.007   4.472   2.583 -0.1567 -0.2669 -0.7897
18155TIP3    H175880   0.053   4.404   2.634 -3.3599 -1.4024  0.7348
18155TIP3    H275881   0.023   4.553   2.632  0.0050 -0.6941 -0.1161
18156TIP3   OH275882   3.930   5.462  11.671  0.3614 -0.1327  0.1429
18156TIP3    H175883   3.942   5.527  11.740 -1.0402  1.4876 -1.0890
18156TIP3    H275884   3.836   5.466  11.651  0.0880 -3.1319  0.5908
18157TIP3   OH275885   4.012   1.494   1.021  0.8349  0.1727 -0.1452
18157TIP3    H175886   4.093   1.544   1.035  2.4497 -2.3505 -0.0245
18157TIP3    H275887   4.042   1.406   0.998 -1.9050 -0.5673 -1.1292
18158TIP3   OH275888   3.004   0.944  15.201 -0.2837  0.2143 -0.2255
18158TIP3    H175889   3.045   1.007  15.260 -0.4235  0.4489 -0.3818
18158TIP3    H275890   3.067   0.931  15.131 -0.3329  0.3145 -0.2871
18159TIP3   OH275891   1.373   5.603  13.865 -0.1508 -0.0032  0.5977
18159TIP3    H175892   1.445   5.545  13.890 -1.3357 -1.1352  1.4565
18159TIP3    H275893   1.356   5.581  13.773  0.0239 -0.3415  0.6440
18160TIP3   OH275894   1.908   3.104  13.730  0.0196 -0.1722  0.1199
18160TIP3    H175895   1.859   3.085  13.810  0.5113  0.5592  0.5996
18160TIP3    H275896   1.876   3.040  13.666  0.3050 -1.3697  1.1638
18161TIP3   OH275897   5.123   4.001   2.126 -0.3508  0.0797 -0.2039
18161TIP3    H175898   5.087   3.924   2.082  0.7799 -2.6248  3.2788
18161TIP3    H275899   5.047   4.056   2.144 -1.1774 -0.1288 -2.8610
18162TIP3   OH275900   5.059   2.762   2.422  0.3264  0.4458 -0.0346
18162TIP3    H175901   4.982   2.706   2.422  1.1689 -0.7235 -0.1382
18162TIP3    H275902   5.070   2.787   2.330 -0.0932  0.8692  0.0231
18163TIP3   OH275903   1.039   0.423  16.893  0.8639  0.0586  0.3484
18163TIP3    H175904   0.993   0.362  16.952  0.2420 -0.3240 -0.5194
18163TIP3    H275905   1.131   0.416  16.918  0.6098 -0.1560  1.2305
18164TIP3   OH275906   1.764   1.282  17.198  0.0649 -0.1808 -0.0830
18164TIP3    H175907   1.784   1.188  17.194  1.4628  0.1356 -0.8465
18164TIP3    H275908   1.818   1.314  17.270 -0.2168  0.0907  0.0065
18165TIP3   OH275909   3.871   4.392   0.220 -0.2664  1.0667 -0.6542
18165TIP3    H175910   3.863   4.469   0.276 -1.4940  0.0636  0.5988
18165TIP3    H275911   3.783   4.378   0.186 -0.6994 -1.3245  1.2768
18166TIP3   OH275912   5.038   2.336  12.886  0.6564  0.0834  0.0463
18166TIP3    H175913   4.956   2.311  12.929  0.0138  1.0433 -0.5796
18166TIP3    H275914   5.021   2.424  12.852  1.2461 -0.5055 -1.8398
18167TIP3   OH275915   4.250   4.854   5.700 -0.0824 -0.7778  0.0975
18167TIP3    H175916   4.185   4.790   5.671  0.4535 -1.3306  0.1146
18167TIP3    H275917   4.310   4.804   5.755 -0.1216 -0.0928  0.7735
18168TIP3   OH275918   0.193   5.846  14.045 -0.0934 -0.2106  0.2719
18168TIP3    H175919   0.154   5.759  14.051 -2.0334  0.6498  0.5548
18168TIP3    H275920   0.286   5.832  14.064  0.0649 -2.5454 -2.0055
18169TIP3   OH275921   2.141   5.041   4.069  0.3881 -0.2997  0.1016
18169TIP3    H175922   2.114   4.982   4.139 -0.2214  0.2610  0.3511
18169TIP3    H275923   2.133   4.990   3.989  1.8938 -1.2071  0.5148
18170TIP3   OH275924   3.415   4.696   2.103 -0.3864  0.9968  0.0239
18170TIP3    H175925   3.330   4.717   2.065 -0.0482  3.7126  0.6628
18170TIP3    H275926   3.476   4.698   2.029 -0.6877  0.2512 -0.2442
18171TIP3   OH275927   3.150   1.470   5.782  0.5070  0.4749 -0.4098
18171TIP3    H175928   3.228   1.421   5.806  0.0390  0.1628  0.4740
18171TIP3    H275929   3.120   1.429   5.700  0.3103 -0.4962  0.1403
18172TIP3   OH275930   3.457   6.762   0.696  0.3209  0.3962  0.4062
18172TIP3    H175931   3.464   6.757   0.791  1.9519 -2.5750  0.1989
18172TIP3    H275932   3.372   6.723   0.676  0.1932  0.5695  0.6113
18173TIP3   OH275933   1.846   5.868   3.154 -0.2489 -0.0173 -0.0291
18173TIP3    H175934   1.906   5.804   3.190 -0.3298 -0.0139  0.1110
18173TIP3    H275935   1.903   5.937   3.119 -0.1466 -0.4162 -0.6509
18174TIP3   OH275936   2.379   5.991   2.128 -0.2444 -0.9516  0.5630
18174TIP3    H175937   2.411   6.070   2.084 -0.3037 -2.4258 -2.2711
18174TIP3    H275938   2.305   6.021   2.180 -1.4564  0.5748 -1.9501
18175TIP3   OH275939   5.885   5.766   0.180  0.0148  0.3856  0.7641
18175TIP3    H175940   5.860   5.685   0.223 -0.0943  1.8875  3.6110
18175TIP3    H275941   5.980   5.760   0.170 -0.3846 -1.6900 -2.5017
18176TIP3   OH275942   0.649   4.504   3.168 -0.1799  0.4357 -1.2756
18176TIP3    H175943   0.623   4.465   3.252 -1.0044  0.0026 -1.7264
18176TIP3    H275944   0.689   4.587   3.193 -0.5423  0.3747 -0.4471
18177TIP3   OH275945   4.015   2.906   2.776 -0.0374  0.2284 -0.1283
18177TIP3    H175946   3.935   2.877   2.733 -0.8833  1.0128  0.8688
18177TIP3    H275947   3.986   2.938   2.862  0.8977  3.4047 -0.9161
18178TIP3   OH275948   0.704   3.472   0.157 -0.3080  0.1373 -0.1187
18178TIP3    H175949   0.738   3.506   0.239  1.6430  0.4433 -1.0318
18178TIP3    H275950   0.615   3.508   0.151  0.3348  1.9031  0.7808
18179TIP3   OH275951   0.799   2.491  12.924  0.0751 -0.1767 -0.1761
18179TIP3    H175952   0.773   2.582  12.907  1.7731  0.2458 -0.6785
18179TIP3    H275953   0.867   2.498  12.991  1.8002 -0.8718 -1.8205
18180TIP3   OH275954   6.299   1.426   4.960  0.1708  0.1217 -0.2134
18180TIP3    H175955   6.393   1.438   4.971  0.6090 -1.8587 -1.4286
18180TIP3    H275956   6.291   1.361   4.890 -2.2254  3.5623 -3.2654
18181TIP3   OH275957   4.628   5.569   3.876 -0.3754 -0.4091 -0.7665
18181TIP3    H175958   4.588   5.563   3.790  0.2725  1.2985 -1.2201
18181TIP3    H275959   4.643   5.663   3.889  0.2196 -0.7044  0.8836
18182TIP3   OH275960   2.781   2.150   3.197  0.4841 -0.3546  0.2861
18182TIP3    H175961   2.751   2.071   3.152 -1.1795 -0.2342  1.1522
18182TIP3    H275962   2.790   2.123   3.289 -0.3672  0.5375  0.6352
18183TIP3   OH275963   3.579   6.390   5.163  0.1151  0.1261 -0.6202
18183TIP3    H175964   3.539   6.318   5.116 -1.8280  1.4502 -1.0545
18183TIP3    H275965   3.588   6.359   5.253  0.0462 -0.9373 -0.9830
18184TIP3   OH275966   3.501   5.296   3.039 -0.4635 -0.1306 -0.0454
18184TIP3    H175967   3.434   5.330   2.979 -0.3529 -0.7126 -0.5018
18184TIP3    H275968   3.522   5.209   3.005 -1.4133 -1.0560  1.6523
18185TIP3   OH275969   5.884   5.633  14.122  0.1763  0.4023  0.0952
18185TIP3    H175970   5.922   5.720  14.128 -0.4059  0.6156  0.7575
18185TIP3    H275971   5.958   5.576  14.103  0.6502  0.9674  0.2403
18186TIP3   OH275972   5.761   0.564   2.321  0.2533 -0.2246 -0.0287
18186TIP3    H175973   5.842   0.515   2.335 -0.7931 -1.6413  1.3096
18186TIP3    H275974   5.752   0.618   2.399  0.7752  1.2128 -0.9536
18187TIP3   OH275975   0.614   4.559   3.714 -0.4244  0.3303  0.0699
18187TIP3    H175976   0.527   4.599   3.722 -0.0348  1.3548 -0.6852
18187TIP3    H275977   0.672   4.631   3.689  1.1471  0.1599  3.0291
18188TIP3   OH275978   1.021   0.095  14.974  0.3717 -0.2014 -0.0678
18188TIP3    H175979   1.032   0.169  14.913 -0.2100  1.3062  1.6098
18188TIP3    H275980   1.053   0.128  15.058  0.7765 -2.1205  0.5575
18189TIP3   OH275981   4.912   6.311  16.384 -0.5269  0.1460 -0.5874
18189TIP3    H175982   4.970   6.344  16.314 -0.2915  0.1091 -0.4110
18189TIP3    H275983   4.958   6.333  16.465 -0.7135  0.0266 -0.4491
18190TIP3   OH275984   2.095   6.130  13.445  0.2746  0.4356  0.6796
18190TIP3    H175985   2.017   6.098  13.400  2.1724 -3.0978 -0.2705
18190TIP3    H275986   2.142   6.180  13.379 -0.5276  1.4360  0.8638
18191TIP3   OH275987   0.302   6.311   5.332  0.6480  0.4449  0.1408
18191TIP3    H175988   0.386   6.356   5.325 -0.0545  1.8816  0.6748
18191TIP3    H275989   0.321   6.220   5.311  2.3408  0.7547  0.3049
18192TIP3   OH275990   4.278   0.701   1.814 -0.1601 -0.2913  0.1550
18192TIP3    H175991   4.284   0.796   1.823  2.0523 -0.3613 -0.2166
18192TIP3    H275992   4.242   0.671   1.897 -3.2700  1.0418 -0.6187
18193TIP3   OH275993   1.288   4.821  15.330  0.3769  0.2066  0.2794
18193TIP3    H175994   1.229   4.890  15.361 -1.4093 -0.6869 -1.0054
18193TIP3    H275995   1.370   4.836  15.377 -1.1878  0.8635  2.9034
18194TIP3   OH275996   4.562   2.652  13.162 -0.0693 -0.6638  0.0302
18194TIP3    H175997   4.601   2.733  13.193 -0.3807 -0.0706 -1.1219
18194TIP3    H275998   4.493   2.679  13.101  1.1253 -1.8197 -1.8928
18195TIP3   OH275999   1.229   5.217   0.350  0.0690  0.0867 -0.3124
18195TIP3    H176000   1.163   5.237   0.284 -0.4389 -0.5561 -0.0120
18195TIP3    H276001   1.204   5.268   0.426 -0.1586 -0.2552 -0.1563
18196TIP3   OH276002   2.538   1.536  11.271 -0.3221  0.3494 -0.5559
18196TIP3    H176003   2.630   1.560  11.260  0.0275  0.3843  2.1528
18196TIP3    H276004   2.532   1.446  11.238  0.7626  0.2179 -0.4006
18197TIP3   OH276005   2.457   1.379  13.166 -0.0872  0.0455  0.0503
18197TIP3    H176006   2.391   1.317  13.135  0.8517  0.1989 -2.2970
18197TIP3    H276007   2.440   1.459  13.116  0.5119  0.8009  1.0268
18198TIP3   OH276008   1.924   4.141  12.327  0.4870 -0.0473  0.1270
18198TIP3    H176009   1.959   4.053  12.333  0.6600 -0.0557 -0.8853
18198TIP3    H276010   1.916   4.158  12.233 -1.4175  0.2697  0.3108
18199TIP3   OH276011   5.792   3.145   0.604 -0.6904  0.0971 -0.3748
18199TIP3    H176012   5.754   3.182   0.684  1.3926 -1.2225  1.2636
18199TIP3    H276013   5.880   3.182   0.600 -0.6632 -0.0978 -1.9006
18200TIP3   OH276014   6.737   2.525  16.325 -0.3344  0.2256  0.4214
18200TIP3    H176015   6.676   2.487  16.388 -0.4234  0.2579  0.3535
18200TIP3    H276016   6.685   2.586  16.274 -0.8263 -1.5235 -1.2606
18201TIP3   OH276017   4.957   0.723   5.130 -0.1679  0.1863 -0.4266
18201TIP3    H176018   5.035   0.721   5.185 -1.4120  0.8257  1.4292
18201TIP3    H276019   4.958   0.640   5.083  1.9973  0.5022 -0.9979
18202TIP3   OH276020   0.330   0.498  12.770 -0.1565 -0.1222 -0.3278
18202TIP3    H176021   0.343   0.516  12.677  0.8047 -0.5743 -0.2876
18202TIP3    H276022   0.412   0.524  12.811 -0.3210 -0.5871  0.2991
18203TIP3   OH276023   3.181   3.842   6.004 -0.1902  0.0242  0.3056
18203TIP3    H176024   3.181   3.751   5.977  1.6939 -0.2416  1.1310
18203TIP3    H276025   3.132   3.843   6.086  0.3426 -0.3603  0.6299
18204TIP3   OH276026   1.533   0.922  13.251 -0.0597 -0.0226 -0.6196
18204TIP3    H176027   1.583   0.899  13.173  0.1490 -0.4456 -0.3602
18204TIP3    H276028   1.492   1.006  13.229  0.7634  0.3324 -0.8275
18205TIP3   OH276029   6.625   0.758   0.230  0.0541 -0.1148  0.5385
18205TIP3    H176030   6.545   0.803   0.258 -0.4388 -0.7793  0.1938
18205TIP3    H276031   6.595   0.682   0.182  0.8869  0.6327 -1.2255
18206TIP3   OH276032   3.039   3.061   3.451 -0.1980 -0.8238 -0.3468
18206TIP3    H176033   2.973   3.121   3.485  0.9741 -0.1552  0.7893
18206TIP3    H276034   3.008   2.974   3.475 -1.9167 -0.7074 -2.0103
18207TIP3   OH276035   6.640   4.411  17.115  0.2606 -0.3249  0.2889
18207TIP3    H176036   6.588   4.450  17.045  0.1011  1.9529  1.5961
18207TIP3    H276037   6.708   4.361  17.071 -0.2259  0.5471 -1.4850
18208TIP3   OH276038   3.866   6.638  12.728  0.2172 -0.2239 -0.1383
18208TIP3    H176039   3.867   6.684  12.643 -0.3245  0.4288  0.2044
18208TIP3    H276040   3.893   6.549  12.707  1.5059  0.3051 -0.7796
18209TIP3   OH276041   4.480   2.258  11.560  0.0573 -0.1715  0.4272
18209TIP3    H176042   4.390   2.269  11.589 -0.5487 -2.2307 -0.5486
18209TIP3    H276043   4.479   2.177  11.509  2.2931  0.2082 -0.2892
18210TIP3   OH276044   3.882   2.311   5.206 -0.6227  0.5992  0.4709
18210TIP3    H176045   3.878   2.365   5.127  1.7761 -0.3537 -0.3828
18210TIP3    H276046   3.937   2.236   5.180 -1.7269 -0.9182  2.3674
18211TIP3   OH276047   0.405   4.751  14.904 -0.2250 -0.0201  0.8087
18211TIP3    H176048   0.326   4.802  14.922 -1.3282 -0.7638 -1.7577
18211TIP3    H276049   0.465   4.814  14.864 -0.2192  0.0899  0.9872
18212TIP3   OH276050   2.950   5.385   4.729  0.4532 -0.2697 -0.5627
18212TIP3    H176051   2.891   5.316   4.697  0.6349  0.2746 -2.1038
18212TIP3    H276052   2.919   5.464   4.685  0.0345  0.7177  1.4594
18213TIP3   OH276053   0.639   0.084  16.684  0.2549 -0.3377  0.3850
18213TIP3    H176054   0.632   0.159  16.743  0.6607  1.6731 -2.0217
18213TIP3    H276055   0.549   0.059  16.664  0.1162  0.0827  0.4932
18214TIP3   OH276056   4.577   4.778  10.716  0.0661  0.1125  0.6079
18214TIP3    H176057   4.542   4.867  10.718  1.8634  0.8174  1.2219
18214TIP3    H276058   4.613   4.768  10.628 -2.6196 -1.0296 -0.4389
18215TIP3   OH276059   1.849   6.165  13.634 -0.5364 -0.4027 -0.1881
18215TIP3    H176060   1.892   6.216  13.703 -1.8958  0.0225  0.3594
18215TIP3    H276061   1.914   6.099  13.610 -0.1658 -0.7825  1.7382
18216TIP3   OH276062   0.405   4.686   4.149 -0.2026 -0.2395  0.1267
18216TIP3    H176063   0.356   4.604   4.147  0.4347 -0.6169 -0.0683
18216TIP3    H276064   0.484   4.666   4.198 -0.3005  0.4069  0.5550
18217TIP3   OH276065   0.714   3.419  11.259 -0.6148  0.1884 -0.3602
18217TIP3    H176066   0.801   3.395  11.291  0.0224  2.9046  0.0567
18217TIP3    H276067   0.725   3.433  11.165 -0.5909  0.5335 -0.3073
18218TIP3   OH276068   6.042   0.702   6.404 -0.5305 -0.0578 -0.0875
18218TIP3    H176069   5.996   0.651   6.337 -0.7695 -0.1100  0.1176
18218TIP3    H276070   5.978   0.767   6.434 -0.4255 -0.0361  0.0915
18219TIP3   OH276071   0.852   5.955  15.393  0.4046  0.1548  0.6453
18219TIP3    H176072   0.773   6.007  15.412  0.6230  1.2838 -1.4197
18219TIP3    H276073   0.895   5.946  15.477 -1.5170  0.2167  1.6748
18220TIP3   OH276074   2.545   5.225   4.229 -0.0560  0.2885  0.1561
18220TIP3    H176075   2.490   5.263   4.297 -0.8700  1.0300 -0.8951
18220TIP3    H276076   2.627   5.204   4.273 -1.1747 -0.8619  1.7554
18221TIP3   OH276077   4.922   3.380  14.694  0.4469 -0.5595  0.3826
18221TIP3    H176078   5.012   3.348  14.687  0.3802 -0.5720 -0.5032
18221TIP3    H276079   4.875   3.312  14.741  0.7136 -0.9421  0.0976
18222TIP3   OH276080   5.102   6.046   5.450  0.0680  0.0681  0.2134
18222TIP3    H176081   5.074   6.137   5.441 -2.5197 -0.5565  1.6840
18222TIP3    H276082   5.152   6.029   5.370 -0.5919  2.3655 -0.7272
18223TIP3   OH276083   0.346   6.587   5.139  0.0033  0.3548 -0.0007
18223TIP3    H176084   0.276   6.590   5.074 -0.9057  1.1538  1.0066
18223TIP3    H276085   0.425   6.614   5.091 -0.9038  2.2801 -0.4404
18224TIP3   OH276086   1.535   5.757  17.012  0.4813  0.6399 -0.0168
18224TIP3    H176087   1.455   5.742  16.962  0.1372 -1.0726  1.0140
18224TIP3    H276088   1.505   5.775  17.101  1.2618 -0.4021  0.4614
18225TIP3   OH276089   5.580   3.477  12.293  0.2418 -0.0576  0.6948
18225TIP3    H176090   5.530   3.403  12.326  0.8788 -0.6087  0.4356
18225TIP3    H276091   5.596   3.532  12.370 -0.1344 -0.2361  0.9020
18226TIP3   OH276092   1.543   0.992   4.949 -0.4726  0.1571  0.2030
18226TIP3    H176093   1.565   1.009   4.858  1.2673  0.6464  0.6799
18226TIP3    H276094   1.613   1.034   4.999 -0.8890 -0.8824  1.7297
18227TIP3   OH276095   0.812   2.586  11.846  0.5711  0.4726 -0.0409
18227TIP3    H176096   0.895   2.606  11.802  1.0539  0.3007  0.7746
18227TIP3    H276097   0.828   2.502  11.889 -0.7920 -0.7293 -1.7965
18228TIP3   OH276098   3.448   2.301   0.157 -0.5731 -1.0250 -0.3248
18228TIP3    H176099   3.452   2.391   0.189  4.6190 -0.8236 -1.1573
18228TIP3    H276100   3.424   2.249   0.234 -0.4872  0.7557  0.9143
18229TIP3   OH276101   4.554   6.297  14.145  0.2561 -0.0236  0.3658
18229TIP3    H176102   4.596   6.222  14.188 -0.8647  0.9382  3.2349
18229TIP3    H276103   4.470   6.262  14.115  0.5141 -0.3782  0.0422
18230TIP3   OH276104   0.821   6.186   2.914  0.1834 -0.1586 -0.1346
18230TIP3    H176105   0.858   6.157   2.831  0.0510 -0.2003 -0.1792
18230TIP3    H276106   0.873   6.143   2.981 -1.1825 -1.9599 -0.2028
18231TIP3   OH276107   2.178   2.780   1.237  0.4068  0.4503  0.2298
18231TIP3    H176108   2.193   2.691   1.207  1.9846  0.3512  1.2414
18231TIP3    H276109   2.118   2.771   1.311 -1.2727  0.4465 -1.1238
18232TIP3   OH276110   1.779   2.975  17.151 -0.3771 -0.1282  0.3097
18232TIP3    H176111   1.770   2.919  17.074  1.4527 -0.2368  0.1430
18232TIP3    H276112   1.703   2.954  17.205 -0.4851 -1.7225 -0.4198
18233TIP3   OH276113   1.829   5.364   5.779 -0.2502  0.0161 -0.4318
18233TIP3    H176114   1.874   5.280   5.764  2.0946  0.7212  2.2866
18233TIP3    H276115   1.811   5.366   5.873 -0.6564  2.3848 -0.5268
18234TIP3   OH276116   4.151   3.018   3.721 -0.2178 -0.0047  0.4046
18234TIP3    H176117   4.183   3.055   3.803  0.6188 -1.0813  0.5746
18234TIP3    H276118   4.055   3.023   3.729 -0.1314  0.8512  0.9995
18235TIP3   OH276119   2.895   2.565   4.272 -0.0779 -0.2231  0.1496
18235TIP3    H176120   2.976   2.570   4.323 -0.3084  2.6231  0.2757
18235TIP3    H276121   2.853   2.650   4.285 -3.2050 -1.7192  0.2463
18236TIP3   OH276122   3.092   0.369  14.949  0.3342  0.1837  0.0721
18236TIP3    H176123   3.000   0.357  14.973 -0.0815  1.3185 -0.9055
18236TIP3    H276124   3.124   0.281  14.931 -0.8311 -0.1255 -0.5034
18237TIP3   OH276125   5.740   4.344   6.560 -0.3820 -0.6901  0.2462
18237TIP3    H176126   5.755   4.397   6.638 -0.8332 -0.4034  0.1384
18237TIP3    H276127   5.827   4.336   6.520 -0.3552  0.2494  0.0858
18238TIP3   OH276128   0.834   4.485   0.519 -0.2548 -0.4082 -0.4225
18238TIP3    H176129   0.901   4.442   0.466  1.2215  0.2615  0.8491
18238TIP3    H276130   0.834   4.576   0.487 -2.1864 -0.9148 -1.9646
18239TIP3   OH276131   0.600   3.359  15.460 -0.1729 -0.2302  0.4819
18239TIP3    H176132   0.534   3.290  15.449 -0.5669  0.1599  0.4013
18239TIP3    H276133   0.551   3.436  15.488  0.3441 -0.1439  1.1723
18240TIP3   OH276134   0.478   4.985   6.785  0.1915 -0.0459  0.4762
18240TIP3    H176135   0.571   4.985   6.762 -0.2534  1.1887 -1.4556
18240TIP3    H276136   0.459   5.076   6.808 -0.9749  0.1168 -1.0493
18241TIP3   OH276137   6.624   6.787  16.268  0.1359 -0.1802 -0.0451
18241TIP3    H176138   6.717   6.769  16.285 -0.6452 -2.4549  2.1529
18241TIP3    H276139   6.603   6.734  16.190  0.5297 -0.1718 -0.1577
18242TIP3   OH276140   1.559   4.413   0.071 -0.5024 -0.2719  0.0534
18242TIP3    H176141   1.571   4.318   0.066  0.9767 -0.0827 -0.5487
18242TIP3    H276142   1.465   4.426   0.077 -0.6393 -1.8266  1.5312
18243TIP3   OH276143   2.656   0.168   5.303  0.3834  0.0358 -0.7498
18243TIP3    H176144   2.631   0.117   5.380 -0.6597  0.1839 -0.9797
18243TIP3    H276145   2.713   0.109   5.253  0.2772 -0.4118 -0.3491
18244TIP3   OH276146   0.656   1.512   1.574 -0.2032 -0.4606  0.4738
18244TIP3    H176147   0.662   1.555   1.488  1.3991 -0.9219  0.3383
18244TIP3    H276148   0.742   1.526   1.614 -0.8064 -0.6002  1.8449
18245TIP3   OH276149   1.262   3.421   2.386 -0.1731 -0.0593  0.4283
18245TIP3    H176150   1.271   3.485   2.315  0.6774 -1.4832 -0.7643
18245TIP3    H276151   1.174   3.385   2.375  0.2514 -0.8607 -0.4156
18246TIP3   OH276152   3.790   2.524   4.311 -0.3092 -0.8626  0.3627
18246TIP3    H176153   3.852   2.478   4.254 -1.4164 -0.7451 -0.9725
18246TIP3    H276154   3.845   2.563   4.379  1.0903 -0.8223 -0.7399
18247TIP3   OH276155   1.707   0.222   4.338  0.0173 -0.1767  0.7905
18247TIP3    H176156   1.676   0.145   4.290  0.4060  0.3658 -0.3478
18247TIP3    H276157   1.637   0.286   4.327  0.3763  0.1548  0.4385
18248TIP3   OH276158   0.144   5.106  15.262  0.3348  0.5130 -0.0831
18248TIP3    H176159   0.227   5.063  15.240 -0.3225 -0.7088 -0.2370
18248TIP3    H276160   0.158   5.198  15.240  1.9505  0.4761  0.7217
18249TIP3   OH276161   0.370   4.449  14.531 -0.8186 -0.2767 -0.3762
18249TIP3    H176162   0.312   4.376  14.550 -0.0880 -0.2361  2.2648
18249TIP3    H276163   0.403   4.476  14.617  1.1274  1.3143 -1.5753
18250TIP3   OH276164   1.505   2.516   4.923  0.5580  0.2490  0.3822
18250TIP3    H176165   1.569   2.450   4.950  0.7850  0.5231  0.5150
18250TIP3    H276166   1.457   2.475   4.852 -0.6997 -0.8659  1.8397
18251TIP3   OH276167   3.661   4.115   4.006  0.1389  0.2642  0.1419
18251TIP3    H176168   3.600   4.053   3.966  0.5427  0.3628 -0.6239
18251TIP3    H276169   3.686   4.174   3.935 -0.1895  1.2682  0.8509
18252TIP3   OH276170   0.569   6.545   3.738  0.4863  0.0810  0.1184
18252TIP3    H176171   0.562   6.460   3.781  2.1998  0.1682  0.5943
18252TIP3    H276172   0.495   6.596   3.772 -0.4229 -1.1299 -0.0159
18253TIP3   OH276173   6.165   5.781  12.461  0.3811 -0.0274  0.1114
18253TIP3    H176174   6.211   5.754  12.382  2.7427  1.2270  1.0020
18253TIP3    H276175   6.164   5.877  12.457 -1.6747 -0.0114  0.4056
18254TIP3   OH276176   3.196   5.849   4.710 -0.8033  0.2667 -0.2519
18254TIP3    H176177   3.290   5.846   4.727 -0.9264 -2.2615  0.2649
18254TIP3    H276178   3.166   5.930   4.752  0.9171  0.4113  0.7440
18255TIP3   OH276179   6.753   5.268   5.214  0.6938  0.5684  0.3044
18255TIP3    H176180   6.774   5.176   5.200  1.7638  1.1429 -2.0601
18255TIP3    H276181   6.669   5.266   5.260 -0.5798 -1.5788 -1.9492
18256TIP3   OH276182   0.256   2.336  16.836 -0.3375  0.1811 -0.0735
18256TIP3    H176183   0.296   2.253  16.811  0.1199  0.3181  0.2088
18256TIP3    H276184   0.279   2.396  16.765  0.9912  0.5794  0.6963
18257TIP3   OH276185   2.960   0.620  14.810  0.0326  1.2423  0.0639
18257TIP3    H176186   2.907   0.540  14.821 -0.1874  1.2615 -0.8157
18257TIP3    H276187   2.940   0.673  14.887  0.9826 -0.0010  1.1764
18258TIP3   OH276188   1.444   0.986   3.572 -0.6150 -0.3033  0.3776
18258TIP3    H176189   1.413   0.907   3.529 -0.4557 -0.7690  1.1114
18258TIP3    H276190   1.538   0.990   3.551 -0.1157 -1.5787  2.2726
18259TIP3   OH276191   2.448   2.062  15.125 -0.2586 -0.1662  0.1758
18259TIP3    H176192   2.494   2.143  15.103 -0.2039 -0.1671  0.2899
18259TIP3    H276193   2.372   2.090  15.177  1.7595 -0.4789  3.3832
18260TIP3   OH276194   0.978   3.853   4.407 -0.5004  0.6315  0.1688
18260TIP3    H176195   0.940   3.839   4.493  2.3309  1.3614  1.6063
18260TIP3    H276196   1.048   3.917   4.422  0.4620  0.2749 -2.5573
18261TIP3   OH276197   5.196   1.064   0.378 -0.4289 -0.1427 -0.0054
18261TIP3    H176198   5.121   1.006   0.372 -0.9947  0.7108 -1.4524
18261TIP3    H276199   5.165   1.148   0.343  0.9202  0.4821  0.2557
18262TIP3   OH276200   6.240   0.238   4.649 -0.7541 -0.4718 -0.2160
18262TIP3    H176201   6.230   0.208   4.739  0.1549  1.5315  0.5960
18262TIP3    H276202   6.187   0.317   4.644  0.2771  0.1832 -1.0281
18263TIP3   OH276203   6.290   6.052   5.633  0.4479  0.1785 -0.2961
18263TIP3    H176204   6.296   5.957   5.634 -1.3085  0.0220  3.4254
18263TIP3    H276205   6.204   6.071   5.596 -0.0611  0.2554  0.9371
18264TIP3   OH276206   5.432   1.610   1.003 -0.7829  0.3219 -0.4649
18264TIP3    H176207   5.440   1.645   0.914  0.0145 -0.2887 -0.6414
18264TIP3    H276208   5.447   1.685   1.060 -0.3439  0.5212 -0.8418
18265TIP3   OH276209   4.455   3.543   5.403  0.4495  0.1491 -0.1568
18265TIP3    H176210   4.463   3.635   5.429  1.0752  0.1609 -0.3862
18265TIP3    H276211   4.427   3.497   5.482  1.2125  0.3606  0.2344
18266TIP3   OH276212   6.055   5.667   5.888  0.4824 -0.6123  0.5159
18266TIP3    H176213   5.996   5.666   5.963  0.4867  0.8737  0.5658
18266TIP3    H276214   6.051   5.758   5.856  1.5315 -0.8895 -0.4328
18267TIP3   OH276215   0.684   3.141   2.364 -0.3577 -0.5744 -0.3988
18267TIP3    H176216   0.681   3.207   2.295  1.5966 -0.6063 -0.5279
18267TIP3    H276217   0.764   3.160   2.413  1.5215 -4.1746 -1.8072
18268TIP3   OH276218   4.359   3.531  13.462  0.1575  0.5777 -0.1264
18268TIP3    H176219   4.443   3.503  13.426 -0.1153 -0.7485  0.2697
18268TIP3    H276220   4.294   3.496  13.402 -0.1571  0.8232  0.0712
18269TIP3   OH276221   2.770   5.229  11.436 -0.0178 -0.6235  0.0352
18269TIP3    H176222   2.839   5.294  11.440 -1.7771  1.2443  1.2444
18269TIP3    H276223   2.706   5.265  11.374 -2.2489  0.1374  2.6722
18270TIP3   OH276224   4.876   0.894  15.199 -0.6254 -0.5784  0.7852
18270TIP3    H176225   4.845   0.967  15.145 -1.1616 -1.3317  0.0721
18270TIP3    H276226   4.964   0.876  15.167 -0.3046  0.0620  1.2841
18271TIP3   OH276227   5.511   2.355  12.120 -0.3917 -0.1523  0.0319
18271TIP3    H176228   5.543   2.414  12.051  0.4804 -0.3816  0.2378
18271TIP3    H276229   5.573   2.282  12.120 -0.3701 -0.1339  1.0856
18272TIP3   OH276230   6.019   4.801   0.015  0.0734 -0.0548  0.0046
18272TIP3    H176231   6.031   4.877  -0.043  1.1513  0.4104  0.8219
18272TIP3    H276232   6.105   4.787   0.054  0.8552 -3.8573 -2.7450
18273TIP3   OH276233   0.936   1.212   5.602 -0.2903  0.1039 -0.3214
18273TIP3    H176234   0.863   1.201   5.541 -1.3171 -1.7669  1.1652
18273TIP3    H276235   0.949   1.306   5.607 -4.1847  0.6640  1.0971
18274TIP3   OH276236   0.506   5.395   5.730  0.4789  0.1663 -0.5240
18274TIP3    H176237   0.489   5.355   5.645 -2.0834  1.3897 -0.6238
18274TIP3    H276238   0.505   5.489   5.714 -0.7830  0.4304  0.9592
18275TIP3   OH276239   0.592   4.432  11.177 -0.3368  0.2572 -0.3078
18275TIP3    H176240   0.612   4.362  11.238 -0.7736  1.5949  1.4038
18275TIP3    H276241   0.523   4.397  11.121 -1.0403 -0.4466  0.9826
18276TIP3   OH276242   3.089   1.584  12.517  0.7841  0.1948 -0.0768
18276TIP3    H176243   3.046   1.557  12.436 -0.6320  1.5053  0.2191
18276TIP3    H276244   3.153   1.515  12.534 -0.0102 -0.9118 -1.4564
18277TIP3   OH276245   6.069   3.161  15.616 -0.2331 -0.0549 -0.1147
18277TIP3    H176246   5.986   3.168  15.568 -0.5444  1.0722  0.5818
18277TIP3    H276247   6.048   3.109  15.693 -0.3847  0.5853  0.2744
18278TIP3   OH276248   0.510   0.491   1.185 -0.4490 -0.4668 -0.2882
18278TIP3    H176249   0.592   0.511   1.230 -1.0154  0.7347  0.2281
18278TIP3    H276250   0.518   0.534   1.100 -0.0952 -1.2913 -0.6840
18279TIP3   OH276251   6.602   1.881   4.019 -0.2877  0.5490  0.4109
18279TIP3    H176252   6.553   1.915   3.944 -0.6811 -0.1400  0.3551
18279TIP3    H276253   6.686   1.854   3.983  0.4072  2.3353  0.6150
18280TIP3   OH276254   6.114   3.458  15.626  0.2722  0.7134 -0.0345
18280TIP3    H176255   6.202   3.462  15.589  0.6042  1.1714  0.7759
18280TIP3    H276256   6.083   3.370  15.606  0.8942  0.5643 -0.3616
18281TIP3   OH276257   1.195   6.682  14.867  0.1260 -0.4161 -0.3963
18281TIP3    H176258   1.129   6.750  14.879  2.8603  2.5748 -1.4789
18281TIP3    H276259   1.201   6.671  14.772  1.0115 -0.8120 -0.2985
18282TIP3   OH276260   3.761   0.109   0.567 -0.0836  0.4460 -0.4569
18282TIP3    H176261   3.772   0.135   0.475  1.1818  1.0065 -0.1452
18282TIP3    H276262   3.846   0.124   0.607 -0.9013  1.1196  1.0523
18283TIP3   OH276263   3.283   5.647  15.264 -0.6716  0.0637 -0.1968
18283TIP3    H176264   3.298   5.623  15.173  0.7239 -0.5594  0.1795
18283TIP3    H276265   3.302   5.740  15.268 -0.8367  0.1123 -0.5651
18284TIP3   OH276266   2.234   6.209  12.315  0.2421  0.5054  0.0179
18284TIP3    H176267   2.174   6.177  12.247  2.1710 -1.0760 -1.0140
18284TIP3    H276268   2.253   6.131  12.368  0.7376  1.1699  0.8247
18285TIP3   OH276269   4.778   5.299   1.253 -0.6373 -0.3443  0.2944
18285TIP3    H176270   4.777   5.352   1.332 -2.3141  1.9424 -1.1928
18285TIP3    H276271   4.713   5.339   1.196  1.1879 -1.3269 -2.6201
18286TIP3   OH276272   2.107   1.266   3.300  0.3663  0.0578  0.2532
18286TIP3    H176273   2.045   1.266   3.228 -0.5335 -1.4997  0.9982
18286TIP3    H276274   2.068   1.323   3.366  0.3784  0.1471  0.1832
18287TIP3   OH276275   0.594   0.402  11.031  0.5299 -0.5873 -0.2991
18287TIP3    H176276   0.669   0.353  10.997  0.9268 -1.2656  1.5210
18287TIP3    H276277   0.599   0.486  10.986  2.7783 -0.3702  0.2840
18288TIP3   OH276278   0.574   5.077  11.492  0.2723 -0.7007 -0.3750
18288TIP3    H176279   0.579   5.156  11.547 -1.7032  0.0684 -1.2667
18288TIP3    H276280   0.581   5.005  11.555 -0.2673  0.1794  0.7290
18289TIP3   OH276281   1.794   1.015  16.143  0.4045  0.4086  0.5001
18289TIP3    H176282   1.849   1.070  16.199  0.2332  1.3236 -0.2369
18289TIP3    H276283   1.739   1.076  16.095  0.5093 -0.3711 -0.6310
18290TIP3   OH276284   6.116   4.315   4.969 -0.3186  0.1517  0.3215
18290TIP3    H176285   6.085   4.333   4.880 -1.2626 -1.5124  0.2971
18290TIP3    H276286   6.209   4.337   4.968 -0.3739  0.3198 -1.0139
18291TIP3   OH276287   1.079   0.195  10.903 -0.2198 -0.1509 -0.1372
18291TIP3    H176288   1.099   0.140  10.827 -1.5191  1.0006 -1.3220
18291TIP3    H276289   1.163   0.232  10.929  0.2669 -0.7332 -0.8673
18292TIP3   OH276290   3.046   5.101   3.579  0.1180  0.1554  0.1483
18292TIP3    H176291   3.100   5.179   3.586 -0.4092  0.6640 -1.2077
18292TIP3    H276292   2.961   5.126   3.616 -0.3292  0.5250 -1.0872
18293TIP3   OH276293   4.937   4.539   1.000  0.0507 -0.3101  0.3397
18293TIP3    H176294   4.995   4.483   0.948  0.6531  0.3172  0.3241
18293TIP3    H276295   4.973   4.534   1.089  0.4717  0.5120  0.2247
18294TIP3   OH276296   6.335   4.197   1.620 -0.1664 -0.1909 -0.1934
18294TIP3    H176297   6.334   4.113   1.575  0.5662  0.1679 -0.9060
18294TIP3    H276298   6.425   4.206   1.653 -0.1855  0.3941 -0.2860
18295TIP3   OH276299   3.314   4.765   6.371 -0.3389 -0.6363 -0.0374
18295TIP3    H176300   3.342   4.722   6.452 -2.4424 -1.5068  0.2547
18295TIP3    H276301   3.348   4.709   6.301 -1.1743 -1.5809  0.3075
18296TIP3   OH276302   1.124   1.838   3.739  0.3260 -0.7718  0.7393
18296TIP3    H176303   1.139   1.793   3.822  3.2423 -0.5372  0.3679
18296TIP3    H276304   1.153   1.776   3.672 -2.7258 -1.2698 -0.2054
18297TIP3   OH276305   1.540   1.418   4.394  0.3530 -0.1084  0.0677
18297TIP3    H176306   1.515   1.503   4.428 -1.9396 -1.2810  1.4744
18297TIP3    H276307   1.565   1.434   4.303 -2.5971  1.7120 -0.4949
18298TIP3   OH276308   0.850   6.102   5.628  0.0478  0.3805 -0.0811
18298TIP3    H176309   0.935   6.066   5.655 -0.2083  0.1216  0.3875
18298TIP3    H276310   0.790   6.077   5.699 -0.6530 -0.3864 -0.9364
18299TIP3   OH276311   3.336   0.628  17.036 -0.2816 -0.4759  0.2671
18299TIP3    H176312   3.248   0.605  17.066  0.1442  0.3052  2.1989
18299TIP3    H276313   3.351   0.716  17.071  1.1830 -0.5268 -0.2084
18300TIP3   OH276314   3.468   6.508  13.854 -0.0490 -0.6778 -0.4062
18300TIP3    H176315   3.468   6.428  13.802  1.3075 -1.2036  0.3636
18300TIP3    H276316   3.515   6.572  13.800 -0.4495 -0.6347 -0.6988
18301TIP3   OH276317   0.958   2.578  14.104  0.8384  0.2540  0.6253
18301TIP3    H176318   0.927   2.616  14.186  1.2615 -0.4254  1.1098
18301TIP3    H276319   0.931   2.486  14.109 -1.1574  0.7276 -1.0209
18302TIP3   OH276320   2.009   5.565  11.583  0.3453  0.3190  0.0443
18302TIP3    H176321   1.932   5.616  11.556 -1.6848 -1.0350  3.0857
18302TIP3    H276322   2.060   5.626  11.637 -0.3506  0.1503  0.8883
18303TIP3   OH276323   3.220   0.149  14.829  0.2137  0.0285 -0.0161
18303TIP3    H176324   3.220   0.064  14.785  1.7242 -0.1027  0.2367
18303TIP3    H276325   3.255   0.210  14.764  0.0954  0.2830  0.1565
18304TIP3   OH276326   4.951   3.654   2.307  0.0404  0.2158  0.0979
18304TIP3    H176327   4.940   3.728   2.366  0.3694  0.7226 -0.4812
18304TIP3    H276328   5.026   3.606   2.343  1.1793  1.3475 -0.7778
18305TIP3   OH276329   6.188   3.652   2.723 -0.1937 -0.3882 -0.7168
18305TIP3    H176330   6.152   3.576   2.676 -0.5713  0.5010 -1.9028
18305TIP3    H276331   6.250   3.691   2.661  0.2205  0.1118 -0.0007
18306TIP3   OH276332   2.062   2.527  13.729 -0.3805 -0.3745 -0.3625
18306TIP3    H176333   2.115   2.478  13.667 -0.4461 -1.0343  0.1015
18306TIP3    H276334   1.989   2.560  13.678 -0.9700 -1.7685 -0.4150
18307TIP3   OH276335   1.307   4.938   2.231  0.0465  0.6745 -0.5641
18307TIP3    H176336   1.273   4.891   2.307 -0.6090  2.5720  0.3715
18307TIP3    H276337   1.256   4.904   2.158 -2.1761  1.6276  0.4550
18308TIP3   OH276338   0.060   1.013  16.998 -0.0800  0.3970 -0.0017
18308TIP3    H176339   0.094   1.100  17.022 -0.1826  0.8115 -1.3369
18308TIP3    H276340   0.055   1.015  16.903 -1.2812 -0.6394  0.0349
18309TIP3   OH276341   5.820   4.766   5.614 -0.0730 -0.1435 -0.0148
18309TIP3    H176342   5.871   4.764   5.696 -0.3537  1.3079  0.1922
18309TIP3    H276343   5.886   4.757   5.545  0.3646  0.6570  0.2971
18310TIP3   OH276344   3.329   6.495  15.536 -0.2963  0.4259  0.2383
18310TIP3    H176345   3.259   6.545  15.578  0.7634  0.8851  1.4746
18310TIP3    H276346   3.405   6.508  15.592  0.8123 -0.0077 -1.1407
18311TIP3   OH276347   1.072   2.466  12.778  0.5952 -0.4613  0.3273
18311TIP3    H176348   0.997   2.410  12.758  0.6734 -0.0109 -1.3142
18311TIP3    H276349   1.038   2.528  12.843 -0.8394  0.5084 -1.2923
18312TIP3   OH276350   3.261   6.582   0.726 -0.2125  0.3136 -0.1910
18312TIP3    H176351   3.185   6.552   0.675  0.6209  0.7424 -1.7043
18312TIP3    H276352   3.224   6.641   0.791 -1.2823 -0.1457 -0.3630
18313TIP3   OH276353   3.150   0.449  16.564  0.4097  0.3176  0.1361
18313TIP3    H176354   3.121   0.430  16.475  2.2848  2.8188 -1.0834
18313TIP3    H276355   3.070   0.474  16.611 -0.1575  2.3320 -1.8244
18314TIP3   OH276356   0.231   1.997   3.224  0.2168  0.2474 -0.5348
18314TIP3    H176357   0.170   2.043   3.168 -2.9370 -2.4508  0.4940
18314TIP3    H276358   0.256   1.919   3.174 -0.5046 -0.8007  0.7158
18315TIP3   OH276359   2.358   4.588  14.496  0.2885  0.0460  0.1133
18315TIP3    H176360   2.366   4.647  14.421  0.4806 -1.0377 -0.7325
18315TIP3    H276361   2.448   4.565  14.519  0.1939 -0.5095 -0.0492
18316TIP3   OH276362   2.796   5.605   4.644  0.0021 -0.0830  0.0357
18316TIP3    H176363   2.850   5.640   4.573 -0.7565  1.8032  0.3650
18316TIP3    H276364   2.797   5.672   4.712 -1.4140 -0.7193  0.7228
18317TIP3   OH276365   1.208   4.923   5.488 -0.1276 -0.2730  0.1189
18317TIP3    H176366   1.151   4.849   5.509 -0.6109 -0.0676 -0.4358
18317TIP3    H276367   1.154   4.978   5.431  0.4744  0.1481 -0.0410
18318TIP3   OH276368   0.508   6.435  13.809  0.1345 -0.0542  0.7900
18318TIP3    H176369   0.528   6.437  13.716 -0.3042 -1.2936  0.6648
18318TIP3    H276370   0.480   6.345  13.826 -0.7519  0.4146  1.9071
18319TIP3   OH276371   4.431   1.043  13.244 -0.1352 -0.2952  0.2819
18319TIP3    H176372   4.414   0.967  13.300 -1.5815  0.5013  0.9559
18319TIP3    H276373   4.372   1.030  13.169  0.5347 -0.4654 -0.2269
18320TIP3   OH276374   3.649   0.632  15.294 -0.3905  0.0256  0.4063
18320TIP3    H176375   3.728   0.610  15.245  0.3215  2.2978  0.4766
18320TIP3    H276376   3.579   0.629  15.228  0.1201  0.2948 -0.1577
18321TIP3   OH276377   1.691   3.023   0.598 -0.1325 -0.1514  0.1733
18321TIP3    H176378   1.603   3.022   0.561 -0.6706  0.7945  1.3676
18321TIP3    H276379   1.678   3.007   0.691  0.8203  1.3961  0.5981
18322TIP3   OH276380   0.001   0.533   4.773  0.0880 -0.1051  0.0586
18322TIP3    H176381  -0.048   0.482   4.708  1.2165 -1.8291  0.5477
18322TIP3    H276382  -0.042   0.512   4.856  0.9102 -0.6997  0.3325
18323TIP3   OH276383   0.919   1.205   4.331  0.6711  0.1085 -0.1553
18323TIP3    H176384   0.959   1.226   4.416 -0.7230 -0.7015  0.7250
18323TIP3    H276385   0.992   1.174   4.278  1.9428  2.6954  0.0160
18324TIP3   OH276386   2.151   6.033   1.688  0.0478  0.0280 -0.2895
18324TIP3    H176387   2.105   5.965   1.640  0.1132  0.3337 -0.7844
18324TIP3    H276388   2.144   6.111   1.634 -1.8380  0.9673  1.2523
18325TIP3   OH276389   3.987   3.597  15.926 -0.3906  0.4016  0.4505
18325TIP3    H176390   3.907   3.584  15.875  0.9754 -0.0378 -1.6135
18325TIP3    H276391   4.049   3.533  15.891  1.2560  1.5395  1.2044
18326TIP3   OH276392   4.367   6.677   2.856 -0.1884  0.6301 -0.0014
18326TIP3    H176393   4.313   6.615   2.808 -2.1781  1.3975  1.1750
18326TIP3    H276394   4.457   6.648   2.840 -1.0669 -2.8291  0.8807
18327TIP3   OH276395   1.694   5.832  15.290  0.5069  0.2872  0.4249
18327TIP3    H176396   1.690   5.739  15.310  0.5640  0.0507 -0.6285
18327TIP3    H276397   1.612   5.868  15.324 -0.1395 -0.3941 -0.3883
18328TIP3   OH276398   1.383   5.497  17.129  0.1745  0.0066  0.2886
18328TIP3    H176399   1.465   5.464  17.091 -1.0309 -2.8745 -0.0072
18328TIP3    H276400   1.370   5.444  17.208 -0.6084  1.5290  1.1963
18329TIP3   OH276401   3.744   0.861  15.088  0.0623  0.2340 -0.0364
18329TIP3    H176402   3.757   0.886  15.179 -1.0548  0.9015 -0.0437
18329TIP3    H276403   3.827   0.881  15.045  0.5131  0.1420  0.7921
18330TIP3   OH276404   5.976   2.208  11.112  0.0868 -0.0107  0.1942
18330TIP3    H176405   5.985   2.148  11.038 -3.8803 -0.1055 -0.3079
18330TIP3    H276406   6.009   2.292  11.079  1.6460 -0.8833 -0.4970
18331TIP3   OH276407   5.954   4.027  12.483 -0.1470 -0.4313 -0.2768
18331TIP3    H176408   5.963   4.086  12.558  0.0827 -1.6802  0.7012
18331TIP3    H276409   6.002   4.071  12.413  1.6809 -0.3468  0.9658
18332TIP3   OH276410   5.664   5.738   0.621 -0.1896 -0.0693  0.2131
18332TIP3    H176411   5.647   5.734   0.716  3.3128  2.9078  1.0787
18332TIP3    H276412   5.718   5.661   0.603  0.3303  0.1270  0.9141
18333TIP3   OH276413   1.344   2.557   3.565 -0.6172 -0.3344  0.1170
18333TIP3    H176414   1.349   2.572   3.660 -0.2165 -0.4163  0.1125
18333TIP3    H276415   1.252   2.538   3.548 -0.6735 -0.4129  0.5070
18334TIP3   OH276416   0.270   4.408   4.081  0.0922 -0.1636  0.7670
18334TIP3    H176417   0.181   4.379   4.099 -0.4721  0.5363 -0.8136
18334TIP3    H276418   0.322   4.327   4.081 -1.4594 -1.2976 -3.5426
18335TIP3   OH276419   0.326   4.037   0.037  0.0857 -0.6187  0.0675
18335TIP3    H176420   0.386   4.077   0.100 -0.6594 -1.1512  1.1223
18335TIP3    H276421   0.363   3.950   0.021 -0.6725 -1.1489  1.1227
18336TIP3   OH276422   4.617   1.984   2.289 -0.2223 -0.0011 -0.3914
18336TIP3    H176423   4.621   2.078   2.303 -2.1091 -0.0642  0.9315
18336TIP3    H276424   4.578   1.974   2.202 -0.1262  0.4391 -0.4860
18337TIP3   OH276425   6.290   0.774  12.057 -0.1777  0.6704 -0.7040
18337TIP3    H176426   6.294   0.784  12.152 -1.0944 -3.0464 -0.2002
18337TIP3    H276427   6.380   0.787  12.028  0.1768  1.4475  0.6999
18338TIP3   OH276428   6.606   4.038  11.327 -0.0361 -0.0406 -0.0251
18338TIP3    H176429   6.511   4.041  11.336  0.0952  2.5316  1.0347
18338TIP3    H276430   6.625   4.089  11.248  0.5396  0.8191  0.6525
18339TIP3   OH276431   6.620   1.788  13.272 -0.4802 -0.8680  1.1235
18339TIP3    H176432   6.703   1.746  13.298 -1.4458 -2.8036  1.1288
18339TIP3    H276433   6.590   1.831  13.352  0.3519 -0.4398  1.2117
18340TIP3   OH276434   5.856   0.045  13.592  0.1715  0.2450 -0.2662
18340TIP3    H176435   5.879  -0.048  13.594  1.0989  0.4637 -0.5210
18340TIP3    H276436   5.760   0.046  13.603  0.4805 -0.5468  3.0829
18341TIP3   OH276437   5.671   6.010  16.997  0.3588  0.4119  0.1587
18341TIP3    H176438   5.695   5.923  16.964  0.6549  1.4164 -2.3429
18341TIP3    H276439   5.728   6.023  17.073  0.8959 -1.2323  0.0601
18342TIP3   OH276440   1.523   0.017   3.341 -0.4856 -0.0160  0.2890
18342TIP3    H176441   1.429   0.005   3.356 -0.5692  0.7850  0.4400
18342TIP3    H276442   1.528   0.072   3.263 -0.1459 -0.0733  0.2703
18343TIP3   OH276443   0.529   3.976   4.189 -0.0704 -0.2871  0.2732
18343TIP3    H176444   0.593   3.914   4.225  0.5188 -0.8542 -1.6749
18343TIP3    H276445   0.489   3.929   4.116 -1.9816  0.4491  0.8178
18344TIP3   OH276446   1.431   3.949  11.641  0.6718 -0.1741  0.3504
18344TIP3    H176447   1.417   3.979  11.551  0.6716 -1.3400 -0.0455
18344TIP3    H276448   1.518   3.982  11.664  0.5727  0.3362  0.0119
18345TIP3   OH276449   2.740   6.682   2.080 -0.0044 -0.2830  0.2257
18345TIP3    H176450   2.807   6.744   2.052 -1.0734  0.7042 -0.1483
18345TIP3    H276451   2.657   6.725   2.060 -0.7595 -1.2340  1.2743
18346TIP3   OH276452   5.811   4.073  15.606  0.3495  0.5348  0.2203
18346TIP3    H176453   5.808   3.983  15.574  0.7560  0.3516  0.6816
18346TIP3    H276454   5.724   4.109  15.589 -0.0061 -0.1466  0.6070
18347TIP3   OH276455   3.947   4.805  11.565 -0.1889 -0.0130 -0.3816
18347TIP3    H176456   4.013   4.858  11.519  0.3186  0.0527  0.4042
18347TIP3    H276457   3.871   4.863  11.573  0.0495  0.2957 -0.3233
18348TIP3   OH276458   0.194   5.863   3.884 -0.3046  0.0625  0.2719
18348TIP3    H176459   0.266   5.801   3.899  0.7796  1.6491  1.8881
18348TIP3    H276460   0.180   5.905   3.969 -0.8829  2.1427 -0.8003
18349TIP3   OH276461   6.096   0.139   3.090 -0.1649  0.0704 -0.7376
18349TIP3    H176462   6.135   0.156   3.005  2.0533  2.7233  0.7322
18349TIP3    H276463   6.054   0.221   3.114 -2.3516 -1.2129 -0.0447
18350TIP3   OH276464   3.485   5.709  12.766 -0.0863  0.1351  0.7410
18350TIP3    H176465   3.480   5.800  12.736 -0.5113 -0.3727 -0.7792
18350TIP3    H276466   3.563   5.705  12.820  1.2704  0.8676 -1.1151
18351TIP3   OH276467   4.677   6.527  14.606  0.0486 -0.1914  0.0054
18351TIP3    H176468   4.729   6.568  14.537 -1.3292 -0.5934 -1.3016
18351TIP3    H276469   4.645   6.600  14.659 -2.3418  0.4722 -2.2717
18352TIP3   OH276470   4.550   6.063   0.659  0.3412 -0.2590 -0.3825
18352TIP3    H176471   4.510   5.982   0.625 -0.8938  0.7119 -1.2766
18352TIP3    H276472   4.477   6.111   0.697  0.7983  1.1494 -1.2415
18353TIP3   OH276473   6.370   0.566   2.993 -0.5859  0.3424 -0.8402
18353TIP3    H176474   6.457   0.602   3.007 -0.1924 -0.6091 -0.7987
18353TIP3    H276475   6.335   0.552   3.082  0.2743 -1.7624 -0.7864
18354TIP3   OH276476   1.419   5.706   5.267 -0.0877 -0.3623 -0.4137
18354TIP3    H176477   1.485   5.688   5.335 -1.1489 -0.4037  0.6284
18354TIP3    H276478   1.367   5.625   5.263 -1.1745  0.3024  0.0526
18355TIP3   OH276479   1.346   5.676  14.404  0.1188 -0.3997  0.4898
18355TIP3    H176480   1.352   5.687  14.499 -0.3968  0.0204  0.4772
18355TIP3    H276481   1.261   5.713  14.381  0.2216 -0.5438 -0.1306
18356TIP3   OH276482   4.896   0.593   3.664  0.1075 -0.5847  0.0025
18356TIP3    H176483   4.930   0.591   3.575  1.5793  0.4718  0.5170
18356TIP3    H276484   4.835   0.519   3.669 -1.3073  0.3562 -2.3927
18357TIP3   OH276485   1.729   3.041   4.070 -0.1261  0.7433 -0.0948
18357TIP3    H176486   1.704   3.042   4.163 -1.4582  1.8676 -0.4519
18357TIP3    H276487   1.786   3.117   4.061  0.7331  0.1184 -0.0181
18358TIP3   OH276488   0.800   2.659  12.205  0.4553 -0.2673 -0.4913
18358TIP3    H176489   0.885   2.617  12.191  1.3916  1.6831 -0.8037
18358TIP3    H276490   0.792   2.723  12.134  0.2460  1.9108  1.4073
18359TIP3   OH276491   1.116   3.169  13.588 -0.3716 -0.0722  0.3186
18359TIP3    H176492   1.183   3.190  13.522 -0.1325 -1.9750 -0.0861
18359TIP3    H276493   1.060   3.104  13.545 -1.1689 -0.1314  1.4426
18360TIP3   OH276494   3.327   1.618   1.195 -0.4515  0.1630  0.3094
18360TIP3    H176495   3.361   1.651   1.112 -1.9457  1.1373  0.0719
18360TIP3    H276496   3.397   1.562   1.229  0.6535  0.7143 -1.0213
18361TIP3   OH276497   0.868   1.732  13.703 -0.2915  0.7330  0.4089
18361TIP3    H176498   0.870   1.676  13.625  2.6668  0.9527  0.2490
18361TIP3    H276499   0.887   1.820  13.670  2.2051  0.6309  1.4701
18362TIP3   OH276500   1.234   3.594   0.683  0.4974 -0.3046  0.2991
18362TIP3    H176501   1.284   3.629   0.757  0.4755  0.4335 -0.0315
18362TIP3    H276502   1.147   3.632   0.692  0.5883  0.0482 -0.2922
18363TIP3   OH276503   5.064   2.602   0.785 -0.3302  0.7705  0.6899
18363TIP3    H176504   5.104   2.619   0.870 -1.6519 -0.3137  1.5462
18363TIP3    H276505   4.978   2.643   0.790 -0.9720 -0.4913  0.4179
18364TIP3   OH276506   1.251   1.771  15.871  0.4291 -0.4785 -0.0289
18364TIP3    H176507   1.178   1.796  15.814  1.8410 -1.3911 -2.3418
18364TIP3    H276508   1.228   1.684  15.903  0.1244 -0.4201 -0.0887
18365TIP3   OH276509   1.166   1.166   2.611 -0.0946  0.4396 -0.2745
18365TIP3    H176510   1.133   1.245   2.568  1.1621  0.6596 -0.8830
18365TIP3    H276511   1.088   1.118   2.638 -0.9614  0.1826 -3.0273
18366TIP3   OH276512   5.235   5.480   3.719  0.6194 -0.2183  0.0050
18366TIP3    H176513   5.269   5.512   3.636 -3.1727 -0.4288 -1.7157
18366TIP3    H276514   5.208   5.559   3.766  1.3618 -0.1990  0.4016
18367TIP3   OH276515   3.971   3.546   1.603 -0.0471  0.0421  0.3993
18367TIP3    H176516   4.065   3.553   1.582 -0.0853  1.3871  0.5943
18367TIP3    H276517   3.954   3.452   1.607  1.3745 -0.2132  0.7046
18368TIP3   OH276518   4.674   2.132  17.186 -0.3817  0.0925 -0.1370
18368TIP3    H176519   4.623   2.085  17.252  0.4985  0.2280  0.6401
18368TIP3    H276520   4.612   2.196  17.149 -1.3136 -1.0068 -0.5361
18369TIP3   OH276521   1.585   0.693   3.609 -0.9443 -0.3314  0.5921
18369TIP3    H176522   1.628   0.754   3.550  1.2873 -1.4406  1.0313
18369TIP3    H276523   1.639   0.614   3.606 -2.1247 -1.2359  2.3086
18370TIP3   OH276524   0.378   1.210  16.619  0.5145 -0.0167  0.0432
18370TIP3    H176525   0.372   1.203  16.524 -2.3549  0.4508  0.1500
18370TIP3    H276526   0.394   1.121  16.648  1.9247 -0.0891 -0.8756
18371TIP3   OH276527   2.971   5.886   5.072  0.5616 -0.4457  0.1939
18371TIP3    H176528   2.958   5.979   5.091  1.8657 -0.5037  1.4575
18371TIP3    H276529   2.908   5.841   5.128 -1.0188 -0.2848 -1.4152
18372TIP3   OH276530   4.076   5.925   1.443 -0.6423 -0.2268 -0.3602
18372TIP3    H176531   4.168   5.900   1.454 -0.5964  0.6324  1.5671
18372TIP3    H276532   4.037   5.909   1.529 -1.4496  2.7222 -0.1116
18373TIP3   OH276533   3.109   4.270  13.687 -0.3517  0.2311 -0.4202
18373TIP3    H176534   3.098   4.225  13.603  0.6732 -1.0819  0.1318
18373TIP3    H276535   3.127   4.361  13.663 -0.7967  0.0205 -1.5962
18374TIP3   OH276536   0.607   3.550   1.447 -0.0732  0.0995  0.5573
18374TIP3    H176537   0.516   3.577   1.454  0.0816  1.0687 -0.8381
18374TIP3    H276538   0.654   3.606   1.509 -0.2103  0.7058  0.1135
18375TIP3   OH276539   5.413   2.929  11.780 -0.7520  1.1091 -0.6180
18375TIP3    H176540   5.410   2.921  11.875 -1.7100  2.5315 -0.5123
18375TIP3    H276541   5.461   3.010  11.763  1.0586 -0.1131 -1.4074
18376TIP3   OH276542   0.962   2.629   0.180  0.1848  0.5757  0.6234
18376TIP3    H176543   1.010   2.670   0.252 -0.3207 -0.1333  1.3748
18376TIP3    H276544   0.951   2.538   0.207  0.4919  0.1617 -0.6136
18377TIP3   OH276545   5.342   0.779  12.092 -0.7104 -0.3508 -0.8610
18377TIP3    H176546   5.270   0.717  12.094 -1.6300  0.6910 -1.2658
18377TIP3    H276547   5.401   0.750  12.161 -2.4390 -0.1164  0.7351
18378TIP3   OH276548   3.283   6.108  14.010  0.0063 -0.0417  0.1170
18378TIP3    H176549   3.259   6.174  13.945 -2.1046  0.0687  0.9629
18378TIP3    H276550   3.331   6.042  13.960 -1.7693 -0.0756 -1.6220
18379TIP3   OH276551   4.830   1.083  11.221  1.1023 -0.4617 -0.6437
18379TIP3    H176552   4.813   0.993  11.194 -1.8575 -0.1981  0.1425
18379TIP3    H276553   4.842   1.079  11.316 -0.3008  0.1255 -0.4340
18380TIP3   OH276554   6.593   1.537   1.031 -0.4338  0.6966  0.4022
18380TIP3    H176555   6.546   1.510   0.952 -0.9433 -1.9575  1.5597
18380TIP3    H276556   6.609   1.630   1.018 -2.5868  0.8254 -1.7855
18381TIP3   OH276557   0.945   6.559   5.827  0.3502  0.1795  0.1532
18381TIP3    H176558   0.957   6.617   5.902 -2.0417 -0.2995  0.9389
18381TIP3    H276559   0.865   6.590   5.784  0.1334 -1.3033 -0.5579
18382TIP3   OH276560   1.767   6.204   1.749  0.9688  1.0090 -0.1623
18382TIP3    H176561   1.781   6.150   1.671 -1.1372 -2.6179  1.8321
18382TIP3    H276562   1.677   6.237   1.739  1.5654  2.5939 -0.4181
18383TIP3   OH276563   1.089   2.292   2.921 -0.9371  0.1014  0.5588
18383TIP3    H176564   1.050   2.221   2.870 -1.2355  1.0509 -0.5670
18383TIP3    H276565   1.024   2.311   2.989  0.1742 -2.2598  2.3315
18384TIP3   OH276566   4.879   6.135   5.732 -0.0052 -0.0513 -0.2468
18384TIP3    H176567   4.823   6.059   5.721 -0.5633  0.2741  0.3379
18384TIP3    H276568   4.957   6.101   5.777 -0.1896 -0.2985 -0.1139
18385TIP3   OH276569   6.466   0.308   5.526 -0.0690 -0.5439 -0.1331
18385TIP3    H176570   6.443   0.383   5.581  0.1267 -1.6176  1.4504
18385TIP3    H276571   6.562   0.301   5.534  0.0616 -0.2359 -1.2607
18386TIP3   OH276572   3.421   3.216   3.814 -0.1973  0.5157  0.6188
18386TIP3    H176573   3.412   3.143   3.876 -0.0481  1.2248  1.4958
18386TIP3    H276574   3.366   3.191   3.740 -0.1069 -0.5136  0.8794
18387TIP3   OH276575   3.398   3.280  15.840 -0.2916 -0.4284 -0.2541
18387TIP3    H176576   3.411   3.372  15.863  1.6196 -0.5882 -0.6124
18387TIP3    H276577   3.383   3.280  15.746  0.2530 -0.5224 -0.3433
18388TIP3   OH276578   4.574   2.677  15.074  0.2797  0.0083 -0.0477
18388TIP3    H176579   4.525   2.685  15.156  0.0426 -0.7829 -0.1036
18388TIP3    H276580   4.524   2.613  15.023  0.5019  0.3960 -0.7563
18389TIP3   OH276581   3.455   5.350   1.713 -0.2591 -0.2932 -0.5079
18389TIP3    H176582   3.543   5.320   1.737 -0.6546  0.4459  2.0554
18389TIP3    H276583   3.421   5.390   1.793 -2.1057  1.4143 -2.0882
18390TIP3   OH276584   2.389   5.649   1.866  1.1217 -0.9475  0.1431
18390TIP3    H176585   2.351   5.734   1.842  3.2271 -0.4381 -1.5512
18390TIP3    H276586   2.333   5.617   1.937  0.2483  1.8197  0.7712
18391TIP3   OH276587   2.926   0.558   6.696 -0.0827 -0.0383 -0.0983
18391TIP3    H176588   2.948   0.484   6.640  1.6265  0.3390  0.0540
18391TIP3    H276589   2.993   0.559   6.764  0.0095  1.7119 -0.1723
18392TIP3   OH276590   5.636   1.178   1.591 -0.1807 -0.0267 -0.3797
18392TIP3    H176591   5.660   1.264   1.556 -1.5072  1.3626  1.9907
18392TIP3    H276592   5.700   1.118   1.553  2.7001  2.4639  0.3413
18393TIP3   OH276593   0.633   3.608  16.721  0.1529 -0.1112 -0.2685
18393TIP3    H176594   0.726   3.584  16.723 -0.0158 -0.8521 -0.9220
18393TIP3    H276595   0.589   3.537  16.767  0.0533  1.0246  1.4381
18394TIP3   OH276596   5.304   2.429  11.832  0.6760  0.0416  0.3890
18394TIP3    H176597   5.246   2.505  11.839  0.0474 -0.5458  1.7564
18394TIP3    H276598   5.392   2.465  11.840  0.4678  0.8285 -0.7137
18395TIP3   OH276599   3.742   0.651   0.860 -0.6063  0.1505 -0.0580
18395TIP3    H176600   3.762   0.577   0.803  0.9692 -0.3151  1.0843
18395TIP3    H276601   3.680   0.704   0.809 -0.8167 -1.3121 -1.3634
18396TIP3   OH276602   1.551   0.804   2.461  0.1915  0.1015  0.6908
18396TIP3    H176603   1.535   0.723   2.412 -0.4562  0.6673 -0.0535
18396TIP3    H276604   1.536   0.780   2.552 -0.1998 -0.5713  0.4568
18397TIP3   OH276605   6.770   6.373  17.201 -0.1926  0.4980 -1.0599
18397TIP3    H176606   6.730   6.357  17.286  0.6325  0.7478 -0.6199
18397TIP3    H276607   6.703   6.421  17.151 -1.1395 -0.7062 -0.9894
18398TIP3   OH276608   5.549   3.860   4.529  0.5073  0.2730 -0.1781
18398TIP3    H176609   5.523   3.921   4.597  1.3703  1.2545 -0.7116
18398TIP3    H276610   5.630   3.821   4.562  0.1659 -0.2921 -0.0099
18399TIP3   OH276611   1.039   1.607   0.772  0.0088  0.2926  0.1287
18399TIP3    H176612   1.080   1.536   0.722  0.0311  0.0023  0.5613
18399TIP3    H276613   1.078   1.602   0.859  0.7993  1.5137 -0.1513
18400TIP3   OH276614   4.543   4.838   1.304  0.4121 -0.2977  0.8198
18400TIP3    H176615   4.582   4.783   1.236 -0.0029 -2.3085  2.1776
18400TIP3    H276616   4.617   4.873   1.353  0.6540 -0.0584  0.2871
18401TIP3   OH276617   0.429   1.507  15.868 -0.4518  0.1296  0.2577
18401TIP3    H176618   0.451   1.429  15.919 -0.3259 -0.5174 -0.7786
18401TIP3    H276619   0.346   1.537  15.905 -1.2253 -1.3184 -0.2585
18402TIP3   OH276620   2.514   3.047   4.550  0.0751  0.3205  0.6504
18402TIP3    H176621   2.497   2.990   4.624  1.6408 -1.3175 -0.2135
18402TIP3    H276622   2.557   2.991   4.485  0.7953  2.2436 -0.5980
18403TIP3   OH276623   2.431   2.552  14.751  0.5154  0.2713  0.0614
18403TIP3    H176624   2.367   2.623  14.752  1.4511  1.1341  1.3942
18403TIP3    H276625   2.502   2.584  14.695 -0.3624 -0.8467 -1.7444
18404TIP3   OH276626   2.640   4.382   3.274 -0.5853 -0.4483  0.2269
18404TIP3    H176627   2.643   4.307   3.333  1.6462 -0.0244  0.7049
18404TIP3    H276628   2.709   4.440   3.305 -0.1675  0.3493 -2.0635
18405TIP3   OH276629   6.443   3.341   1.673  0.0936  0.1908  0.0370
18405TIP3    H176630   6.441   3.257   1.720  0.7103  0.7445  1.0823
18405TIP3    H276631   6.531   3.375   1.689 -0.4311  1.4374  0.3524
18406TIP3   OH276632   2.203   2.104   2.751  0.1266  0.0810 -0.1129
18406TIP3    H176633   2.110   2.080   2.753  0.5211 -1.5287  0.2284
18406TIP3    H276634   2.248   2.020   2.736  1.5687  0.7309  0.5433
18407TIP3   OH276635   6.612   6.491  16.359 -0.4082  0.1321  0.0646
18407TIP3    H176636   6.527   6.535  16.349 -0.6017 -0.4634 -1.0226
18407TIP3    H276637   6.611   6.422  16.292  1.5019  1.0104 -0.8967
18408TIP3   OH276638   1.772   3.289   5.504  0.0689  0.1489  0.2955
18408TIP3    H176639   1.852   3.238   5.491  0.4584  0.9495 -0.4563
18408TIP3    H276640   1.797   3.357   5.567 -0.5872 -0.8944  1.6982
18409TIP3   OH276641   0.515   2.883   3.313  0.2906 -0.3802 -0.3709
18409TIP3    H176642   0.454   2.864   3.384  0.6498 -1.9945 -0.4872
18409TIP3    H276643   0.504   2.977   3.297 -2.2048 -0.6478 -0.4577
18410TIP3   OH276644   1.873   3.162  16.066  0.0615  0.4470 -0.8611
18410TIP3    H176645   1.897   3.254  16.055  1.1165  0.4106  1.0212
18410TIP3    H276646   1.793   3.163  16.118  0.0163  0.3073 -0.9257
18411TIP3   OH276647   5.960   6.504   2.080  0.7483  0.1935 -0.2209
18411TIP3    H176648   5.941   6.520   1.987  0.3233 -0.3607 -0.2354
18411TIP3    H276649   5.940   6.586   2.124 -2.8163 -0.6871 -0.0668
18412TIP3   OH276650   5.639   5.906  16.430  0.5615 -0.1610 -0.4139
18412TIP3    H176651   5.732   5.927  16.439  0.9259 -2.0770  0.5562
18412TIP3    H276652   5.637   5.817  16.395 -0.8637 -0.7884  1.1441
18413TIP3   OH276653   1.453   5.143  17.117 -0.3244 -0.2786  0.5133
18413TIP3    H176654   1.515   5.214  17.106 -1.6891  1.0491  1.1343
18413TIP3    H276655   1.412   5.133  17.031  2.4281 -2.8466 -0.6006
18414TIP3   OH276656   0.617   3.567  15.740  0.5322 -0.3053 -0.0625
18414TIP3    H176657   0.549   3.592  15.803  2.2868  3.2345  0.5262
18414TIP3    H276658   0.678   3.513  15.790  0.0291 -0.5311  0.3132
18415TIP3   OH276659   1.704   4.019  11.602 -0.2450 -0.0794 -0.1652
18415TIP3    H176660   1.701   3.956  11.530  0.3628  1.1136 -1.2497
18415TIP3    H276661   1.780   3.993  11.653  0.5455  0.3366 -1.1261
18416TIP3   OH276662   0.683   6.016  12.327  0.3182 -0.4502  0.1264
18416TIP3    H176663   0.776   6.001  12.310 -0.2065 -2.5084 -1.1116
18416TIP3    H276664   0.655   5.941  12.379 -1.0391 -0.7182 -0.9594
18417TIP3   OH276665   3.017   1.090   0.004  0.0034  0.2739 -0.4327
18417TIP3    H176666   3.040   1.011   0.052 -1.3625 -0.2080 -0.5412
18417TIP3    H276667   3.093   1.148   0.014  0.0608 -0.1396  1.5863
18418TIP3   OH276668   1.039   3.376   3.195 -0.2625 -0.3082 -0.0129
18418TIP3    H176669   0.986   3.320   3.251 -2.2105  0.5556 -0.9506
18418TIP3    H276670   1.068   3.447   3.252 -0.6941 -0.4199  0.3503
18419TIP3   OH276671   5.231   0.701   5.171  0.2280  0.2012 -0.5320
18419TIP3    H176672   5.236   0.606   5.162  0.6095  0.1801 -0.1056
18419TIP3    H276673   5.287   0.721   5.246 -0.9842  0.6252  0.2690
18420TIP3   OH276674   5.967   5.789  13.623 -0.1557 -0.3859 -0.6484
18420TIP3    H176675   5.939   5.725  13.557  0.0919 -0.4769 -0.6649
18420TIP3    H276676   5.997   5.735  13.697 -0.4734 -0.2855 -0.4427
18421TIP3   OH276677   4.670   3.312  14.476 -0.0068 -0.1474  0.5035
18421TIP3    H176678   4.579   3.297  14.450  0.5060 -1.9462 -0.3497
18421TIP3    H276679   4.679   3.407  14.476 -1.5655  0.0353 -0.5672
18422TIP3   OH276680   4.387   1.209   1.095  0.2563 -0.5819 -0.5887
18422TIP3    H176681   4.320   1.204   1.163  1.5283 -2.8555  0.5728
18422TIP3    H276682   4.366   1.138   1.034  1.8792 -1.6742  0.0790
18423TIP3   OH276683   0.856   2.376  12.040  0.7300 -0.0325 -0.3371
18423TIP3    H176684   0.790   2.364  12.108 -0.2696  1.6719 -0.9981
18423TIP3    H276685   0.923   2.430  12.081 -0.8293  2.6912 -1.2952
18424TIP3   OH276686   0.327   6.064   3.498  0.8635 -0.5757  0.3258
18424TIP3    H176687   0.404   6.051   3.442  1.1475  2.4050 -0.0609
18424TIP3    H276688   0.331   6.155   3.525 -2.0380 -0.5928  1.0890
18425TIP3   OH276689   0.044   1.862  15.589 -0.2713 -0.1492 -0.0809
18425TIP3    H176690   0.057   1.842  15.496  0.8675  1.1496 -0.2135
18425TIP3    H276691   0.071   1.782  15.635  1.2617 -0.0501 -0.7621
18426TIP3   OH276692   1.751   2.020  15.651  0.2063  0.1000  0.0967
18426TIP3    H176693   1.689   1.984  15.713  0.3908  0.7240  0.6437
18426TIP3    H276694   1.712   2.104  15.623  0.5586  0.2536  0.0617
18427TIP3   OH276695   4.066   5.249   4.817  0.2142  0.3842 -0.4697
18427TIP3    H176696   4.139   5.310   4.810  0.7783 -0.3935 -1.4308
18427TIP3    H276697   3.988   5.303   4.802  0.6310  1.0992 -0.0515
18428TIP3   OH276698   5.407   0.627   1.874  0.5619 -0.3945 -0.3374
18428TIP3    H176699   5.471   0.618   1.803  1.0037 -1.8054  0.2255
18428TIP3    H276700   5.455   0.603   1.953  0.2486  1.7870  0.5503
18429TIP3   OH276701   5.650   3.179  15.342  0.0297  0.0120 -0.1902
18429TIP3    H176702   5.636   3.255  15.398 -0.7056 -0.7061  0.6035
18429TIP3    H276703   5.566   3.168  15.297  1.0543  1.4961 -2.5948
18430TIP3   OH276704   1.633   2.013  13.423 -0.0649  0.2238  0.3740
18430TIP3    H176705   1.676   1.974  13.347  1.0890  0.7985  0.7181
18430TIP3    H276706   1.660   1.959  13.497 -1.2243 -0.3637  0.3765
18431TIP3   OH276707   3.796   0.187   3.255 -0.5266 -0.3631  0.1804
18431TIP3    H176708   3.734   0.132   3.207 -0.2887 -1.7308  1.4119
18431TIP3    H276709   3.875   0.185   3.201 -1.6765  1.7751 -1.6339
18432TIP3   OH276710   2.296   2.683  13.639  0.3601  0.1448  0.0184
18432TIP3    H176711   2.222   2.648  13.689  1.0636 -2.9171 -0.9484
18432TIP3    H276712   2.261   2.696  13.551  0.9067 -1.2676 -0.4313
18433TIP3   OH276713   4.581   1.239   5.218 -0.4019  1.2135 -0.4636
18433TIP3    H176714   4.652   1.217   5.156  1.4744  2.9885  0.9792
18433TIP3    H276715   4.620   1.225   5.304 -2.1536  1.3079  0.3593
18434TIP3   OH276716   0.876   0.137  12.825 -0.1780 -0.4583  0.5124
18434TIP3    H176717   0.941   0.207  12.837 -1.0209  0.4941 -0.3580
18434TIP3    H276718   0.928   0.057  12.821  0.9166  0.2484  0.2837
18435TIP3   OH276719   5.586   4.870   0.367 -0.2439 -0.4081 -0.3606
18435TIP3    H176720   5.653   4.813   0.328  0.1191  0.4240 -0.9706
18435TIP3    H276721   5.507   4.854   0.315  0.2501  0.7331 -1.4872
18436TIP3   OH276722   6.364   0.983   1.360 -0.3267  0.2161 -0.5894
18436TIP3    H176723   6.399   0.922   1.425 -1.7234  1.7263  1.6877
18436TIP3    H276724   6.436   1.045   1.344 -0.0734  0.0146 -0.2427
18437TIP3   OH276725   1.195   2.164  14.785  0.4423  0.1490  0.0239
18437TIP3    H176726   1.223   2.247  14.825 -2.8486  1.4974 -0.2769
18437TIP3    H276727   1.180   2.106  14.860 -0.0372  0.7821  0.4287
18438TIP3   OH276728   6.232   5.399  16.815  0.8999 -0.3280 -0.0010
18438TIP3    H176729   6.257   5.357  16.733 -0.4922 -1.6063  0.2154
18438TIP3    H276730   6.218   5.327  16.876 -0.4171  0.4953  0.6832
18439TIP3   OH276731   6.697   5.350  11.258  0.4776 -0.2775 -0.0456
18439TIP3    H176732   6.663   5.342  11.347 -0.0713 -0.7124 -0.2863
18439TIP3    H276733   6.708   5.259  11.229  0.4461 -0.1385 -0.4987
18440TIP3   OH276734   2.818   2.019  14.155 -0.5005 -0.1171  0.3689
18440TIP3    H176735   2.829   1.961  14.231  1.0840 -0.0057  0.2434
18440TIP3    H276736   2.795   1.960  14.083  0.1116 -0.4792  0.4649
18441TIP3   OH276737   0.945   6.090  14.866  0.1711 -0.4453 -0.1503
18441TIP3    H176738   1.035   6.067  14.843 -0.4960 -0.4694 -2.9029
18441TIP3    H276739   0.935   6.180  14.834 -0.4485 -0.0267  1.1775
18442TIP3   OH276740   3.451   6.207   4.680  0.2688  0.1142 -0.4956
18442TIP3    H176741   3.501   6.225   4.600  0.4718  1.0274 -0.1654
18442TIP3    H276742   3.360   6.199   4.651  0.3881  0.0947 -0.8612
18443TIP3   OH276743   1.722   1.362   2.875 -0.1613  0.0026  0.2108
18443TIP3    H176744   1.713   1.268   2.891  1.7556 -0.1468  0.5911
18443TIP3    H276745   1.665   1.379   2.801  0.6835 -1.7790 -0.8926
18444TIP3   OH276746   3.478   1.750   1.624  0.4370 -0.0159  0.5224
18444TIP3    H176747   3.473   1.838   1.661 -0.2013  0.2597 -0.2034
18444TIP3    H276748   3.397   1.740   1.575  0.1986 -1.2648  1.1445
18445TIP3   OH276749   2.698   5.884  12.503 -0.5231  0.0606 -0.0522
18445TIP3    H176750   2.667   5.925  12.422  1.4729 -1.6567 -1.7484
18445TIP3    H276751   2.736   5.800  12.474 -2.0327 -1.7422  2.9630
18446TIP3   OH276752   4.881   5.453   3.958 -0.0946  0.1392 -0.6842
18446TIP3    H176753   4.801   5.488   3.918 -0.7663 -1.5837 -0.8945
18446TIP3    H276754   4.874   5.480   4.050 -0.2703  1.0987 -0.9633
18447TIP3   OH276755   6.563   6.691  12.005  0.1564 -0.1740  0.2504
18447TIP3    H176756   6.504   6.621  11.978 -0.0894  0.5688 -1.1997
18447TIP3    H276757   6.581   6.673  12.097 -4.4670  1.0962  1.5249
18448TIP3   OH276758   0.544   6.182   2.901  0.3386 -0.3585  0.2223
18448TIP3    H176759   0.527   6.088   2.901 -0.6595 -0.1853  1.4667
18448TIP3    H276760   0.622   6.192   2.956  0.3635 -0.4418  0.2032
18449TIP3   OH276761   2.692   1.925  16.942 -0.3003 -0.0087 -0.3767
18449TIP3    H176762   2.717   1.905  17.032 -2.5740 -2.4587 -0.2324
18449TIP3    H276763   2.612   1.874  16.927 -1.7100  2.7377 -2.7874
18450TIP3   OH276764   6.332   0.019   3.393 -0.4987  0.1353  0.9007
18450TIP3    H176765   6.251   0.057   3.429 -1.0369 -0.0557 -0.0842
18450TIP3    H276766   6.302  -0.041   3.325  0.3568 -1.9516  2.3130
18451TIP3   OH276767   4.467   0.008  13.452 -0.0649 -0.5129  0.1022
18451TIP3    H176768   4.506  -0.059  13.509  0.2150  0.1750  0.7155
18451TIP3    H276769   4.419  -0.043  13.386 -0.1644 -1.3160  0.7802
18452TIP3   OH276770   2.103   1.680   0.718  0.7065 -0.2633  0.0065
18452TIP3    H176771   2.054   1.761   0.705  2.2438  0.5664 -0.8632
18452TIP3    H276772   2.056   1.633   0.787 -2.0853 -0.1658 -1.7535
18453TIP3   OH276773   6.456   1.565  10.854  0.4690 -0.4505 -0.3551
18453TIP3    H176774   6.467   1.470  10.844 -0.0783 -0.4880 -0.6254
18453TIP3    H276775   6.388   1.574  10.920 -0.4072 -0.2605 -1.2790
18454TIP3   OH276776   4.718   1.526   4.767 -0.5851 -0.0889  0.2777
18454TIP3    H176777   4.750   1.451   4.717 -1.6621 -1.3024  1.3575
18454TIP3    H276778   4.650   1.565   4.712 -2.2816 -1.8591  1.0739
18455TIP3   OH276779   2.346   6.017   4.045 -0.1812 -0.1020  0.5514
18455TIP3    H176780   2.318   5.981   3.962  1.0629  1.3928 -0.5557
18455TIP3    H276781   2.404   5.951   4.083 -1.3711 -1.1182  0.6108
18456TIP3   OH276782   1.889   1.960   3.009 -0.7926 -0.2070 -0.1705
18456TIP3    H176783   1.878   2.010   2.928  0.5007  1.3154  0.5601
18456TIP3    H276784   1.918   1.874   2.980 -0.3191  0.3321 -1.3319
18457TIP3   OH276785   6.036   0.989   4.505 -0.0872 -0.3406 -0.2326
18457TIP3    H176786   6.091   0.940   4.444 -0.4600 -0.1746 -0.7101
18457TIP3    H276787   5.999   0.922   4.562  0.2007 -0.5080 -0.2418
18458TIP3   OH276788   0.490   6.147   5.530 -0.6829  0.0662 -0.1788
18458TIP3    H176789   0.470   6.095   5.452 -0.0899  0.0610 -0.3292
18458TIP3    H276790   0.404   6.164   5.571 -1.1014  1.0605 -1.4530
18459TIP3   OH276791   0.556   2.741   2.620  0.2277  0.3914  0.0062
18459TIP3    H176792   0.509   2.698   2.549 -1.0374  0.5036  0.7556
18459TIP3    H276793   0.648   2.716   2.607 -0.2492 -1.1719 -0.5422
18460TIP3   OH276794   5.557   1.315  13.371  0.0229  0.4029 -0.3566
18460TIP3    H176795   5.634   1.362  13.403  0.7279 -1.9874  1.6062
18460TIP3    H276796   5.592   1.250  13.311 -0.7216  0.8448 -1.2870
18461TIP3   OH276797   4.705   0.290   2.817 -0.8089  0.8086 -0.2329
18461TIP3    H176798   4.756   0.213   2.841 -0.5990  0.7703 -0.7907
18461TIP3    H276799   4.771   0.354   2.790 -0.8086  2.0189  2.4948
18462TIP3   OH276800   5.351   0.360   1.701 -0.2737  0.6080 -0.2820
18462TIP3    H176801   5.377   0.447   1.670  0.8009  0.8896  1.3444
18462TIP3    H276802   5.433   0.317   1.725 -0.8759 -0.4931 -0.1419
18463TIP3   OH276803   3.587   3.537  16.990  0.1689  0.1534  0.0861
18463TIP3    H176804   3.494   3.515  16.978  0.2643 -0.0672 -0.2229
18463TIP3    H276805   3.595   3.554  17.084  0.0310 -0.7987  0.2716
18464TIP3   OH276806   0.859   3.688   2.876 -0.1890  0.4121  0.2739
18464TIP3    H176807   0.803   3.616   2.902  0.8399 -0.3425  0.4113
18464TIP3    H276808   0.946   3.649   2.865  0.1731  1.4252 -0.6141
18465TIP3   OH276809   3.426   2.194  13.690  0.3729  0.2052 -0.0815
18465TIP3    H176810   3.352   2.184  13.750  1.0823 -1.9831  0.5046
18465TIP3    H276811   3.394   2.251  13.621 -2.1247 -1.3118 -0.2448
18466TIP3   OH276812   5.854   0.284   2.444  0.0395 -0.4592  0.1241
18466TIP3    H176813   5.775   0.239   2.416 -0.6804  1.3845 -0.9091
18466TIP3    H276814   5.921   0.257   2.382 -0.8171  1.2481 -1.5881
18467TIP3   OH276815   5.784   2.737   0.281 -0.4474 -0.0970 -0.2286
18467TIP3    H176816   5.820   2.734   0.192 -1.5795  0.9960 -0.7382
18467TIP3    H276817   5.733   2.657   0.288 -2.2312  0.9014 -1.4027
18468TIP3   OH276818   3.494   3.374   1.796 -0.0827  0.4287 -0.7603
18468TIP3    H176819   3.456   3.423   1.870  0.1569 -1.3280  0.5527
18468TIP3    H276820   3.569   3.329   1.833 -1.1659 -2.1164 -1.5847
18469TIP3   OH276821   3.241   5.028   2.987 -0.4284  0.1072 -0.1412
18469TIP3    H176822   3.241   5.106   3.041 -0.5606  0.0785 -0.1010
18469TIP3    H276823   3.218   5.059   2.899 -1.7369 -0.0680  0.1306
18470TIP3   OH276824   6.528   0.543  14.372  0.8254 -0.4514 -0.1086
18470TIP3    H176825   6.479   0.472  14.413 -2.0258  0.5389 -1.6392
18470TIP3    H276826   6.529   0.521  14.279  0.0799  1.3587 -0.5728
18471TIP3   OH276827   3.982   3.289  15.634 -0.0732  0.0659  0.0653
18471TIP3    H176828   3.907   3.260  15.582 -0.3072 -0.7214  0.8356
18471TIP3    H276829   3.976   3.385  15.632  0.2913  0.0658 -1.8729
18472TIP3   OH276830   0.920   4.316   3.415  0.0087  0.8204 -0.5221
18472TIP3    H176831   0.878   4.266   3.484  0.9536  1.7025  0.7060
18472TIP3    H276832   0.876   4.401   3.417  0.8254  1.2336 -0.2387
18473TIP3   OH276833   3.839   6.145   5.508 -0.1508 -0.0119 -0.0541
18473TIP3    H176834   3.904   6.084   5.545 -0.8093 -2.4659 -2.8064
18473TIP3    H276835   3.876   6.232   5.525  2.8547 -1.2964  0.2540
18474TIP3   OH276836   0.006   0.778  17.112  0.0010  0.1948  0.1553
18474TIP3    H176837   0.009   0.776  17.208  0.2938  0.6221  0.1547
18474TIP3    H276838   0.066   0.848  17.087 -2.7380  2.4996 -0.2116
18475TIP3   OH276839   0.143   6.136  11.636 -0.7774  0.9478  0.1200
18475TIP3    H176840   0.172   6.221  11.602 -0.4448  0.7700 -0.0487
18475TIP3    H276841   0.119   6.086  11.558  1.3728  0.0327  0.0092
18476TIP3   OH276842   1.429   3.230   5.080 -0.3455  0.1354 -0.1904
18476TIP3    H176843   1.506   3.225   5.024 -0.4639 -0.7527 -0.2893
18476TIP3    H276844   1.463   3.254   5.166  0.0125  0.0406 -0.3045
18477TIP3   OH276845   3.581   4.311   4.888 -0.0888  0.5251 -0.2131
18477TIP3    H176846   3.586   4.335   4.980  0.2568  0.7723 -0.2942
18477TIP3    H276847   3.529   4.231   4.887  0.3335  0.2345  0.2520
18478TIP3   OH276848   4.672   5.965  15.869  0.0046  0.1924 -0.1626
18478TIP3    H176849   4.680   6.010  15.952  1.4015  1.5789 -1.0363
18478TIP3    H276850   4.579   5.943  15.863 -0.2656  0.8786  1.3331
18479TIP3   OH276851   0.161   0.921  16.274  0.4617 -0.3049 -0.6211
18479TIP3    H176852   0.135   1.009  16.300  0.6743 -0.0631 -1.2099
18479TIP3    H276853   0.159   0.870  16.355  0.6395  0.3144 -0.2241
18480TIP3   OH276854   1.598   4.777  17.152  0.4207  0.1404  0.5622
18480TIP3    H176855   1.635   4.832  17.083 -1.3548  1.3020  0.5168
18480TIP3    H276856   1.578   4.838  17.223 -0.3181 -0.6460  1.0353
18481TIP3   OH276857   4.911   5.120  14.717  0.0862 -1.0107  0.2122
18481TIP3    H176858   4.844   5.062  14.753 -0.0243 -1.7895 -1.1804
18481TIP3    H276859   4.965   5.144  14.791 -0.6737 -1.8277  1.0430
18482TIP3   OH276860   2.073   3.592  12.789  0.0731  0.2392 -0.1963
18482TIP3    H176861   2.044   3.505  12.761 -2.3935  0.5205  1.2531
18482TIP3    H276862   2.151   3.576  12.842 -0.5184 -1.1285  0.2818
18483TIP3   OH276863   4.578   0.795  13.119 -0.5592  0.1368  0.1747
18483TIP3    H176864   4.661   0.760  13.153 -0.1755  1.4981  0.6807
18483TIP3    H276865   4.530   0.822  13.197  0.0477  2.6713 -0.2827
18484TIP3   OH276866   2.549   6.661  15.370  0.2140  0.3629  0.6873
18484TIP3    H176867   2.488   6.730  15.393 -0.0371  0.8632 -1.3340
18484TIP3    H276868   2.585   6.689  15.285  0.0368 -2.0225 -0.2088
18485TIP3   OH276869   0.274   0.964   5.979 -0.2892 -0.2374  0.5618
18485TIP3    H176870   0.214   0.909   6.030 -0.2194 -0.5941  0.2609
18485TIP3    H276871   0.354   0.911   5.973  0.4369  0.6746  1.8857
18486TIP3   OH276872   4.758   1.679  15.885  0.1532  0.3790 -0.0544
18486TIP3    H176873   4.784   1.714  15.799  1.7662 -0.6278 -0.0056
18486TIP3    H276874   4.821   1.717  15.946 -0.5480  0.5225  0.5800
18487TIP3   OH276875   0.386   4.874   5.420  0.2735 -0.3924  0.4565
18487TIP3    H176876   0.423   4.786   5.432  0.3784 -0.1195  2.2042
18487TIP3    H276877   0.312   4.877   5.481 -2.1557 -0.6190 -2.3202
18488TIP3   OH276878   0.902   5.411  15.236 -0.4785 -0.1316 -0.5872
18488TIP3    H176879   0.928   5.501  15.257  1.0153 -0.2934 -1.6031
18488TIP3    H276880   0.851   5.382  15.311  0.9619  0.7931  0.7930
18489TIP3   OH276881   0.682   3.030   0.627  0.0868  0.0812  0.0730
18489TIP3    H176882   0.626   2.955   0.645 -0.8734  1.1605  1.7646
18489TIP3    H276883   0.771   2.996   0.634 -0.3355 -1.4200 -1.5846
18490TIP3   OH276884   3.858   3.107  12.097 -0.7202  0.2084  0.0285
18490TIP3    H176885   3.903   3.183  12.061  0.1121 -0.7188 -0.9087
18490TIP3    H276886   3.925   3.057  12.143 -1.2452  0.0053  0.5905
18491TIP3   OH276887   6.479   1.850   4.938  0.0405 -0.5565  0.0119
18491TIP3    H176888   6.386   1.869   4.951  0.2658  1.3735 -1.0283
18491TIP3    H276889   6.523   1.935   4.948  1.6035 -1.2974 -0.3207
18492TIP3   OH276890   6.629   2.895  12.253  0.1643  0.6574 -0.1518
18492TIP3    H176891   6.715   2.920  12.289  0.4506 -0.7559  0.1890
18492TIP3    H276892   6.634   2.920  12.161  1.6260 -1.0042 -0.5595
18493TIP3   OH276893   3.743   4.535   1.666  0.1618 -0.0239  0.1331
18493TIP3    H176894   3.697   4.591   1.604  1.6926  0.1888 -0.8373
18493TIP3    H276895   3.707   4.559   1.752  1.5496  3.2369 -0.1295
18494TIP3   OH276896   2.691   0.732   1.283 -0.4298  0.1438 -0.2425
18494TIP3    H176897   2.743   0.716   1.204  0.7155 -1.6631  0.8239
18494TIP3    H276898   2.645   0.813   1.266  3.1559  2.1044 -1.0564
18495TIP3   OH276899   6.353   6.538   5.088 -0.3973 -0.0261 -0.1582
18495TIP3    H176900   6.411   6.614   5.085  1.6564 -1.5682 -0.2595
18495TIP3    H276901   6.337   6.516   4.996  0.7163 -0.9588 -0.1461
18496TIP3   OH276902   5.210   6.488  15.793 -0.5120 -0.1748  0.3371
18496TIP3    H176903   5.233   6.402  15.830  2.8732  0.1837 -0.8014
18496TIP3    H276904   5.266   6.550  15.840 -2.8040  1.4664  1.0194
18497TIP3   OH276905   0.708   0.782  13.501 -0.1306  0.1258  0.2186
18497TIP3    H176906   0.710   0.745  13.413  0.9546 -1.0818  0.7374
18497TIP3    H276907   0.682   0.709  13.557  0.1454  0.6333  1.0129
18498TIP3   OH276908   0.077   5.991  11.979  0.3446  0.0847  0.0352
18498TIP3    H176909   0.118   6.029  12.057 -0.1100  0.3029  0.1673
18498TIP3    H276910   0.004   6.050  11.959  0.2214 -0.1891 -0.3233
18499TIP3   OH276911   2.146   0.799   4.744 -0.3773  0.3515 -0.4075
18499TIP3    H176912   2.098   0.717   4.732  0.8382 -0.1893 -1.6756
18499TIP3    H276913   2.078   0.867   4.743 -1.4928 -0.6895  1.5834
18500TIP3   OH276914   1.559   5.252  13.664 -0.2341  0.1499  0.2601
18500TIP3    H176915   1.544   5.160  13.639 -0.5036 -0.0799  1.2513
18500TIP3    H276916   1.617   5.286  13.596  0.5584 -0.9963  0.3458
18501TIP3   OH276917   1.946   4.514   2.209 -0.5676 -0.0591 -0.0742
18501TIP3    H176918   2.029   4.562   2.209  0.0267 -1.0591 -1.7296
18501TIP3    H276919   1.951   4.459   2.288  0.3475 -0.1284 -0.1700
18502TIP3   OH276920   5.000   3.097  16.350  0.1563  0.4626 -0.5925
18502TIP3    H176921   5.051   3.019  16.326 -2.8154 -2.0913  1.0905
18502TIP3    H276922   4.938   3.107  16.278 -1.4690 -0.6043  0.6232
18503TIP3   OH276923   2.995   2.815   4.605  0.0231 -0.4933  0.1706
18503TIP3    H176924   3.060   2.754   4.641 -0.8715 -0.2961  2.1522
18503TIP3    H276925   2.991   2.887   4.669 -2.8179 -0.9411  0.5609
18504TIP3   OH276926   6.446   2.340   1.378  0.2620  0.0599  0.1098
18504TIP3    H176927   6.362   2.382   1.360  1.1337  2.5040  1.4611
18504TIP3    H276928   6.507   2.380   1.316  0.5230 -1.4372 -0.6209
18505TIP3   OH276929   1.551   4.297   2.620  0.4306 -0.0482 -0.3235
18505TIP3    H176930   1.526   4.347   2.542  1.3045  1.3798  0.2924
18505TIP3    H276931   1.643   4.322   2.636  0.1631 -0.0765  1.3367
18506TIP3   OH276932   2.962   5.307   5.060  0.0215  0.1401  0.2055
18506TIP3    H176933   2.972   5.236   4.996 -0.4604  0.4237 -0.1946
18506TIP3    H276934   2.994   5.270   5.142  0.6357 -0.2348 -0.1972
18507TIP3   OH276935   5.077   5.130   4.837 -0.7210  0.1699  0.3412
18507TIP3    H176936   5.110   5.136   4.747  1.7563  0.6359  1.2506
18507TIP3    H276937   4.981   5.129   4.827 -0.4877 -0.0000 -2.2992
18508TIP3   OH276938   5.904   4.305   5.524  0.3587  0.2925  0.0165
18508TIP3    H176939   5.983   4.325   5.574  1.9997  1.6014 -2.9661
18508TIP3    H276940   5.840   4.371   5.552  1.5837  1.6321 -0.3064
18509TIP3   OH276941   4.418   3.697  12.968  0.2929  0.2324 -0.6667
18509TIP3    H176942   4.326   3.716  12.952  0.3691  1.2627  0.1414
18509TIP3    H276943   4.439   3.740  13.051  1.3800 -0.3825 -0.6057
18510TIP3   OH276944   6.784   1.441  14.147  0.5243  0.3397 -0.0224
18510TIP3    H176945   6.842   1.429  14.222  2.3662 -0.9419 -1.6138
18510TIP3    H276946   6.701   1.403  14.175  1.7904 -2.0688  0.6549
18511TIP3   OH276947   3.826   0.146  11.970  0.2575  0.2224 -0.6124
18511TIP3    H176948   3.823   0.051  11.976 -1.0003  0.2928  0.2349
18511TIP3    H276949   3.773   0.167  11.892  0.3261  0.2373 -0.6551
18512TIP3   OH276950   5.949   4.820  16.724 -0.3778 -0.4810  0.3595
18512TIP3    H176951   5.983   4.747  16.774 -0.6538  0.0501  1.3311
18512TIP3    H276952   5.995   4.897  16.758 -1.5893  0.0667  0.7861
18513TIP3   OH276953   5.211   1.635   2.819 -0.3495  0.0545  0.5798
18513TIP3    H176954   5.295   1.664   2.855 -0.8890  2.6423 -0.1461
18513TIP3    H276955   5.149   1.646   2.891 -0.8496  2.3221 -0.1473
18514TIP3   OH276956   2.053   6.255   1.841 -0.2148 -0.3881  0.6523
18514TIP3    H176957   1.967   6.215   1.836  0.1336 -1.0330 -0.3954
18514TIP3    H276958   2.113   6.185   1.814  0.5778  0.2332  0.7979
18515TIP3   OH276959   4.650   0.134  15.689  0.1776  0.5294 -0.1927
18515TIP3    H176960   4.636   0.118  15.596 -0.7249  0.0665  0.0222
18515TIP3    H276961   4.638   0.049  15.730 -0.4706  0.9453  0.4768
18516TIP3   OH276962   3.375   0.955   1.351  0.4708  0.2387  0.2605
18516TIP3    H176963   3.293   1.003   1.366 -0.4327 -0.8253 -1.0746
18516TIP3    H276964   3.364   0.873   1.398  1.2612  0.5850  1.0477
18517TIP3   OH276965   0.734   2.270   3.273 -1.0420 -0.6399 -0.2618
18517TIP3    H176966   0.644   2.239   3.288 -0.2162 -2.6661  0.7192
18517TIP3    H276967   0.788   2.211   3.324  0.8943  0.4471 -1.0045
18518TIP3   OH276968   0.342   4.522  12.381  0.4489  0.2326  0.4247
18518TIP3    H176969   0.380   4.605  12.350  0.1130  1.8408  4.0839
18518TIP3    H276970   0.418   4.467  12.400  0.8921  1.6599  3.0001
18519TIP3   OH276971   4.151   0.420   0.267 -0.1009  0.1190 -0.0786
18519TIP3    H176972   4.125   0.447   0.179  2.1594 -0.1002 -0.8538
18519TIP3    H276973   4.246   0.432   0.269  0.0591 -1.1493  1.8867
18520TIP3   OH276974   5.195   4.862   4.909  0.2868  0.4414 -0.0384
18520TIP3    H176975   5.246   4.898   4.982 -0.1244 -1.8993  1.4598
18520TIP3    H276976   5.260   4.816   4.855 -0.1173 -2.4633  1.8221
18521TIP3   OH276977   4.995   5.468  16.389  0.6858 -0.2821 -0.6085
18521TIP3    H176978   4.924   5.429  16.440  0.5610 -1.9143 -2.0009
18521TIP3    H276979   4.976   5.445  16.298  2.2224  0.4796 -1.1513
18522TIP3   OH276980   3.822   3.156  14.371 -0.2338 -0.4403 -0.1037
18522TIP3    H176981   3.735   3.165  14.332  0.2361  0.5760 -0.9397
18522TIP3    H276982   3.882   3.153  14.296  0.4033 -1.8084  0.4389
18523TIP3   OH276983   3.786   0.978  12.712  0.0652  0.7640  0.5460
18523TIP3    H176984   3.701   0.976  12.668  0.3751  0.1423 -0.0429
18523TIP3    H276985   3.818   0.888  12.705  0.0695  0.6116  2.1610
18524TIP3   OH276986   1.029   6.168  11.163  0.1839 -0.0789 -0.2846
18524TIP3    H176987   1.119   6.163  11.131  0.9510 -1.6575  1.9918
18524TIP3    H276988   1.020   6.092  11.220 -1.9749  1.1469  1.0649
18525TIP3   OH276989   1.266   6.275   2.065 -0.3249  0.0939 -0.0344
18525TIP3    H176990   1.244   6.345   2.004 -1.2036  0.2298  0.4328
18525TIP3    H276991   1.288   6.201   2.009  0.8925  0.8301 -0.5285
18526TIP3   OH276992   2.436   6.058  10.765 -0.0269  0.4729 -0.2784
18526TIP3    H176993   2.372   5.987  10.762 -0.0480  0.5391 -1.7633
18526TIP3    H276994   2.512   6.023  10.718 -0.1073  1.4992 -1.1770
18527TIP3   OH276995   5.665   3.155  12.999 -0.2489 -0.1086 -0.0562
18527TIP3    H176996   5.712   3.125  13.077 -2.7719  0.3820  1.7047
18527TIP3    H276997   5.642   3.246  13.018 -2.9870 -0.7078 -0.3213
18528TIP3   OH276998   1.120   6.356   4.774 -0.4855  0.4674 -0.3577
18528TIP3    H176999   1.171   6.437   4.773  0.1611  0.0648 -0.1038
18528TIP3    H277000   1.185   6.286   4.763 -1.0081 -0.0351 -0.2773
18529TIP3   OH277001   2.290   1.546  15.875 -0.3313  0.1955  0.5629
18529TIP3    H177002   2.271   1.455  15.898  1.5308  0.0258  1.5297
18529TIP3    H277003   2.204   1.586  15.863 -1.1982 -1.4043  1.2537
18530TIP3   OH277004   5.053   1.195   4.804 -0.1603  0.1783 -0.6674
18530TIP3    H177005   5.033   1.205   4.898 -1.9847 -0.3331 -0.9790
18530TIP3    H277006   5.085   1.281   4.778 -0.4538  0.5800  0.2485
18531TIP3   OH277007   5.501   2.639   5.428  0.1968 -0.4640  0.1250
18531TIP3    H177008   5.576   2.649   5.370 -0.2687  0.9830 -0.2398
18531TIP3    H277009   5.469   2.728   5.442 -0.6828 -0.9466  1.3001
18532TIP3   OH277010   3.089   2.599   5.010 -0.1714  0.4763 -0.2761
18532TIP3    H177011   3.097   2.662   4.939  0.0510 -0.4969 -1.1183
18532TIP3    H277012   3.049   2.648   5.082  1.5800  2.0540 -0.3251
18533TIP3   OH277013   0.246   4.936   5.188  0.3176 -0.0822  0.7677
18533TIP3    H177014   0.296   4.943   5.269  2.8088  1.3595 -0.8089
18533TIP3    H277015   0.312   4.919   5.121 -1.7196 -1.5206 -0.9335
18534TIP3   OH277016   5.080   3.869   3.949  0.0812 -0.0381  0.0366
18534TIP3    H177017   5.062   3.851   4.041  0.1549  1.9462  0.4583
18534TIP3    H277018   5.039   3.796   3.902 -1.4020 -0.2024  1.5273
18535TIP3   OH277019   0.508   6.469   4.465 -0.1190 -0.0485 -0.1433
18535TIP3    H177020   0.522   6.563   4.451  1.8436 -0.2721  0.1104
18535TIP3    H277021   0.420   6.452   4.431 -0.8091  2.0205  0.4908
18536TIP3   OH277022   1.806   1.948  11.876  0.0835 -0.1059  0.1882
18536TIP3    H177023   1.770   2.030  11.911 -0.4062 -0.6340  0.9501
18536TIP3    H277024   1.892   1.972  11.841 -0.4978  0.9383 -0.5528
18537TIP3   OH277025   5.569   0.694  16.540  0.3178  0.4452 -0.3418
18537TIP3    H177026   5.549   0.720  16.450  0.0593 -0.9960 -0.7157
18537TIP3    H277027   5.491   0.719  16.590  0.0028  0.2206 -0.7224
18538TIP3   OH277028   2.978   3.239  13.655 -0.7069  0.6436  0.4976
18538TIP3    H177029   2.912   3.199  13.598 -0.6777  1.3011  0.0012
18538TIP3    H277030   2.934   3.315  13.693 -0.3335  0.9090  0.4001
18539TIP3   OH277031   3.998   0.726   3.700  0.2192 -0.1454  0.4251
18539TIP3    H177032   3.977   0.776   3.621 -2.4451  0.8329  1.7136
18539TIP3    H277033   3.985   0.787   3.772  2.8794 -0.9617  1.6747
18540TIP3   OH277034   3.793   3.435   3.762 -0.3911  0.2367  1.2407
18540TIP3    H177035   3.889   3.441   3.757 -0.3300 -1.7746 -0.7980
18540TIP3    H277036   3.762   3.507   3.707 -0.0540  0.9119  1.9309
18541TIP3   OH277037   4.968   5.313   5.921 -0.3877 -0.1403  0.2524
18541TIP3    H177038   4.917   5.340   5.844  2.2139  0.4766 -1.3270
18541TIP3    H277039   5.005   5.228   5.896  1.3921  0.5838  0.3255
18542TIP3   OH277040   1.301   2.690   0.259  0.1777  0.0051 -0.0330
18542TIP3    H177041   1.298   2.750   0.184  1.2852  1.9267  1.3908
18542TIP3    H277042   1.304   2.603   0.221  2.0224  0.9964 -2.2680
18543TIP3   OH277043   6.024   5.105  11.534 -0.4439  0.4837  0.0860
18543TIP3    H177044   5.967   5.114  11.458 -0.0395  0.3250 -0.2365
18543TIP3    H277045   6.074   5.025  11.517 -0.8108  0.0953  0.8162
18544TIP3   OH277046   5.206   3.948  16.854 -0.1391  0.5044  0.1718
18544TIP3    H177047   5.125   3.999  16.853 -0.8656 -0.5932  1.1903
18544TIP3    H277048   5.178   3.858  16.837  0.6627 -0.1187  2.0539
18545TIP3   OH277049   4.788   2.925   2.990 -0.4483 -0.9291 -0.2650
18545TIP3    H177050   4.725   2.989   3.024  0.8964 -0.0951  0.7462
18545TIP3    H277051   4.823   2.966   2.911  1.8196  0.5085  1.4248
18546TIP3   OH277052   6.041   5.878   2.773  0.5730  0.0161  0.5777
18546TIP3    H177053   6.094   5.841   2.844 -0.2472  0.7448  1.5847
18546TIP3    H277054   5.964   5.916   2.817 -0.9755 -1.3213 -0.8696
18547TIP3   OH277055   3.161   6.247   4.131  0.0835 -0.2055  0.3792
18547TIP3    H177056   3.110   6.217   4.056 -1.3182  0.5101  1.0244
18547TIP3    H277057   3.215   6.318   4.097  1.3270 -1.5517 -0.5064
18548TIP3   OH277058   2.918   0.295   0.519  0.5766  0.0659  0.0572
18548TIP3    H177059   2.947   0.210   0.552 -2.0928 -0.1263  2.0915
18548TIP3    H277060   2.830   0.278   0.484  1.2415  1.3940 -2.3030
18549TIP3   OH277061   1.957   6.487  16.026 -0.2052 -0.5127 -1.0998
18549TIP3    H177062   1.901   6.472  15.950  0.3663 -0.0295 -1.6134
18549TIP3    H277063   2.029   6.424  16.016 -1.0230 -1.6582 -0.0555
18550TIP3   OH277064   4.436   0.421  12.208 -0.0920 -0.2424  0.3524
18550TIP3    H177065   4.500   0.486  12.237 -0.7116  1.4093 -1.8582
18550TIP3    H277066   4.483   0.337  12.215  2.2827  0.9046 -1.0446
18551TIP3   OH277067   5.637   5.976  11.310  0.0715 -0.3870 -0.4934
18551TIP3    H177068   5.601   6.065  11.302 -0.7388 -0.6854 -0.2356
18551TIP3    H277069   5.561   5.919  11.298  0.3012 -1.0164  0.9855
18552TIP3   OH277070   3.604   3.177   3.110  0.5090  0.2693  0.1944
18552TIP3    H177071   3.548   3.111   3.152  0.0812 -2.0166 -3.7425
18552TIP3    H277072   3.543   3.233   3.062  1.1895  1.1495  0.3393
18553TIP3   OH277073   2.389   6.444  14.095  0.7746 -0.1705 -0.1971
18553TIP3    H177074   2.399   6.498  14.017 -1.0043 -0.5738 -0.7352
18553TIP3    H277075   2.313   6.480  14.140  1.1580 -0.5869  0.8061
18554TIP3   OH277076   1.819   5.130  16.791  0.8297 -0.2249 -0.1473
18554TIP3    H177077   1.888   5.089  16.738 -1.1608 -0.0462 -2.9699
18554TIP3    H277078   1.824   5.223  16.769  1.0453  0.1046  1.2643
18555TIP3   OH277079   5.869   1.863   5.142  0.8470 -0.2717  0.1671
18555TIP3    H177080   5.916   1.912   5.210  1.1455  0.9501 -0.9043
18555TIP3    H277081   5.898   1.772   5.154 -0.1649 -0.3239  2.5484
18556TIP3   OH277082   4.072   1.906   4.493 -0.0010 -0.3699  0.4550
18556TIP3    H177083   4.120   1.975   4.445 -0.5308  0.3960  1.0129
18556TIP3    H277084   4.004   1.954   4.541 -1.0286 -1.3927  0.0450
18557TIP3   OH277085   5.373   4.295   3.599  0.3091 -0.9083 -0.2691
18557TIP3    H177086   5.354   4.367   3.660  1.0223 -0.3811 -0.6600
18557TIP3    H277087   5.405   4.339   3.520  1.0249 -1.6804 -0.4051
18558TIP3   OH277088   4.581   1.930   2.762  0.1094 -0.9124  0.2659
18558TIP3    H177089   4.631   1.951   2.841  0.4928 -1.2062  0.1076
18558TIP3    H277090   4.581   1.834   2.759 -0.1589 -0.9076  0.0694
18559TIP3   OH277091   4.054   6.380   3.707  0.0774  0.1924  0.2343
18559TIP3    H177092   4.019   6.293   3.688 -2.2556  1.2595 -0.6200
18559TIP3    H277093   4.044   6.428   3.625  2.5260  0.9194  0.3297
18560TIP3   OH277094   2.000   1.563  15.920 -0.0661  0.3352  0.1935
18560TIP3    H177095   2.030   1.500  15.855  0.7218  0.4327  0.4550
18560TIP3    H277096   1.935   1.616  15.874  1.2743  1.1065 -0.8485
18561TIP3   OH277097   2.403   4.217  12.354 -0.7470  1.0823  1.0993
18561TIP3    H177098   2.323   4.252  12.315  0.9025  1.1014 -2.3965
18561TIP3    H277099   2.467   4.217  12.283  1.8764 -0.6169  3.3553
18562TIP3   OH277100   5.914   6.501   3.469 -0.1024  0.2964 -0.0674
18562TIP3    H177101   5.851   6.573   3.478  2.4392  2.5195  0.6008
18562TIP3    H277102   5.936   6.478   3.559  0.6684  0.1221 -0.3037
18563TIP3   OH277103   4.336   3.020  14.934  0.0767 -0.8822  0.1158
18563TIP3    H177104   4.420   3.036  14.976  0.4427 -0.4942 -0.7399
18563TIP3    H277105   4.284   2.975  15.000  0.9523 -1.1142  0.6591
18564TIP3   OH277106   0.044   2.256   2.233 -0.0754 -0.5236  0.0229
18564TIP3    H177107   0.076   2.291   2.316 -2.8960  0.3366  0.8150
18564TIP3    H277108  -0.037   2.304   2.217 -0.4961 -1.9532 -2.3330
18565TIP3   OH277109   3.941   5.654   4.301  0.2483  0.2433  0.0607
18565TIP3    H177110   3.992   5.690   4.374  0.1896 -0.3649  0.4084
18565TIP3    H277111   3.913   5.567   4.332 -0.6582  0.4062 -0.2869
18566TIP3   OH277112   0.763   5.889   3.170  0.0342  0.1621 -0.0154
18566TIP3    H177113   0.839   5.868   3.114  0.0153 -2.2338  0.7787
18566TIP3    H277114   0.688   5.881   3.111  0.1747 -0.3850 -0.1298
18567TIP3   OH277115   0.765   3.224  11.725  0.2774 -0.3901  0.3877
18567TIP3    H177116   0.804   3.216  11.638 -1.6800 -1.3540 -0.4219
18567TIP3    H277117   0.705   3.149  11.732 -0.8157  0.5905  1.9197
18568TIP3   OH277118   0.753   4.062   5.865 -0.3104 -0.5787 -0.1529
18568TIP3    H177119   0.806   3.983   5.875 -0.4149 -0.4478  1.6018
18568TIP3    H277120   0.667   4.038   5.899 -0.1687  0.4645  0.9539
18569TIP3   OH277121   6.419   5.743   4.720  0.2403  0.5853  0.3517
18569TIP3    H177122   6.341   5.707   4.762  0.8095 -0.1465  0.7913
18569TIP3    H277123   6.420   5.835   4.747 -1.3636  1.0420 -0.9943
18570TIP3   OH277124   5.877   6.703   0.924 -0.1154  0.2079 -0.4194
18570TIP3    H177125   5.952   6.749   0.962  0.8056 -1.2931 -0.3855
18570TIP3    H277126   5.870   6.623   0.975 -0.5925 -0.5170 -1.6072
18571TIP3   OH277127   1.694   0.967  13.878  0.5819  0.3661  0.5084
18571TIP3    H177128   1.624   1.030  13.895 -0.8242 -1.2460  0.8189
18571TIP3    H277129   1.730   0.948  13.965 -1.4128 -1.9494  0.8985
18572TIP3   OH277130   0.868   6.685  11.022  0.5963  0.1841  0.6045
18572TIP3    H177131   0.943   6.667  10.964  0.7928 -0.8716  1.1768
18572TIP3    H277132   0.792   6.654  10.972  0.3404  2.6501 -0.6263
18573TIP3   OH277133   3.333   1.201   0.011 -0.6254  0.7225  0.3830
18573TIP3    H177134   3.257   1.239   0.054  0.1406 -0.3557  2.7883
18573TIP3    H277135   3.404   1.263   0.028 -0.2153  0.0689  1.0733
18574TIP3   OH277136   2.937   0.727  15.605 -0.1276 -0.2011  0.3314
18574TIP3    H177137   2.907   0.804  15.653  0.4469  0.2077  0.0309
18574TIP3    H277138   2.872   0.714  15.536 -0.5384 -0.3351  0.7405
18575TIP3   OH277139   0.616   4.265   3.659  0.3226 -0.0329  0.0691
18575TIP3    H177140   0.620   4.354   3.694 -2.0367 -0.0547  0.5264
18575TIP3    H277141   0.544   4.224   3.707  1.4129 -2.2269 -0.0827
18576TIP3   OH277142   3.788   0.781   2.089  0.4813  0.1390  0.1939
18576TIP3    H177143   3.836   0.803   2.009  2.0705  1.3812  1.4563
18576TIP3    H277144   3.852   0.734   2.143 -0.4385 -0.2745  0.9457
18577TIP3   OH277145   1.275   4.328   5.341 -0.2194 -0.4592  0.4475
18577TIP3    H177146   1.251   4.416   5.309  0.6197 -0.4077 -0.0639
18577TIP3    H277147   1.202   4.273   5.315 -1.0282  0.1957  1.2939
18578TIP3   OH277148   4.025   0.175  12.905 -0.3097 -0.2418 -0.1070
18578TIP3    H177149   3.997   0.260  12.869 -1.0059 -0.4895 -0.1678
18578TIP3    H277150   3.959   0.113  12.872  1.5526 -1.2296 -2.1037
18579TIP3   OH277151   1.816   5.722  15.804  0.5598  0.4441 -0.1363
18579TIP3    H177152   1.786   5.730  15.714  0.2679 -0.6992 -0.1462
18579TIP3    H277153   1.889   5.784  15.810 -0.2572  1.4884 -0.7785
18580TIP3   OH277154   4.103   6.268  15.095  0.3193 -0.0846  0.1807
18580TIP3    H177155   4.121   6.304  15.008  0.1815 -0.6691 -0.0933
18580TIP3    H277156   4.185   6.228  15.122  0.7191  1.1585  0.8458
18581TIP3   OH277157   0.213   3.700  14.555  0.6107 -0.2685 -0.5730
18581TIP3    H177158   0.176   3.785  14.576  0.4610 -0.0209 -1.7995
18581TIP3    H277159   0.243   3.665  14.639 -1.3138  0.0313  0.2682
18582TIP3   OH277160   5.647   4.730  14.112 -0.2236 -1.3676  0.1659
18582TIP3    H177161   5.626   4.637  14.110 -1.4774 -1.0865 -0.7307
18582TIP3    H277162   5.576   4.771  14.063  0.9463 -0.0680 -0.4762
18583TIP3   OH277163   3.157   0.577   5.670 -0.3444 -0.1811 -0.0689
18583TIP3    H177164   3.152   0.528   5.588  1.1820  0.3003 -0.4739
18583TIP3    H277165   3.239   0.626   5.663  0.0482 -0.5106  1.9606
18584TIP3   OH277166   0.314   2.574  17.045 -0.0442 -0.1384 -0.1799
18584TIP3    H177167   0.406   2.560  17.064 -0.4845 -2.2690  0.4354
18584TIP3    H277168   0.305   2.554  16.951  0.0742 -0.1539 -0.1863
18585TIP3   OH277169   3.469   3.552  13.813  0.2784  0.5124 -0.4190
18585TIP3    H177170   3.498   3.500  13.888  0.3729  0.9647 -0.1373
18585TIP3    H277171   3.405   3.613  13.850  1.8400  2.1285 -0.2984
18586TIP3   OH277172   5.148   4.450   1.434  0.3357 -0.3811  0.2380
18586TIP3    H177173   5.084   4.420   1.369  0.6898  0.5912 -0.5895
18586TIP3    H277174   5.105   4.439   1.518 -0.2385 -1.4144 -0.1852
18587TIP3   OH277175   6.507   1.508  17.074  0.5025 -0.3095 -0.3180
18587TIP3    H177176   6.595   1.473  17.060  0.8369  0.0505  0.7860
18587TIP3    H277177   6.505   1.528  17.168 -1.4640 -2.2845  0.1020
18588TIP3   OH277178   2.934   5.815   4.793 -0.1355 -0.1463 -0.1751
18588TIP3    H177179   2.942   5.835   4.886 -0.6176 -1.9627  0.2782
18588TIP3    H277180   3.024   5.795   4.765 -0.1303 -0.5703  0.1388
18589TIP3   OH277181   5.237   0.639   4.898 -0.0006  0.0420  0.4380
18589TIP3    H177182   5.163   0.661   4.840 -0.0849  1.9924  1.2319
18589TIP3    H277183   5.211   0.673   4.983  1.6468  0.3594  0.8220
18590TIP3   OH277184   3.265   1.741  10.716  0.3293  0.7378 -0.0869
18590TIP3    H177185   3.277   1.646  10.729  1.4795  0.7864 -0.7119
18590TIP3    H277186   3.354   1.776  10.713 -0.0795  1.7566 -0.5327
18591TIP3   OH277187   6.264   6.581  15.794  0.2070  0.4080  0.0614
18591TIP3    H177188   6.212   6.657  15.821 -0.4787 -0.1978  0.4434
18591TIP3    H277189   6.285   6.536  15.876  0.4321  0.0615 -0.1854
18592TIP3   OH277190   3.672   3.162   5.034 -0.3287  0.3099  0.5695
18592TIP3    H177191   3.717   3.078   5.043 -0.6845  0.0094 -0.3172
18592TIP3    H277192   3.680   3.203   5.119  2.3950  0.6534  0.1829
18593TIP3   OH277193   2.496   6.017  13.169  0.7962  0.5497  0.1017
18593TIP3    H177194   2.433   6.009  13.240  0.5314  2.7003  0.1646
18593TIP3    H277195   2.472   6.099  13.126 -0.9964 -2.1313 -4.3928
18594TIP3   OH277196   5.026   3.967  15.426 -0.7233  0.2113  0.0215
18594TIP3    H177197   5.112   3.999  15.399 -0.0892 -1.3156  0.2330
18594TIP3    H277198   4.987   4.042  15.472 -0.2345  1.5059 -1.5934
18595TIP3   OH277199   5.842   1.936   3.907  0.4675 -0.5572  0.4135
18595TIP3    H177200   5.778   1.996   3.945 -0.7843 -0.0863 -2.3129
18595TIP3    H277201   5.810   1.849   3.931  0.8232 -0.2332  2.1202
18596TIP3   OH277202   2.790   4.371  17.236  0.3346 -0.3228 -0.0892
18596TIP3    H177203   2.695   4.374  17.236  0.3715  1.8339  2.3220
18596TIP3    H277204   2.817   4.459  17.209  1.6659 -1.0835 -1.3053
18597TIP3   OH277205   1.636   6.059   4.845  0.1515 -0.0140  0.5466
18597TIP3    H177206   1.660   6.151   4.854  2.1385 -0.4137 -0.4810
18597TIP3    H277207   1.549   6.061   4.805  1.8122  1.4046 -3.2053
18598TIP3   OH277208   1.494   0.082  10.806  0.6900 -0.3531  0.0127
18598TIP3    H177209   1.445   0.101  10.726  0.7809 -1.1183 -0.2246
18598TIP3    H277210   1.469  -0.007  10.829  1.2981 -0.4297  0.3805
18599TIP3   OH277211   6.234   3.279  14.683 -0.2523 -0.3494  0.5265
18599TIP3    H177212   6.228   3.293  14.588  1.1409  1.6493  0.7083
18599TIP3    H277213   6.323   3.303  14.705 -0.6900 -0.4153  2.4173
18600TIP3   OH277214   0.075   5.695  16.878 -0.0004  0.5542 -0.1784
18600TIP3    H177215   0.029   5.774  16.849 -0.4347 -0.0016 -1.0363
18600TIP3    H277216   0.108   5.656  16.797  0.9583  0.3130  0.3247
18601TIP3   OH277217   1.818   6.492   1.381 -0.2177 -0.0966  0.1201
18601TIP3    H177218   1.906   6.455   1.379  1.3392  3.4673 -1.5991
18601TIP3    H277219   1.804   6.516   1.472  1.2708  0.7868  0.1316
18602TIP3   OH277220   0.212   5.451   4.345 -0.3570  0.3213  0.3420
18602TIP3    H177221   0.202   5.356   4.346 -0.0231  0.2595 -0.9419
18602TIP3    H277222   0.127   5.483   4.312  0.5957  0.2784 -2.2470
18603TIP3   OH277223   5.754   5.897  12.028 -0.9650 -0.6295 -0.3831
18603TIP3    H177224   5.709   5.843  12.093  1.5698 -1.6169  0.6061
18603TIP3    H277225   5.784   5.974  12.076  1.1974 -1.5093 -0.2313
18604TIP3   OH277226   1.188   5.139  14.615  0.3757  0.4079 -0.0338
18604TIP3    H177227   1.186   5.161  14.708 -1.1623 -0.2557  0.1022
18604TIP3    H277228   1.174   5.223  14.570 -1.6521  0.3343  0.4085
18605TIP3   OH277229   4.318   5.990   1.037 -0.2807  0.1674 -0.1585
18605TIP3    H177230   4.354   5.939   1.109 -0.9181  0.5820  0.4681
18605TIP3    H277231   4.363   6.074   1.041 -0.2907  0.1781 -0.2637
18606TIP3   OH277232   1.517   6.090  12.340  0.4808  0.5542  0.4361
18606TIP3    H177233   1.429   6.059  12.321  0.4271  1.0514 -0.1128
18606TIP3    H277234   1.564   6.011  12.368  0.1850  0.0833 -0.3912
18607TIP3   OH277235   3.127   4.398   4.720  0.2246  0.0930  0.0995
18607TIP3    H177236   3.033   4.413   4.730  0.5592  0.7054  2.7751
18607TIP3    H277237   3.158   4.473   4.670 -0.0322  2.3480  3.1500
18608TIP3   OH277238   3.500   2.223  14.590  0.2699  0.1338  0.0730
18608TIP3    H177239   3.522   2.179  14.508  1.1746 -0.7555  0.7723
18608TIP3    H277240   3.569   2.195  14.651  0.3881  1.8725  0.7575
18609TIP3   OH277241   3.548   6.276  14.430  0.5606 -0.0843 -0.4503
18609TIP3    H177242   3.459   6.267  14.397  0.6577 -0.0706 -0.7191
18609TIP3    H277243   3.590   6.192  14.409  0.4242 -0.3428  0.2620
18610TIP3   OH277244   1.857   0.421  16.903  0.4267  0.1500  0.6474
18610TIP3    H177245   1.767   0.450  16.891  0.4862  0.8714  1.8261
18610TIP3    H277246   1.850   0.333  16.938  0.1938 -0.1258 -0.0920
18611TIP3   OH277247   0.217   6.147   3.102  0.0171 -0.4548 -0.3296
18611TIP3    H177248   0.251   6.060   3.078  0.6966 -0.3988  0.4133
18611TIP3    H277249   0.204   6.192   3.019 -0.4539 -1.3152 -0.7264
18612TIP3   OH277250   3.081   6.393  15.198  0.6339 -0.2161  0.1905
18612TIP3    H177251   3.083   6.488  15.195 -0.1138 -0.2281 -0.7945
18612TIP3    H277252   3.081   6.365  15.106 -0.3540 -1.1261  0.4491
18613TIP3   OH277253   5.944   0.411   4.061  0.3289 -0.2869 -0.0969
18613TIP3    H177254   5.942   0.316   4.052  2.0459 -0.2903 -0.4405
18613TIP3    H277255   6.028   0.438   4.026 -1.0789  1.5996 -2.2192
18614TIP3   OH277256   1.735   4.031   4.831  0.2185 -0.1395  0.0474
18614TIP3    H177257   1.790   3.954   4.843 -0.9070 -0.9369  0.1072
18614TIP3    H277258   1.718   4.063   4.919 -0.5252 -0.6937  0.1159
18615TIP3   OH277259   3.564   4.516   2.496 -0.5152 -0.3697 -0.1303
18615TIP3    H177260   3.591   4.584   2.434 -2.0477  0.0118 -0.3933
18615TIP3    H277261   3.587   4.434   2.453  0.3198 -0.0529 -0.2996
18616TIP3   OH277262   0.670   6.259   4.300  0.1989 -0.0086  0.0948
18616TIP3    H177263   0.670   6.317   4.224 -1.6986 -1.4388 -1.0320
18616TIP3    H277264   0.669   6.319   4.375  1.5889  1.4129 -0.9913
18617TIP3   OH277265   2.586   0.098  12.237  0.0021 -0.2236  0.1014
18617TIP3    H177266   2.594   0.139  12.323  1.8281  1.3353 -0.7937
18617TIP3    H277267   2.643   0.149  12.180 -0.6805 -1.6425 -1.9082
18618TIP3   OH277268   5.481   6.623  17.067 -0.1059  0.4753  0.5868
18618TIP3    H177269   5.558   6.566  17.070 -0.4289  0.0225  0.4071
18618TIP3    H277270   5.488   6.677  17.146 -0.1023 -0.2238  1.0655
18619TIP3   OH277271   2.358   1.486   4.871 -0.1077 -0.6886  0.0908
18619TIP3    H177272   2.355   1.459   4.963 -2.0210  0.7841  0.4936
18619TIP3    H277273   2.346   1.405   4.822  0.0741 -1.3700  1.1500
18620TIP3   OH277274   0.227   4.293  15.443  0.6782 -0.1852 -0.7336
18620TIP3    H177275   0.166   4.356  15.404  0.6801  0.4882  0.3572
18620TIP3    H277276   0.190   4.274  15.529  0.7241 -1.6210 -1.0269
18621TIP3   OH277277   5.424   2.053  13.226 -0.2230  0.5337  0.3140
18621TIP3    H177278   5.520   2.048  13.230 -0.2535 -1.6089 -0.7370
18621TIP3    H277279   5.394   1.994  13.295 -0.7270 -1.9660 -1.9374
18622TIP3   OH277280   0.272   2.385  12.960 -0.0239  0.6651 -0.2590
18622TIP3    H177281   0.327   2.387  13.038 -1.6859  0.1352  0.9572
18622TIP3    H277282   0.226   2.301  12.965 -1.4626  1.4072 -0.8749
18623TIP3   OH277283   1.535   6.348  15.385 -0.0884 -0.1873 -0.7910
18623TIP3    H177284   1.569   6.421  15.437 -0.0116 -0.3658 -0.5885
18623TIP3    H277285   1.607   6.285  15.383 -0.5650 -0.7662  0.0293
18624TIP3   OH277286   3.483   3.932   3.583 -0.3191  0.0350  0.1346
18624TIP3    H177287   3.488   3.950   3.677 -1.9213  0.2592  0.1864
18624TIP3    H277288   3.543   3.858   3.570  2.2102  1.9191  0.8054
18625TIP3   OH277289   0.571   1.594  14.010 -0.3817 -0.0817 -0.7444
18625TIP3    H177290   0.562   1.622  13.919  1.7666 -1.1874 -1.3459
18625TIP3    H277291   0.513   1.518  14.017 -1.9100  1.0739 -0.6768
18626TIP3   OH277292   6.167   3.044  15.155  0.9803 -0.1713 -0.2206
18626TIP3    H177293   6.235   3.091  15.205  2.4227 -2.2188 -0.1942
18626TIP3    H277294   6.147   3.103  15.082  2.2938  0.7901  0.1678
18627TIP3   OH277295   0.201   4.535   0.232 -0.0276  0.1840  0.0516
18627TIP3    H177296   0.108   4.517   0.224  0.1796 -0.6044 -0.6203
18627TIP3    H277297   0.210   4.627   0.206 -0.4704 -0.0513 -0.9662
18628TIP3   OH277298   0.009   5.095   5.892  0.5271 -0.3789  0.5955
18628TIP3    H177299  -0.072   5.144   5.879  0.8510  0.2090  0.7818
18628TIP3    H277300   0.036   5.070   5.804  0.1557 -0.5602  0.5318
18629TIP3   OH277301   2.779   2.538  11.471  0.5244 -0.3457 -0.9496
18629TIP3    H177302   2.793   2.446  11.492  1.6170 -0.1108 -0.6081
18629TIP3    H277303   2.712   2.538  11.403  0.3579 -1.3797 -0.7855
18630TIP3   OH277304   0.515   2.162   5.614 -0.6641 -0.0615  0.0430
18630TIP3    H177305   0.608   2.184   5.613 -0.7978  0.5664  0.7213
18630TIP3    H277306   0.504   2.109   5.694 -0.9535  0.1717  0.1590
18631TIP3   OH277307   1.537   6.055  13.320 -0.4602  0.2923  0.1174
18631TIP3    H177308   1.529   6.133  13.376 -0.1544 -1.5569  2.8469
18631TIP3    H277309   1.616   6.011  13.352 -0.9132 -1.4006 -1.0376
18632TIP3   OH277310   1.275   4.033  13.168 -1.1151 -0.2772  0.0334
18632TIP3    H177311   1.202   3.977  13.194  0.2881 -2.1037  0.1395
18632TIP3    H277312   1.350   3.974  13.161  0.3907  1.5719  0.0072
18633TIP3   OH277313   5.117   3.254   5.604  0.5245 -0.1544 -0.1758
18633TIP3    H177314   5.153   3.314   5.539 -0.7235 -0.2521 -0.9687
18633TIP3    H277315   5.049   3.305   5.648  0.1311 -0.6764 -0.1815
18634TIP3   OH277316   5.696   1.862  14.172  0.0290  0.4208  0.1380
18634TIP3    H177317   5.664   1.948  14.200 -0.6506  0.7291 -1.5241
18634TIP3    H277318   5.672   1.857  14.079 -0.5808 -1.8530  0.3903
18635TIP3   OH277319   5.466   5.005   4.456  0.9223 -0.1738  0.1230
18635TIP3    H177320   5.405   4.988   4.384  0.9241 -0.1030  0.1045
18635TIP3    H277321   5.536   4.942   4.444  1.8154  1.0044 -0.9738
18636TIP3   OH277322   4.963   2.002   4.775 -0.1112 -0.2956  0.1335
18636TIP3    H177323   4.909   2.075   4.805 -1.2063 -0.9145 -0.2996
18636TIP3    H277324   5.010   1.974   4.854 -1.5439 -0.7022  0.8569
18637TIP3   OH277325   0.933   2.823   1.824 -0.0932 -0.1714  0.3135
18637TIP3    H177326   0.917   2.912   1.794 -2.4444 -1.4257 -2.4293
18637TIP3    H277327   1.012   2.796   1.777  0.9502  0.6428  1.5853
18638TIP3   OH277328   4.786   2.492   1.421 -0.4069 -0.0365 -0.1695
18638TIP3    H177329   4.697   2.492   1.456 -0.3549  2.1917  0.0217
18638TIP3    H277330   4.838   2.537   1.488  0.7172 -0.5972 -0.6544
18639TIP3   OH277331   3.467   6.032   4.170  0.0681  0.0962 -0.6087
18639TIP3    H177332   3.494   5.944   4.196 -2.8109 -1.0471 -1.3605
18639TIP3    H277333   3.405   6.058   4.238 -0.3091  0.9075 -1.2687
18640TIP3   OH277334   2.167   2.908  12.601  0.2976  0.1270 -0.2855
18640TIP3    H177335   2.225   2.897  12.677  1.6303  1.0762 -1.1575
18640TIP3    H277336   2.152   3.002  12.596 -1.4114 -0.1041 -0.0331
18641TIP3   OH277337   2.602   5.780  13.572  0.3501 -0.8575  0.1799
18641TIP3    H177338   2.686   5.771  13.617  0.0479  0.1222  0.9718
18641TIP3    H277339   2.544   5.718  13.617 -0.4320  1.3718  2.3965
18642TIP3   OH277340   4.549   4.641   6.104 -0.4669  0.0337 -0.4433
18642TIP3    H177341   4.640   4.646   6.132 -0.3034  0.2292 -1.0114
18642TIP3    H277342   4.513   4.567   6.153  0.2518 -0.6495 -0.9342
18643TIP3   OH277343   3.080   0.814   3.990 -0.3924  0.3196 -0.4620
18643TIP3    H177344   2.998   0.789   3.947 -0.9050  1.1227  0.0495
18643TIP3    H277345   3.148   0.778   3.933 -1.0996 -1.0430 -0.4829
18644TIP3   OH277346   0.385   5.238  12.140 -0.0262 -0.1738 -0.1734
18644TIP3    H177347   0.355   5.306  12.079 -0.8972 -0.2747  0.1312
18644TIP3    H277348   0.318   5.236  12.208 -0.1409 -1.5217 -0.3128
18645TIP3   OH277349   1.727   6.304   2.299 -0.0232 -0.6608 -0.5675
18645TIP3    H177350   1.734   6.317   2.204 -2.8244 -2.0135 -1.0127
18645TIP3    H277351   1.678   6.223   2.308 -2.1825  0.8532  2.0216
18646TIP3   OH277352   0.461   1.177   4.553  0.8196 -0.4253 -0.5487
18646TIP3    H177353   0.497   1.107   4.608  1.2432  0.7529  0.7052
18646TIP3    H277354   0.488   1.258   4.597 -0.6880  0.5101 -1.3207
18647TIP3   OH277355   1.966   1.195  13.962  0.0026  0.2669 -0.3253
18647TIP3    H177356   2.033   1.262  13.977  0.2766  0.2803 -1.5415
18647TIP3    H277357   1.983   1.164  13.873 -1.2403 -0.1477 -0.4258
18648TIP3   OH277358   1.593   2.133   0.303 -0.0264  0.0872  0.1396
18648TIP3    H177359   1.519   2.137   0.363  1.4999  1.1341  1.9945
18648TIP3    H277360   1.600   2.223   0.269  2.3624  0.8226  2.4533
18649TIP3   OH277361   5.297   3.913   0.969  0.3260  0.6122  0.0516
18649TIP3    H177362   5.329   3.861   0.896 -1.6058 -0.2879 -0.2012
18649TIP3    H277363   5.225   3.861   1.005  0.3565  1.6945  1.7207
18650TIP3   OH277364   6.221   0.771   2.213  0.3442  0.2165  0.4522
18650TIP3    H177365   6.244   0.695   2.266 -1.3268 -0.9103 -0.3935
18650TIP3    H277366   6.131   0.792   2.240 -0.1272  0.2936 -1.1252
18651TIP3   OH277367   2.859   6.547  10.702  0.4931 -0.0576 -0.7045
18651TIP3    H177368   2.942   6.573  10.742  0.6075 -2.5907  0.8083
18651TIP3    H277369   2.881   6.468  10.652 -0.8217 -0.1940 -1.0771
18652TIP3   OH277370   0.373   4.294  11.336  0.0786  0.3757 -0.2239
18652TIP3    H177371   0.282   4.274  11.316 -0.7782 -0.5227  4.1634
18652TIP3    H277372   0.419   4.210  11.327  0.0695  0.3843 -0.3499
18653TIP3   OH277373   5.208   0.757   6.322  0.4407 -0.0539 -0.3334
18653TIP3    H177374   5.194   0.850   6.304 -0.4125 -0.4007 -1.5292
18653TIP3    H277375   5.286   0.734   6.272  0.1606 -0.1680 -0.7254
18654TIP3   OH277376   5.616   5.149  15.819 -0.2361  0.0875  0.2148
18654TIP3    H177377   5.555   5.206  15.773 -0.1843 -0.9585 -1.2076
18654TIP3    H277378   5.577   5.135  15.905 -0.4697  1.8774  0.4189
18655TIP3   OH277379   6.336   5.799   5.762  0.0173  0.0121  0.4819
18655TIP3    H177380   6.361   5.707   5.750  1.1359  0.2691  0.8246
18655TIP3    H277381   6.304   5.804   5.852  0.5816  0.1051  0.6746
18656TIP3   OH277382   2.256   3.931  11.998 -0.9647  0.3523  0.0595
18656TIP3    H177383   2.177   3.957  12.045 -1.7521  1.0200 -1.5939
18656TIP3    H277384   2.307   3.881  12.062 -2.1609  0.9471  1.5018
18657TIP3   OH277385   2.281   2.752  11.428 -0.2869  0.0149  0.3813
18657TIP3    H177386   2.344   2.824  11.438  0.8815 -0.6537 -1.7957
18657TIP3    H277387   2.297   2.696  11.504  0.1145  1.0807  1.0925
18658TIP3   OH277388   4.960   0.535  16.461  0.6635 -0.3303  0.2804
18658TIP3    H177389   5.012   0.460  16.431  1.0644  0.6169 -1.4782
18658TIP3    H277390   5.018   0.610  16.452 -0.4165  0.4875  0.0118
18659TIP3   OH277391   4.580   1.869   0.932  0.7355  0.7553 -0.3014
18659TIP3    H177392   4.589   1.774   0.934 -1.5242  0.5036 -0.4861
18659TIP3    H277393   4.608   1.898   1.019 -0.0391 -0.2235  0.2719
18660TIP3   OH277394   5.902   1.488  15.850 -0.7096  0.3642 -0.0419
18660TIP3    H177395   5.881   1.568  15.803 -2.1930  0.0426  0.0540
18660TIP3    H277396   5.823   1.468  15.900 -0.1933 -0.9105  0.2865
18661TIP3   OH277397   2.939   4.281   3.752 -0.4382 -0.1635 -0.2897
18661TIP3    H177398   3.015   4.230   3.723  0.4545 -0.3059  2.1640
18661TIP3    H277399   2.952   4.368   3.713  0.1472 -0.6432 -1.1823
18662TIP3   OH277400   6.275   4.910   0.116 -0.3415 -0.0512  0.7415
18662TIP3    H177401   6.313   4.897   0.202 -1.3569 -0.2472  1.1733
18662TIP3    H277402   6.324   4.851   0.058 -0.4737 -0.8294  1.4171
18663TIP3   OH277403   0.548   2.829  14.234 -0.4523  0.1137 -0.6335
18663TIP3    H177404   0.568   2.788  14.150  0.9764 -0.4355 -0.0390
18663TIP3    H277405   0.633   2.844  14.275 -1.1305  0.0985  0.8419
18664TIP3   OH277406   5.131   4.208  14.130 -0.3229  0.7289  0.4462
18664TIP3    H177407   5.198   4.158  14.176 -1.1955 -0.3880  0.5274
18664TIP3    H277408   5.180   4.268  14.073  0.7470 -0.9192 -0.4036
18665TIP3   OH277409   1.789   5.114  13.807  0.7696  0.1123  0.0809
18665TIP3    H177410   1.711   5.059  13.800  0.9211  0.0332 -1.0751
18665TIP3    H277411   1.856   5.055  13.841  0.8459 -0.3405 -0.8428
18666TIP3   OH277412   6.324   5.839   6.081  0.3341  0.4162 -0.1714
18666TIP3    H177413   6.237   5.827   6.119 -0.3168 -3.3703 -2.6237
18666TIP3    H277414   6.384   5.798   6.144  0.2153  1.6486  0.7634
18667TIP3   OH277415   4.357   4.599  10.710 -0.2688 -0.4201  0.2747
18667TIP3    H177416   4.434   4.652  10.691  0.3157 -1.6541 -0.7878
18667TIP3    H277417   4.325   4.634  10.794  0.5831  1.0576  0.0039
18668TIP3   OH277418   1.047   0.985   4.185  0.6013  1.0026  0.3874
18668TIP3    H177419   1.021   0.907   4.137  2.4754  0.0078  0.9456
18668TIP3    H277420   1.101   0.952   4.257  1.6784  2.8193  0.4457
18669TIP3   OH277421   0.315   4.940  14.292  0.1540 -0.2145  0.3078
18669TIP3    H177422   0.335   5.015  14.347  2.5539  0.0130 -0.7957
18669TIP3    H277423   0.369   4.869  14.328  1.9821  0.0132 -1.8540
18670TIP3   OH277424   6.086   4.691   1.659 -0.3839  0.4234 -0.3694
18670TIP3    H177425   6.136   4.759   1.614 -0.5358 -0.2327 -1.5248
18670TIP3    H277426   5.997   4.701   1.626 -0.3687 -0.4543 -0.6757
18671TIP3   OH277427   4.789   3.884   5.125 -0.0887  0.1152 -0.4224
18671TIP3    H177428   4.801   3.960   5.182  2.6325  0.2603 -1.1343
18671TIP3    H277429   4.777   3.921   5.037  1.8759 -0.2670 -0.8698
18672TIP3   OH277430   6.288   1.188  14.233 -0.5645 -0.1025  0.0590
18672TIP3    H177431   6.207   1.184  14.183  0.5590 -2.3581 -1.6801
18672TIP3    H277432   6.319   1.097  14.235  1.1270  0.4708  2.0369
18673TIP3   OH277433   2.902   3.523  15.257  0.0083 -0.2329 -0.0870
18673TIP3    H177434   2.936   3.602  15.215  0.5630  0.6333  1.9250
18673TIP3    H277435   2.825   3.553  15.306  0.3368 -0.8799  0.8393
18674TIP3   OH277436   2.474   6.315   3.067 -0.3604  0.1670 -0.3976
18674TIP3    H177437   2.475   6.243   3.004  1.5180  0.4537 -0.7278
18674TIP3    H277438   2.534   6.380   3.031 -1.2102  1.4554  0.4314
18675TIP3   OH277439   1.810   2.595  11.395  0.2778 -0.1758 -0.2753
18675TIP3    H177440   1.870   2.650  11.344  0.6495 -0.6595 -0.3682
18675TIP3    H277441   1.806   2.513  11.346 -0.1079 -0.3042 -0.0269
18676TIP3   OH277442   4.507   5.881  10.985 -0.3015  0.3895  0.4059
18676TIP3    H177443   4.449   5.938  11.036 -2.0837  0.3683 -1.4946
18676TIP3    H277444   4.490   5.793  11.018 -2.6081  0.1793 -1.1619
18677TIP3   OH277445   2.056   2.238   3.146 -0.5866  0.3527  0.1081
18677TIP3    H177446   2.018   2.170   3.091  0.1774  0.8233 -1.0137
18677TIP3    H277447   2.127   2.193   3.193  0.1546  0.4509 -0.9037
18678TIP3   OH277448   4.568   1.219  11.938 -0.0643  0.0374  0.4125
18678TIP3    H177449   4.653   1.253  11.964  0.2035 -0.5476  0.2995
18678TIP3    H277450   4.509   1.245  12.009  0.6099 -1.3312  1.4872
18679TIP3   OH277451   0.369   1.043   2.486 -0.2425  0.1584  0.3069
18679TIP3    H177452   0.456   1.082   2.473 -0.3159  0.3009  0.2360
18679TIP3    H277453   0.387   0.952   2.511 -0.0270  0.5723  1.7427
18680TIP3   OH277454   3.033   6.777  10.521  0.0127  0.1905 -0.0443
18680TIP3    H177455   3.109   6.813  10.565 -0.9037 -0.1180  1.8607
18680TIP3    H277456   3.043   6.682  10.529 -1.6989  0.1459  2.3413
18681TIP3   OH277457   3.262   3.121  11.106  0.2131  0.8696  0.0860
18681TIP3    H177458   3.190   3.128  11.043  1.1140 -0.9618 -1.1677
18681TIP3    H277459   3.225   3.154  11.188 -1.5345  1.5255 -0.9391
18682TIP3   OH277460   3.130   6.698   4.908 -0.2709 -0.6422 -0.2707
18682TIP3    H177461   3.078   6.775   4.886  0.3252 -0.0942  0.1955
18682TIP3    H277462   3.067   6.637   4.948 -0.5061  0.1227  0.5449
18683TIP3   OH277463   5.304   1.322  12.647  0.0927  1.0289  0.3154
18683TIP3    H177464   5.311   1.415  12.623  1.3873  0.9177  0.2008
18683TIP3    H277465   5.298   1.276  12.564 -1.6679  1.0838  0.4035
18684TIP3   OH277466   4.238   0.848  16.101 -0.1173  0.1537  0.0672
18684TIP3    H177467   4.333   0.832  16.101  0.0148  0.8595 -1.4752
18684TIP3    H277468   4.228   0.931  16.149  0.2513  1.0872 -1.4228
18685TIP3   OH277469   4.987   0.997  12.914 -0.2412 -0.1831  0.0239
18685TIP3    H177470   4.994   1.068  12.851  0.8359  0.2363  0.5990
18685TIP3    H277471   5.008   0.918  12.863 -2.6980 -0.2817 -0.9171
18686TIP3   OH277472   1.935   0.534  16.020  0.2394 -0.0078 -0.0112
18686TIP3    H177473   1.917   0.628  16.019  1.7646  0.3089 -0.4911
18686TIP3    H277474   1.922   0.506  15.929  0.6843 -0.0600 -0.0640
18687TIP3   OH277475   5.617   2.184   1.741 -0.3756  0.2288  0.0066
18687TIP3    H177476   5.545   2.176   1.678  0.6068  0.9579 -1.2477
18687TIP3    H277477   5.695   2.161   1.690  0.2052 -1.3059  1.5467
18688TIP3   OH277478   0.593   0.308   2.975  0.1124  0.5647  0.0066
18688TIP3    H177479   0.562   0.240   3.034  0.3938 -0.3759 -0.8977
18688TIP3    H277480   0.615   0.261   2.894 -1.1034  1.9311 -1.1465
18689TIP3   OH277481   6.746   0.350  11.976 -0.1876  0.1607 -0.4839
18689TIP3    H177482   6.706   0.279  11.927 -0.9106 -0.0478  0.3908
18689TIP3    H277483   6.829   0.314  12.008 -0.4866 -0.2471 -0.1612
18690TIP3   OH277484   1.426   5.779   3.600  0.1086  0.2276 -0.3792
18690TIP3    H177485   1.494   5.794   3.666  1.8958 -1.7979 -1.6899
18690TIP3    H277486   1.465   5.811   3.518 -0.2963 -1.3949 -1.2284
18691TIP3   OH277487   2.728   0.499   3.730 -0.2683  0.1128  0.1344
18691TIP3    H177488   2.694   0.411   3.743  1.1329 -0.3780  0.5756
18691TIP3    H277489   2.739   0.507   3.635 -0.1878 -0.2583  0.1140
18692TIP3   OH277490   1.252   6.604   0.692 -0.0058 -1.0707  0.2240
18692TIP3    H177491   1.237   6.660   0.768  2.7386  1.5752 -1.0865
18692TIP3    H277492   1.212   6.652   0.619  2.1508 -0.8827 -0.8703
18693TIP3   OH277493   2.082   4.307   4.464 -0.5116  0.2161 -0.1178
18693TIP3    H177494   2.025   4.282   4.391 -1.0408 -0.2041  0.4346
18693TIP3    H277495   2.153   4.356   4.423 -0.6473 -0.2746 -0.9540
18694TIP3   OH277496   4.416   0.062   0.386 -0.0335 -0.4207  0.1867
18694TIP3    H177497   4.437  -0.028   0.410  0.8669 -0.4607 -0.7327
18694TIP3    H277498   4.467   0.078   0.307 -0.7457  0.6635 -0.0537
18695TIP3   OH277499   0.877   4.449  12.018  0.4500  0.4449  0.1941
18695TIP3    H177500   0.904   4.374  12.070  0.4581  0.3144  0.0006
18695TIP3    H277501   0.909   4.525  12.067 -0.1583  0.3508  0.7360
18696TIP3   OH277502   2.872   0.595   1.657 -0.7180  0.1561  0.2971
18696TIP3    H177503   2.877   0.611   1.751 -0.7580  0.6759  0.2132
18696TIP3    H277504   2.846   0.680   1.619 -0.2342  0.0730 -0.2261
18697TIP3   OH277505   3.219   6.149  12.334  0.4835 -0.2118  0.2099
18697TIP3    H177506   3.125   6.165  12.340  0.6847  1.4880 -1.0578
18697TIP3    H277507   3.228   6.081  12.267  0.2252  0.1949 -0.2334
18698TIP3   OH277508   5.439   0.997   3.752  0.4039 -0.6657 -0.2041
18698TIP3    H177509   5.421   0.922   3.696 -0.4815 -0.7201  0.1389
18698TIP3    H277510   5.361   1.005   3.807  0.5851  0.3665 -0.0861
18699TIP3   OH277511   2.368   4.254  13.626 -0.3294 -0.4144 -0.2722
18699TIP3    H177512   2.292   4.298  13.588 -0.3305 -0.4499 -0.3131
18699TIP3    H277513   2.343   4.162  13.630 -0.8553 -0.2194  1.1112
18700TIP3   OH277514   6.487   3.647   1.436 -0.5636 -0.1582 -0.0037
18700TIP3    H177515   6.445   3.682   1.514 -1.4690 -0.4973 -0.3281
18700TIP3    H277516   6.443   3.563   1.421  0.8703 -0.9430  0.1705
18701TIP3   OH277517   5.876   4.551   2.204  0.4561  0.1878  0.8928
18701TIP3    H177518   5.915   4.553   2.117  0.1796  1.0768  0.7831
18701TIP3    H277519   5.783   4.535   2.188  0.2725  1.1464  0.9731
18702TIP3   OH277520   1.866   5.928  12.408 -0.0906  0.4498 -0.2150
18702TIP3    H177521   1.897   5.980  12.482  0.4483 -0.7251  0.3950
18702TIP3    H277522   1.910   5.967  12.332  2.6164 -0.9532  0.5873
18703TIP3   OH277523   3.800   6.771  15.391  0.3103  0.7064 -0.1356
18703TIP3    H177524   3.760   6.770  15.304 -0.3891 -1.0312  0.2001
18703TIP3    H277525   3.809   6.679  15.415  1.4761  1.1478  1.1929
18704TIP3   OH277526   3.372   5.785   4.391 -0.2443 -0.5384  0.1163
18704TIP3    H177527   3.376   5.767   4.297  1.3234 -0.8631  0.2197
18704TIP3    H277528   3.327   5.869   4.397  0.5933  0.0166 -1.0238
18705TIP3   OH277529   3.933   3.686   0.395 -0.4946  0.0616 -0.3495
18705TIP3    H177530   3.991   3.637   0.337 -0.0076 -0.6342  0.7077
18705TIP3    H277531   3.989   3.753   0.434 -0.8763  0.6792 -0.8394
18706TIP3   OH277532   5.546   0.342  15.757  0.1752 -0.2183 -0.0233
18706TIP3    H177533   5.546   0.381  15.670  0.0042  1.3173  0.6393
18706TIP3    H277534   5.561   0.249  15.742  2.5296  0.3732 -1.5289
18707TIP3   OH277535   2.198   5.321   0.244 -0.1410  0.7490 -0.0903
18707TIP3    H177536   2.228   5.230   0.246  1.9143  1.3986  0.7925
18707TIP3    H277537   2.153   5.334   0.327 -1.4589  0.2172 -0.7188
18708TIP3   OH277538   2.156   2.575   3.603  0.1176  0.2097  0.1171
18708TIP3    H177539   2.245   2.584   3.568  0.1041  0.2772  0.0997
18708TIP3    H277540   2.168   2.574   3.698  0.2617 -1.1685  0.0920
18709TIP3   OH277541   6.067   3.640  11.037  0.4769 -0.5255  0.7415
18709TIP3    H177542   6.014   3.642  10.957 -2.9820 -0.2348  2.9486
18709TIP3    H277543   6.073   3.547  11.059  1.1854 -0.5801  0.3629
18710TIP3   OH277544   5.359   1.897  14.255  0.2929  0.0317 -0.4370
18710TIP3    H177545   5.294   1.914  14.186  1.3470 -0.3496 -1.5413
18710TIP3    H277546   5.398   1.983  14.272  2.2971 -0.4071 -2.6402
18711TIP3   OH277547   4.521   5.492  14.792  0.1802 -0.0894 -0.5667
18711TIP3    H177548   4.522   5.530  14.704 -1.6854  0.8304 -0.2254
18711TIP3    H277549   4.434   5.453  14.799  1.6988 -3.6484 -0.5406
18712TIP3   OH277550   1.670   5.308  11.380 -0.3480  0.2679 -0.4252
18712TIP3    H177551   1.744   5.360  11.348 -0.4319  0.9274  0.4080
18712TIP3    H277552   1.711   5.233  11.424 -0.2524 -1.0114 -2.6488
18713TIP3   OH277553   3.948   6.122  13.416 -0.0963 -0.0769 -0.1980
18713TIP3    H177554   3.857   6.129  13.386  0.0075  0.6874 -0.3336
18713TIP3    H277555   3.998   6.104  13.336 -0.0180  0.3900 -0.2552
18714TIP3   OH277556   2.204   3.159   5.445 -0.2921 -0.5373 -0.4222
18714TIP3    H177557   2.259   3.095   5.491 -0.8337 -0.7461 -0.0502
18714TIP3    H277558   2.266   3.218   5.402  0.2933  0.8962  2.2540
18715TIP3   OH277559   6.295   1.373   0.041  0.3274  0.1292 -0.4216
18715TIP3    H177560   6.344   1.455   0.045  1.0983 -0.3507  0.1197
18715TIP3    H277561   6.357   1.309   0.005  0.4799 -0.7470  1.3346
18716TIP3   OH277562   5.750   0.540   4.224 -0.5403 -0.3115  0.0337
18716TIP3    H177563   5.700   0.486   4.285 -1.0850 -0.9183 -0.9304
18716TIP3    H277564   5.805   0.477   4.176  0.3446  0.2269  0.3268
18717TIP3   OH277565   6.005   3.053   4.781 -0.9928  0.0420  0.1410
18717TIP3    H177566   5.923   3.021   4.745 -0.7425  0.3798 -0.7520
18717TIP3    H277567   6.068   2.982   4.764 -0.4443  0.9413 -1.8113
18718TIP3   OH277568   5.407   4.549   3.726  0.6743 -0.2873  0.5167
18718TIP3    H177569   5.437   4.605   3.798  1.2337 -0.1912  0.2131
18718TIP3    H277570   5.391   4.609   3.654  4.1549 -0.7716 -0.7647
18719TIP3   OH277571   6.652   3.376   3.298  0.0006 -0.0580 -0.4500
18719TIP3    H177572   6.637   3.299   3.244 -0.1428 -1.3872  1.4239
18719TIP3    H277573   6.745   3.396   3.286 -0.2586  0.2570 -1.9364
18720TIP3   OH277574   4.598   0.231   1.985  0.4921  0.8837  0.3253
18720TIP3    H177575   4.612   0.222   2.080  0.8145  2.1710  0.4135
18720TIP3    H277576   4.561   0.319   1.975  3.5480  2.0962 -1.0336
18721TIP3   OH277577   3.149   2.480  17.112  0.0334 -0.3051 -0.4162
18721TIP3    H177578   3.146   2.575  17.100  0.8557 -0.2243 -0.0482
18721TIP3    H277579   3.084   2.446  17.050  0.3262  0.4483 -1.1552
18722TIP3   OH277580   4.919   1.868  11.978  0.3929  0.1850 -0.6436
18722TIP3    H177581   4.906   1.889  12.071  0.1709  1.1095 -0.8791
18722TIP3    H277582   4.832   1.840  11.948  0.2696  0.7285 -0.7880
18723TIP3   OH277583   1.843   5.560   4.980 -0.3690  0.3050 -0.0956
18723TIP3    H177584   1.934   5.583   4.996  0.1275 -0.3834 -1.8029
18723TIP3    H277585   1.794   5.603   5.050  1.4272 -0.7121  1.8152
18724TIP3   OH277586   3.714   2.532   1.203 -0.1700 -0.3821 -0.4011
18724TIP3    H177587   3.683   2.447   1.234 -0.3493 -0.8633 -1.8477
18724TIP3    H277588   3.655   2.554   1.131  0.7061  0.3369 -0.9100
18725TIP3   OH277589   5.848   1.206  11.934  0.2069 -0.0339  0.3306
18725TIP3    H177590   5.809   1.288  11.962  0.9314  0.5940 -0.4701
18725TIP3    H277591   5.774   1.146  11.926 -0.3437  0.5789  0.7719
18726TIP3   OH277592   1.101   2.232  12.374  0.1828  0.0565 -0.1991
18726TIP3    H177593   1.076   2.243  12.466  0.8790  0.5087 -0.0579
18726TIP3    H277594   1.190   2.267  12.370  0.2294 -0.1630 -1.0033
18727TIP3   OH277595   2.905   4.991   0.275 -0.6176  0.5961  0.1194
18727TIP3    H177596   2.816   5.003   0.244 -0.7829 -0.1753  0.2851
18727TIP3    H277597   2.921   5.065   0.334 -0.6607  1.4907 -0.9797
18728TIP3   OH277598   6.160   4.348   1.462  1.0540  0.6400  0.5339
18728TIP3    H177599   6.105   4.270   1.462  1.4975  0.3266 -0.2293
18728TIP3    H277600   6.241   4.321   1.505 -0.0850  1.6143  3.4002
18729TIP3   OH277601   4.434   5.675   2.448  0.6471  0.3745 -0.1405
18729TIP3    H177602   4.340   5.680   2.464  0.7744  1.1521  0.3822
18729TIP3    H277603   4.470   5.648   2.533  1.0020  1.1378 -0.0527
18730TIP3   OH277604   3.443   5.008  11.085 -0.1276 -0.1517  0.6515
18730TIP3    H177605   3.356   4.983  11.117 -0.5349  0.0740 -0.2459
18730TIP3    H277606   3.457   4.953  11.008 -0.4399  1.3602 -0.5156
18731TIP3   OH277607   2.091   4.105  12.554 -0.5833  0.0120 -0.5293
18731TIP3    H177608   2.141   4.185  12.573 -0.3247 -0.3841  0.4935
18731TIP3    H277609   2.152   4.051  12.505 -0.1346 -0.2847  0.3303
18732TIP3   OH277610   5.644   5.176  15.047 -0.0592 -0.2478 -0.1230
18732TIP3    H177611   5.710   5.235  15.010  0.0897 -0.3830 -0.0791
18732TIP3    H277612   5.562   5.224  15.041 -0.2519 -0.7463 -1.7832
18733TIP3   OH277613   6.321   1.874   4.046  0.0117  0.8069 -0.8245
18733TIP3    H177614   6.417   1.870   4.043 -0.0306  0.1344 -1.2624
18733TIP3    H277615   6.294   1.787   4.075 -0.5350  0.5417 -2.1137
18734TIP3   OH277616   4.695   6.517  12.733  0.0343 -0.8000  0.0032
18734TIP3    H177617   4.683   6.573  12.657  0.1887  0.2178  0.7199
18734TIP3    H277618   4.628   6.449  12.724 -1.8261  0.9185  0.4209
18735TIP3   OH277619   4.336   2.460  14.566  0.0484  0.1081 -0.1578
18735TIP3    H177620   4.271   2.504  14.512  0.4401 -1.0140 -1.5653
18735TIP3    H277621   4.362   2.384  14.515  3.3808  1.1970 -0.1891
18736TIP3   OH277622   2.285   0.764   3.405  0.1360  0.8633  0.5721
18736TIP3    H177623   2.249   0.852   3.416 -1.1733  0.2381  1.4218
18736TIP3    H277624   2.211   0.711   3.375  0.0346 -0.6666  3.3581
18737TIP3   OH277625   1.400   4.006   0.345  0.1448 -0.2248  0.5961
18737TIP3    H177626   1.469   4.072   0.339  0.6506 -0.7926  0.1987
18737TIP3    H277627   1.446   3.922   0.343 -0.6359 -0.6387 -1.0796
18738TIP3   OH277628   2.900   4.709  10.748 -0.7086  0.4089  0.9854
18738TIP3    H177629   2.848   4.628  10.753  1.0394 -0.7537  0.9613
18738TIP3    H277630   2.988   4.679  10.725 -0.2456  2.4184  0.0076
18739TIP3   OH277631   3.074   5.588  12.426  0.7084 -0.3026 -0.2232
18739TIP3    H177632   3.137   5.661  12.426  1.0083 -0.5257 -2.8217
18739TIP3    H277633   3.006   5.616  12.488  0.6002  2.4148 -1.4726
18740TIP3   OH277634   1.541   2.220   5.959 -0.7717 -0.2842 -0.1328
18740TIP3    H177635   1.572   2.243   6.046 -2.9648 -1.9312  1.1237
18740TIP3    H277636   1.575   2.289   5.902  1.3408  0.3820  1.8842
18741TIP3   OH277637   5.926   5.334  11.896  0.1031  0.5249  0.0409
18741TIP3    H177638   5.975   5.359  11.818 -0.6548  0.0298 -0.6031
18741TIP3    H277639   5.862   5.404  11.908 -0.6907 -0.0836 -0.5909
18742TIP3   OH277640   0.427   5.144  16.875 -0.2408  0.1726  0.3663
18742TIP3    H177641   0.452   5.105  16.959 -2.6529 -0.7645  0.6828
18742TIP3    H277642   0.367   5.081  16.836  1.5560  0.1717 -2.5347
18743TIP3   OH277643   6.275   5.337   3.995  0.2510  0.0627 -0.2403
18743TIP3    H177644   6.210   5.284   4.040  0.8069  0.6009  1.2324
18743TIP3    H277645   6.231   5.366   3.915 -0.3771 -1.8082 -0.6124
18744TIP3   OH277646   5.224   6.339   3.201  0.1317  0.1251  0.3308
18744TIP3    H177647   5.306   6.292   3.194 -0.8209 -1.4876 -0.3058
18744TIP3    H277648   5.166   6.279   3.250 -1.4083  0.1685 -1.3827
18745TIP3   OH277649   5.434   1.843  12.327 -0.0508 -0.3545 -0.7502
18745TIP3    H177650   5.408   1.918  12.275  1.7381  1.1213  0.4060
18745TIP3    H277651   5.370   1.838  12.397  1.8180  2.3839  1.2689
18746TIP3   OH277652   5.125   5.221  15.784 -0.3097  0.1440  0.0788
18746TIP3    H177653   5.048   5.228  15.727 -1.4138  0.1921  1.5601
18746TIP3    H277654   5.119   5.134  15.823 -0.1928  0.5564  1.0316
18747TIP3   OH277655   0.023   3.592   0.327 -0.4890 -0.5237 -0.2784
18747TIP3    H177656  -0.050   3.591   0.265 -0.8555  0.1779  0.1421
18747TIP3    H277657   0.006   3.516   0.383 -1.1565 -0.0875  0.1191
18748TIP3   OH277658   1.056   2.302   1.971  0.1306 -0.2209  0.5891
18748TIP3    H177659   1.040   2.287   2.065  2.2905 -1.6459  0.7832
18748TIP3    H277660   1.093   2.390   1.967  1.9035 -0.8838  1.3692
18749TIP3   OH277661   1.852   0.286   0.973  0.2071  0.1826  0.4099
18749TIP3    H177662   1.907   0.343   1.026  0.1954  0.8734 -0.3097
18749TIP3    H277663   1.798   0.239   1.036 -0.0725  1.2670  0.9884
18750TIP3   OH277664   6.162   4.484  14.032 -0.0044  0.1379  0.1309
18750TIP3    H177665   6.213   4.443  14.102  1.4786  2.8410  0.7019
18750TIP3    H277666   6.196   4.446  13.952  2.2871  1.2119  0.5633
18751TIP3   OH277667   5.010   0.465   2.391 -0.2452 -0.2242  0.2389
18751TIP3    H177668   5.045   0.398   2.449 -1.1542 -1.3172 -0.4333
18751TIP3    H277669   5.081   0.484   2.330  0.3078  0.0506  0.9681
18752TIP3   OH277670   2.140   6.204   5.629 -0.8392 -0.2586  0.0300
18752TIP3    H177671   2.231   6.197   5.598 -1.0016  1.2637 -0.8116
18752TIP3    H277672   2.146   6.186   5.723  0.3094 -0.3332 -0.0439
18753TIP3   OH277673   3.184   0.575  15.923 -0.1586 -0.1445 -0.4090
18753TIP3    H177674   3.266   0.602  15.880  0.8365  0.4675  1.7791
18753TIP3    H277675   3.141   0.657  15.947 -2.0978 -0.4478 -2.7222
18754TIP3   OH277676   2.597   4.634  15.157  0.4106 -0.2942 -0.1238
18754TIP3    H177677   2.514   4.649  15.112 -0.3173 -0.7726  1.0384
18754TIP3    H277678   2.622   4.545  15.133  0.6072 -0.1460 -0.4835
18755TIP3   OH277679   1.281   4.427   1.878  0.0226 -0.5203 -0.1288
18755TIP3    H177680   1.206   4.484   1.866 -0.8847 -1.4045  1.1364
18755TIP3    H277681   1.273   4.361   1.809 -0.3459 -0.5720 -0.0392
18756TIP3   OH277682   0.097   0.745   1.318 -0.3361  0.3583 -0.2139
18756TIP3    H177683   0.163   0.813   1.307 -0.4362  0.3595 -0.8351
18756TIP3    H277684   0.063   0.730   1.229 -0.2132 -0.5996 -0.1058
18757TIP3   OH277685   1.556   4.083  14.870 -0.1027  0.7369 -0.2732
18757TIP3    H177686   1.613   4.159  14.858 -1.0973  1.6244  0.5442
18757TIP3    H277687   1.554   4.040  14.784  1.0192  1.2324 -0.5515
18758TIP3   OH277688   2.133   2.972  16.402  0.0345  0.1066 -0.0922
18758TIP3    H177689   2.096   2.929  16.479  2.9922  0.4284  1.6263
18758TIP3    H277690   2.104   3.062  16.408 -0.0203  0.0511  0.4830
18759TIP3   OH277691   1.680   6.694  14.233  0.1798 -0.4905 -0.5185
18759TIP3    H177692   1.670   6.668  14.141  1.3927 -0.6272 -0.6209
18759TIP3    H277693   1.643   6.622  14.283  0.9056 -1.1180 -0.8723
18760TIP3   OH277694   6.467   4.191  16.314 -0.3176 -0.1052 -0.3378
18760TIP3    H177695   6.532   4.122  16.300 -0.5675 -0.4529  0.2150
18760TIP3    H277696   6.448   4.224  16.226 -3.3612 -3.6444 -1.1428
18761TIP3   OH277697   2.076   2.303   0.322 -0.4094 -0.2403 -0.3936
18761TIP3    H177698   2.029   2.361   0.382 -0.1827 -0.8655  0.4090
18761TIP3    H277699   2.036   2.217   0.337  0.6563 -0.6815 -0.0484
18762TIP3   OH277700   4.586   2.168  13.669  0.7984  0.2622  0.2692
18762TIP3    H177701   4.521   2.238  13.664 -0.2777 -0.7570 -0.5369
18762TIP3    H277702   4.670   2.212  13.661  0.0780  1.3354 -1.8727
18763TIP3   OH277703   5.750   2.674   5.296  0.3287 -0.5492 -0.3393
18763TIP3    H177704   5.748   2.700   5.204 -2.2799  2.4909  0.5015
18763TIP3    H277705   5.834   2.706   5.329 -0.6115  2.3470 -0.6270
18764TIP3   OH277706   5.712   6.362  12.881  0.3298 -0.3567 -0.9479
18764TIP3    H177707   5.768   6.318  12.818 -1.6502 -1.1514 -2.1663
18764TIP3    H277708   5.770   6.426  12.923  2.5735 -2.3025 -0.9709
18765TIP3   OH277709   4.055   2.201   2.838 -0.2382 -0.0105 -0.1823
18765TIP3    H177710   4.118   2.130   2.841  0.9903  0.9719 -1.9582
18765TIP3    H277711   4.023   2.201   2.747 -0.0775  1.8077 -0.2487
18766TIP3   OH277712   1.384   6.576   5.875  0.2461  0.0889  0.0159
18766TIP3    H177713   1.365   6.615   5.961  0.2558 -0.6251  0.3457
18766TIP3    H277714   1.298   6.558   5.837  0.2413  0.5426 -0.1854
18767TIP3   OH277715   6.333   2.752  15.614 -0.0997 -0.5249  0.3867
18767TIP3    H177716   6.340   2.838  15.656 -2.4879 -1.6507  3.2698
18767TIP3    H277717   6.401   2.699  15.656  2.0540  0.1483 -2.1084
18768TIP3   OH277718   2.576   6.469   6.288  0.0269 -0.2469 -0.1979
18768TIP3    H177719   2.669   6.449   6.274  0.1539 -0.3305  0.6968
18768TIP3    H277720   2.530   6.388   6.270  0.3407 -0.8075  1.4200
18769TIP3   OH277721   4.164   0.119   0.089  0.2266 -0.6922 -0.1762
18769TIP3    H177722   4.155   0.132   0.183  2.6165 -1.0148  0.1393
18769TIP3    H277723   4.210   0.035   0.082  0.2217 -0.5783 -1.6148
18770TIP3   OH277724   1.231   0.012  16.061 -0.3200 -0.2902  0.5664
18770TIP3    H177725   1.315   0.035  16.100  0.3209 -0.3135 -0.7797
18770TIP3    H277726   1.244   0.024  15.967 -1.4805 -1.3779  0.2506
18771TIP3   OH277727   2.401   2.712   0.148  0.6360 -0.2016  0.3947
18771TIP3    H177728   2.393   2.771   0.222  2.4850  1.0390 -0.3790
18771TIP3    H277729   2.461   2.644   0.177  1.6210  0.4629 -0.0531
18772TIP3   OH277730   4.648   4.901  15.317 -0.3468  0.3970 -0.4554
18772TIP3    H177731   4.691   4.865  15.394  2.9537 -1.7316 -3.1232
18772TIP3    H277732   4.570   4.945  15.351  1.3704  0.1806  4.0984
18773TIP3   OH277733   2.228   1.683   6.182  0.9567  0.4795 -0.4174
18773TIP3    H177734   2.189   1.601   6.212  3.6535 -0.8168 -0.3385
18773TIP3    H277735   2.234   1.736   6.262 -1.8580  1.2591 -0.6697
18774TIP3   OH277736   1.765   5.682   2.357  0.1002  0.1595 -0.8094
18774TIP3    H177737   1.839   5.742   2.362  1.0723 -1.2186  4.3192
18774TIP3    H277738   1.803   5.599   2.329  0.3974 -0.3039  0.9032
18775TIP3   OH277739   6.098   0.457  11.540 -0.0181 -0.0627 -0.3864
18775TIP3    H177740   6.039   0.417  11.475 -0.5270  0.5357 -0.2932
18775TIP3    H277741   6.041   0.477  11.614  0.3315  0.4021 -0.2463
18776TIP3   OH277742   2.873   2.400   0.961  0.1891  0.1511 -0.1941
18776TIP3    H177743   2.889   2.490   0.931  1.5445 -0.8810 -2.7366
18776TIP3    H277744   2.779   2.388   0.951 -0.1406  1.5573  1.0139
18777TIP3   OH277745   2.002   0.094  15.020  0.6001  0.0415  0.3173
18777TIP3    H177746   2.023   0.179  15.059 -0.6186  0.4275  0.1475
18777TIP3    H277747   1.933   0.058  15.076  0.3695 -0.3687 -0.2210
18778TIP3   OH277748   4.946   4.118   4.153  0.0445  0.0045 -0.2062
18778TIP3    H177749   4.930   4.024   4.150  2.6821 -0.4323 -1.9450
18778TIP3    H277750   4.908   4.152   4.072  1.2379  0.0502 -0.7617
18779TIP3   OH277751   1.957   1.003   4.686 -0.5583 -0.3760  0.4059
18779TIP3    H177752   1.945   1.093   4.716 -1.0793  0.2340 -1.5340
18779TIP3    H277753   2.021   1.010   4.616 -0.8926 -1.4659 -0.0129
18780TIP3   OH277754   6.748   4.930   4.702  0.0127 -0.2477 -0.4067
18780TIP3    H177755   6.688   4.862   4.673 -1.1049  0.4082  0.3063
18780TIP3    H277756   6.692   5.006   4.716  1.3502  1.0776 -1.9964
18781TIP3   OH277757   1.208   1.341   6.199  0.2693  0.4314 -0.4384
18781TIP3    H177758   1.181   1.431   6.178  2.0281  1.4163  1.3477
18781TIP3    H277759   1.300   1.337   6.173  0.5894 -0.3981  0.7642
18782TIP3   OH277760   2.991   0.106   5.659  0.4974  0.7117 -1.2145
18782TIP3    H177761   3.077   0.107   5.700 -0.2297 -0.0315  0.3491
18782TIP3    H277762   2.940   0.170   5.708 -0.4378 -0.3388 -0.7989
18783TIP3   OH277763   2.795   1.718  15.005 -0.3285 -0.0216  0.1132
18783TIP3    H177764   2.840   1.720  15.089 -0.3460  0.6813  0.1048
18783TIP3    H277765   2.846   1.776  14.949 -0.6704 -0.0114 -0.1873
18784TIP3   OH277766   2.820   3.393   5.058 -0.0187  0.5096 -0.4315
18784TIP3    H177767   2.760   3.333   5.014  1.2415 -1.0129 -0.1343
18784TIP3    H277768   2.907   3.357   5.040  0.7101  1.7794  0.4664
18785TIP3   OH277769   1.545   1.140  13.065  0.6659  0.4358  0.0330
18785TIP3    H177770   1.475   1.182  13.015  0.0563 -0.0986  0.4362
18785TIP3    H277771   1.626   1.178  13.029  0.3640 -1.4826 -2.8538
18786TIP3   OH277772   5.622   0.680  15.473  0.1741  0.6644 -0.0153
18786TIP3    H177773   5.593   0.742  15.540 -1.4038  0.4596 -0.5023
18786TIP3    H277774   5.670   0.734  15.410  2.2475  0.7612  1.5860
18787TIP3   OH277775   0.067   2.027  16.785 -0.6660  0.4053  0.2226
18787TIP3    H177776   0.055   2.117  16.814 -0.1693 -0.0616  1.9718
18787TIP3    H277777  -0.021   1.995  16.766 -0.8605  1.1988 -0.1944
18788TIP3   OH277778   3.159   6.124   0.515  0.3447  0.3151  0.2619
18788TIP3    H177779   3.154   6.219   0.510 -1.4767  0.2820  0.9217
18788TIP3    H277780   3.143   6.093   0.426  4.8537  0.6984 -0.7765
18789TIP3   OH277781   0.811   2.815  14.928  0.0412  0.2076  0.3558
18789TIP3    H177782   0.860   2.795  15.007  0.9995 -0.1866 -0.3289
18789TIP3    H277783   0.848   2.758  14.861 -0.4997  0.8009 -0.4694
18790TIP3   OH277784   2.665   2.878   3.357 -0.5502 -0.5047 -0.0616
18790TIP3    H177785   2.757   2.877   3.386 -0.6706  1.0062  0.4370
18790TIP3    H277786   2.616   2.852   3.435 -0.5569 -1.0885 -0.2625
18791TIP3   OH277787   0.690   1.354   0.779 -0.3925 -0.0856 -0.1506
18791TIP3    H177788   0.704   1.429   0.720  0.6343 -0.3855 -0.2892
18791TIP3    H277789   0.641   1.291   0.726 -2.4018  1.0002  0.3656
18792TIP3   OH277790   4.436   3.125   5.813  0.4901  0.2860 -0.3059
18792TIP3    H177791   4.465   3.150   5.725 -0.4522  1.9757 -0.1522
18792TIP3    H277792   4.515   3.094   5.857  1.1200  0.2100 -1.4808
18793TIP3   OH277793   1.536   3.726  13.812  0.3261  0.2405  0.5175
18793TIP3    H177794   1.487   3.798  13.851  0.7983  0.1485  1.2975
18793TIP3    H277795   1.616   3.767  13.778 -0.1312  0.3362 -0.4403
18794TIP3   OH277796   1.768   6.401  12.421 -0.1534 -0.6224 -0.2967
18794TIP3    H177797   1.845   6.454  12.440  0.1854 -0.8447 -1.0503
18794TIP3    H277798   1.803   6.321  12.382 -0.6465 -1.4584  0.9229
18795TIP3   OH277799   4.219   6.190  10.831 -0.7868  0.1682  0.2833
18795TIP3    H177800   4.266   6.198  10.748  0.7070  2.2344  1.2750
18795TIP3    H277801   4.188   6.099  10.832 -2.2663  0.5398 -3.2443
18796TIP3   OH277802   1.351   0.380  16.898  0.0340  0.2251  0.0304
18796TIP3    H177803   1.436   0.344  16.872 -0.6134 -1.1143 -0.2497
18796TIP3    H277804   1.370   0.471  16.922  1.4370  0.1142 -0.6220
18797TIP3   OH277805   5.981   0.135   5.110 -0.6296 -0.0707  0.4328
18797TIP3    H177806   6.040   0.060   5.108 -1.9397 -1.1135  0.0064
18797TIP3    H277807   5.957   0.144   5.202 -0.7462 -0.4184  0.4398
18798TIP3   OH277808   3.006   2.124   5.253  0.3530  0.6456  0.2800
18798TIP3    H177809   3.033   2.095   5.340 -1.4291 -1.4667  0.1652
18798TIP3    H277810   2.914   2.149   5.263 -0.6928 -2.1901 -1.5136
18799TIP3   OH277811   3.827   4.237   5.171 -0.0964  0.2880 -0.3210
18799TIP3    H177812   3.785   4.322   5.177 -2.7819 -1.0374  0.6213
18799TIP3    H277813   3.802   4.192   5.252 -0.3506 -2.0728 -1.6556
18800TIP3   OH277814   2.243   3.813   6.006  0.3317  0.8066 -0.1154
18800TIP3    H177815   2.309   3.759   6.050 -1.1221 -0.8568  0.0963
18800TIP3    H277816   2.236   3.775   5.918  0.2123  1.4520 -0.3856
18801TIP3   OH277817   2.006   4.891   1.502 -0.5984  0.1156 -0.0759
18801TIP3    H177818   2.020   4.951   1.575 -0.1719 -0.8885  0.6768
18801TIP3    H277819   1.912   4.893   1.487 -1.2029 -2.2384  2.7754
18802TIP3   OH277820   4.870   6.128  14.279  0.5003 -0.3042  0.2492
18802TIP3    H177821   4.870   6.118  14.184 -2.6776 -0.8012  0.2265
18802TIP3    H277822   4.807   6.062  14.310  1.5411 -0.2118  2.7235
18803TIP3   OH277823   6.625   2.890   6.567  0.6061  0.4844 -0.0737
18803TIP3    H177824   6.614   2.985   6.556 -1.9672  0.5251  2.4534
18803TIP3    H277825   6.556   2.852   6.513  1.4240  0.0142 -0.8101
18804TIP3   OH277826   4.991   5.680   1.999  0.2389 -0.5584  0.5030
18804TIP3    H177827   4.912   5.727   1.975 -0.8137 -2.2417  0.5723
18804TIP3    H277828   5.062   5.743   1.986 -0.9455  0.4825 -1.0443
18805TIP3   OH277829   5.002   6.488   0.739  0.0693  1.0336 -0.0712
18805TIP3    H177830   5.006   6.432   0.817 -0.0978  1.4433  0.2313
18805TIP3    H277831   5.093   6.499   0.712  0.0186 -0.5083 -0.9335
18806TIP3   OH277832   4.921   3.202  11.069  0.3561  0.2448 -0.5800
18806TIP3    H177833   5.006   3.199  11.111  0.9204  1.1937 -1.6199
18806TIP3    H277834   4.927   3.275  11.007 -0.7964 -0.4334 -1.5249
18807TIP3   OH277835   0.056   4.361  12.674 -0.6630 -0.7346  0.2438
18807TIP3    H177836   0.051   4.303  12.750 -0.9636  1.2091  1.7515
18807TIP3    H277837   0.032   4.306  12.600 -1.1698 -2.4633  1.6574
18808TIP3   OH277838   0.062   0.214   0.680 -0.3283 -0.1494 -0.0992
18808TIP3    H177839   0.007   0.254   0.747 -0.1628  0.6650 -0.4432
18808TIP3    H277840   0.148   0.256   0.691  0.2044 -1.3455  0.3771
18809TIP3   OH277841   3.353   2.425  14.383 -0.5691 -0.1970  0.4171
18809TIP3    H177842   3.327   2.431  14.475  0.1635  0.3450  0.5902
18809TIP3    H277843   3.362   2.331  14.367  0.2513 -0.2506  1.1626
18810TIP3   OH277844   6.700   5.230  14.643  0.7165 -0.3165  0.4590
18810TIP3    H177845   6.690   5.300  14.578 -0.8153 -1.2424 -0.3426
18810TIP3    H277846   6.667   5.152  14.598 -0.6982 -0.8967  2.4836
18811TIP3   OH277847   2.034   1.916   3.264  0.4590  0.1085  0.6295
18811TIP3    H177848   1.983   1.918   3.183 -0.0953  1.2776  1.0151
18811TIP3    H277849   2.099   1.847   3.248  0.4691  0.4380 -0.8827
18812TIP3   OH277850   1.665   2.147   3.475 -0.1121 -0.3027  0.2785
18812TIP3    H177851   1.595   2.091   3.509 -1.0440  1.7828  1.8913
18812TIP3    H277852   1.738   2.086   3.461 -1.1512 -1.9759  1.8043
18813TIP3   OH277853   0.195   4.344  12.163  0.4187 -0.4152 -0.3899
18813TIP3    H177854   0.229   4.424  12.201 -1.1857  1.1436 -2.1619
18813TIP3    H277855   0.221   4.347  12.071 -1.5166 -0.8572 -0.9763
18814TIP3   OH277856   6.325   5.840  12.239  0.4448 -0.2460 -0.2853
18814TIP3    H177857   6.292   5.779  12.173 -0.0677 -0.0917 -0.1677
18814TIP3    H277858   6.394   5.889  12.193  0.7688 -0.8163 -0.4180
18815TIP3   OH277859   4.491   4.680   5.818  0.6134 -0.7706  0.4355
18815TIP3    H177860   4.576   4.711   5.787  1.8445 -2.6701  1.8224
18815TIP3    H277861   4.503   4.663   5.911 -1.3838 -0.7567  0.7206
18816TIP3   OH277862   1.718   2.653   0.645  0.0610 -0.2027  0.0677
18816TIP3    H177863   1.695   2.569   0.605 -0.5912 -0.8804  1.8213
18816TIP3    H277864   1.650   2.713   0.616 -0.5550 -0.7553  0.3637
18817TIP3   OH277865   6.290   6.684   0.803 -0.0841  0.0048  0.4794
18817TIP3    H177866   6.367   6.632   0.782 -0.0080 -0.4382  1.8400
18817TIP3    H277867   6.228   6.665   0.733  0.4907 -0.7655  0.1797
18818TIP3   OH277868   4.123   6.297  11.049  0.4421 -0.9448 -0.2762
18818TIP3    H177869   4.046   6.255  11.086 -0.3501  0.5299 -0.2327
18818TIP3    H277870   4.136   6.254  10.964 -0.2139 -1.4298 -0.1314
18819TIP3   OH277871   1.252   3.957  10.301  0.0225 -0.1435  0.3302
18819TIP3    H177872   1.333   3.935  10.255  1.3380  1.5925  1.7446
18819TIP3    H277873   1.270   4.040  10.344 -1.7869 -0.7985  2.4641
18820TIP3   OH277874   2.545   2.511  13.155  0.4787  0.3462 -0.2868
18820TIP3    H177875   2.525   2.473  13.240  1.0218 -0.3577 -0.4683
18820TIP3    H277876   2.586   2.596  13.175  2.0304 -0.4936  0.2051
18821TIP3   OH277877   4.031   0.340  11.818 -0.0163  0.2977  0.3352
18821TIP3    H177878   4.074   0.254  11.815  0.4306  0.4217  2.3554
18821TIP3    H277879   4.092   0.396  11.866 -1.0329  1.3009  0.4905
18822TIP3   OH277880   0.458   6.330  13.055  0.0711 -0.3299  0.1180
18822TIP3    H177881   0.461   6.326  13.151 -1.0350  1.6757  0.2636
18822TIP3    H277882   0.369   6.302  13.033 -0.0446  0.2912 -0.2326
18823TIP3   OH277883   1.284   3.675  13.290  0.1735  0.1721 -0.6199
18823TIP3    H177884   1.248   3.744  13.345  0.3773  0.9419 -1.4337
18823TIP3    H277885   1.305   3.604  13.350  2.5832  1.8736  0.6420
18824TIP3   OH277886   1.907   1.283   0.202 -0.0859  0.1125  0.1123
18824TIP3    H177887   1.930   1.195   0.231  0.6749  0.1803 -0.2903
18824TIP3    H277888   1.983   1.336   0.223 -0.8496  0.8358  1.0753
18825TIP3   OH277889   1.273   3.377  15.129  0.2929  0.5448 -0.4700
18825TIP3    H177890   1.245   3.307  15.188 -1.2065  1.0310 -0.5839
18825TIP3    H277891   1.317   3.332  15.057  0.9463 -0.1437  0.3477
18826TIP3   OH277892   4.884   1.192   5.737  0.1571 -0.6165 -0.1062
18826TIP3    H177893   4.825   1.220   5.808  0.5922 -0.0929  0.0533
18826TIP3    H277894   4.971   1.218   5.767  0.4075 -0.9033 -0.5863
18827TIP3   OH277895   5.963   1.519   4.768 -0.3964  0.3453  0.1565
18827TIP3    H177896   5.895   1.453   4.781 -0.5032  0.4108 -0.0670
18827TIP3    H277897   5.996   1.502   4.680  1.1781 -0.8753  0.9551
18828TIP3   OH277898   1.847   2.997  15.838  0.7525  0.0601 -0.6356
18828TIP3    H177899   1.807   3.084  15.838 -1.8609 -1.0995 -0.1317
18828TIP3    H277900   1.889   2.989  15.924  0.6509  0.6459 -0.5310
18829TIP3   OH277901   5.729   1.453  12.031 -0.1886 -0.3129 -0.4818
18829TIP3    H177902   5.797   1.512  12.062  0.1517 -0.6604 -0.5732
18829TIP3    H277903   5.648   1.503  12.042  0.2418  0.7877 -2.0532
18830TIP3   OH277904   6.078   0.052   6.507 -0.3101 -0.6959 -0.5292
18830TIP3    H177905   6.149   0.022   6.565 -0.7006 -3.1519 -1.2675
18830TIP3    H277906   6.059   0.141   6.537  2.3068 -0.4112  0.4206
18831TIP3   OH277907   5.173   0.150  16.119 -0.0593 -0.2066  0.2590
18831TIP3    H177908   5.141   0.066  16.086 -2.1636  1.0790 -1.1600
18831TIP3    H277909   5.161   0.211  16.045  1.8187  1.2568  1.1065
18832TIP3   OH277910   6.587   0.950   1.679 -0.5698 -0.2600  0.4010
18832TIP3    H177911   6.505   0.912   1.646 -0.7505 -0.9576  1.6252
18832TIP3    H277912   6.634   0.876   1.717  2.1059 -0.4899 -3.0528
18833TIP3   OH277913   0.346   1.349   0.818 -0.7025  0.0046 -0.1096
18833TIP3    H177914   0.305   1.371   0.902 -0.6973 -1.8349  0.3862
18833TIP3    H277915   0.277   1.362   0.753 -1.1545 -0.0774  0.3534
18834TIP3   OH277916   4.803   5.964  11.971 -0.2479 -0.2497 -0.3998
18834TIP3    H177917   4.790   5.884  12.021  1.8066 -1.7052 -2.1213
18834TIP3    H277918   4.736   6.024  12.003 -0.1985 -1.7863  2.7038
18835TIP3   OH277919   5.939   3.794  16.915  0.4268 -0.1189 -0.3366
18835TIP3    H177920   5.864   3.849  16.938  0.4004  0.1666 -1.1125
18835TIP3    H277921   5.991   3.791  16.996  0.2363  0.7334 -0.1693
18836TIP3   OH277922   3.411   2.309   3.809 -0.3549  0.4021 -0.2355
18836TIP3    H177923   3.455   2.376   3.757  1.1239  0.8549  1.5315
18836TIP3    H277924   3.393   2.238   3.747  2.2614  0.5064 -1.1631
18837TIP3   OH277925   0.079   4.484  15.332 -0.4081  0.1321 -0.0807
18837TIP3    H177926   0.102   4.576  15.322  1.4108 -0.0585  1.8831
18837TIP3    H277927  -0.011   4.485  15.365 -0.8996  1.1492 -1.4326
18838TIP3   OH277928   1.018   0.525   5.100 -0.0642  0.0738  0.2403
18838TIP3    H177929   1.026   0.578   5.021 -0.5347 -0.6892 -0.3172
18838TIP3    H277930   1.090   0.555   5.156  0.3426  0.5230 -0.5142
18839TIP3   OH277931   3.844   5.442  15.370  0.4611  0.6096  0.1297
18839TIP3    H177932   3.898   5.377  15.326  0.4572  1.2773 -0.8734
18839TIP3    H277933   3.850   5.520  15.315 -1.0752  0.8634  0.2854
18840TIP3   OH277934   0.909   4.503   5.984  0.6363  0.1719  0.1978
18840TIP3    H177935   0.890   4.429   6.042 -1.4276  1.5162  1.2927
18840TIP3    H277936   0.899   4.580   6.040 -0.8507  1.4660 -1.7945
18841TIP3   OH277937   5.852   5.036   2.002 -0.2078 -0.3778 -0.1187
18841TIP3    H177938   5.909   5.069   2.071  0.6232 -0.1259 -0.9148
18841TIP3    H277939   5.907   4.973   1.954 -1.3657 -1.9654  0.6022
18842TIP3   OH277940   2.700   3.408   4.591  0.1709 -0.0859  0.3360
18842TIP3    H177941   2.741   3.385   4.508  0.9424 -0.2062  0.7470
18842TIP3    H277942   2.735   3.344   4.654 -1.8292 -1.1620  0.3834
18843TIP3   OH277943   3.584   2.578   4.117 -0.1139  0.0600 -0.2430
18843TIP3    H177944   3.609   2.532   4.198 -0.4777  2.6002  1.3634
18843TIP3    H277945   3.612   2.519   4.047 -0.2123 -2.4283  1.7272
18844TIP3   OH277946   3.194   5.769   3.878 -0.5724  0.2406 -0.0495
18844TIP3    H177947   3.263   5.834   3.873  1.1235 -1.4704  0.2474
18844TIP3    H277948   3.240   5.688   3.902 -2.6629 -0.9604  0.0059
18845TIP3   OH277949   4.110   5.599   5.186  0.1248 -0.1034 -0.0652
18845TIP3    H177950   4.019   5.604   5.216  0.4555 -0.4350  1.0174
18845TIP3    H277951   4.119   5.510   5.153  0.0408 -0.0540 -0.2219
18846TIP3   OH277952   5.224   1.245  16.491  0.8708  0.3298  0.5848
18846TIP3    H177953   5.229   1.194  16.411 -0.1973  2.7135 -1.0813
18846TIP3    H277954   5.138   1.223  16.528  0.4046  0.9189 -0.1382
18847TIP3   OH277955   0.878   1.773  14.903  0.4012 -0.2945 -0.0555
18847TIP3    H177956   0.916   1.849  14.947 -2.2649 -0.0711  1.9255
18847TIP3    H277957   0.823   1.811  14.834  0.4708 -0.4885 -0.2174
18848TIP3   OH277958   2.988   2.540   5.855  0.1244 -0.0362 -0.2030
18848TIP3    H177959   3.049   2.490   5.909 -0.0749  3.0025  3.1031
18848TIP3    H277960   2.902   2.524   5.896 -0.0377  2.3020  0.4355
18849TIP3   OH277961   2.101   2.804  16.983  0.4077 -0.1877  0.1906
18849TIP3    H177962   2.099   2.754  17.064 -1.3823  0.8241  0.8047
18849TIP3    H277963   2.126   2.893  17.010  0.3479  0.0237 -0.4341
18850TIP3   OH277964   0.646   2.764   2.204  0.1140 -0.0946  0.4499
18850TIP3    H177965   0.632   2.703   2.132  0.1898  0.5087 -0.0734
18850TIP3    H277966   0.732   2.801   2.188 -0.4322  1.0520  0.1004
18851TIP3   OH277967   1.855   1.875   1.541  0.0752  0.2883 -0.5037
18851TIP3    H177968   1.858   1.843   1.451  0.5270  0.4377 -0.5420
18851TIP3    H277969   1.770   1.845   1.574  1.0704 -2.1291 -0.0829
18852TIP3   OH277970   5.631   6.249   3.579  0.0834  0.8094 -0.2508
18852TIP3    H177971   5.553   6.212   3.538  0.4868 -1.3725  0.8521
18852TIP3    H277972   5.700   6.184   3.562  0.7625  0.9232  1.9285
18853TIP3   OH277973   0.968   1.286  16.707 -0.5599  0.0600  0.7855
18853TIP3    H177974   0.954   1.222  16.777  2.5329 -1.6660 -0.0601
18853TIP3    H277975   1.018   1.356  16.749  0.8166 -0.7158  0.4773
18854TIP3   OH277976   6.275   6.127   4.380  0.3930 -0.1250  0.2232
18854TIP3    H177977   6.312   6.206   4.420 -0.6520 -0.1257  1.1994
18854TIP3    H277978   6.261   6.067   4.453 -0.9444 -0.3644 -0.2171
18855TIP3   OH277979   5.918   0.311  13.591  0.0018  0.0283  0.0618
18855TIP3    H177980   5.920   0.216  13.581 -0.0983 -0.2228  2.1700
18855TIP3    H277981   5.830   0.330  13.625  0.3217  0.7757  0.4959
18856TIP3   OH277982   2.256   5.515   1.635 -0.0461  0.5439  0.2644
18856TIP3    H177983   2.305   5.513   1.718 -2.0374  2.2422  1.5244
18856TIP3    H277984   2.209   5.599   1.637  0.9169  1.2327 -3.2214
18857TIP3   OH277985   0.884   1.009  12.536 -0.2167 -0.1566 -0.2620
18857TIP3    H177986   0.919   0.982  12.451 -2.3952 -1.5359 -0.7563
18857TIP3    H277987   0.838   1.091  12.518  1.5551  0.9547  0.1333
18858TIP3   OH277988   0.990   0.271   3.052 -0.5456 -0.0059 -0.2473
18858TIP3    H177989   0.944   0.326   3.115 -1.0142 -1.6463  0.8865
18858TIP3    H277990   0.924   0.251   2.986 -1.2538 -1.5811  0.8851
18859TIP3   OH277991   3.358   4.552   3.419 -0.2057 -0.1928  0.4944
18859TIP3    H177992   3.401   4.589   3.342 -0.0458 -0.6678  0.3552
18859TIP3    H277993   3.353   4.458   3.401 -2.0940 -0.0421  0.1144
18860TIP3   OH277994   6.597   0.140  15.264  0.6193  0.3577  0.1754
18860TIP3    H177995   6.672   0.165  15.211  1.1530  0.3340  0.9168
18860TIP3    H277996   6.577   0.050  15.237 -0.3005  0.9960 -1.3344
18861TIP3   OH277997   5.278   5.763   1.921  0.3817 -0.4408  0.2453
18861TIP3    H177998   5.293   5.669   1.918  0.4204 -0.4509  0.7203
18861TIP3    H277999   5.331   5.794   1.994  1.2439  0.1200 -0.6193
18862TIP3   OH278000   6.623   0.255   3.943  0.3029  0.4854  0.0964
18862TIP3    H178001   6.685   0.323   3.916 -1.5823  1.8842 -0.7556
18862TIP3    H278002   6.609   0.203   3.863 -0.4008  0.7893  0.0210
18863TIP3   OH278003   4.903   0.106  13.430  0.2251 -0.3680 -0.3600
18863TIP3    H178004   4.959   0.107  13.352 -0.1165 -0.4606 -0.6108
18863TIP3    H278005   4.815   0.120  13.396  0.1867  0.5639  0.1141
18864TIP3   OH278006   0.593   0.193   5.052  0.4058  0.2040  0.1278
18864TIP3    H178007   0.574   0.216   5.143 -1.9529  0.6684 -0.4398
18864TIP3    H278008   0.586   0.275   5.004  3.2514  0.2529 -0.2683
18865TIP3   OH278009   5.429   1.765   5.098  0.5838 -0.5452  0.0782
18865TIP3    H178010   5.349   1.716   5.078 -0.2881  0.9448 -0.1760
18865TIP3    H278011   5.418   1.848   5.052  1.3885  0.4486  1.6430
18866TIP3   OH278012   1.607   5.535   0.616  0.3837  0.9990  0.3049
18866TIP3    H178013   1.527   5.537   0.669  0.7108 -0.5178  0.8793
18866TIP3    H278014   1.602   5.614   0.562 -0.7988  1.6681  1.3689
18867TIP3   OH278015   6.208   1.391   1.852 -0.1576  0.1505  0.2811
18867TIP3    H178016   6.205   1.309   1.803  1.9921  0.6725 -0.8274
18867TIP3    H278017   6.206   1.365   1.944 -2.2630 -0.9619 -0.0437
18868TIP3   OH278018   5.960   3.851   3.747 -0.1512 -0.5391  0.0492
18868TIP3    H178019   5.948   3.854   3.652 -0.2971 -1.7399  0.0296
18868TIP3    H278020   5.875   3.875   3.783 -0.7977 -2.5048 -0.1232
18869TIP3   OH278021   1.631   3.370   4.933  0.3112  0.1849  0.8341
18869TIP3    H178022   1.665   3.289   4.971 -0.2227 -0.9614 -1.0555
18869TIP3    H278023   1.709   3.418   4.906  0.5922 -0.8501 -0.2812
18870TIP3   OH278024   1.761   6.737   1.214  0.5752  0.1489  0.1618
18870TIP3    H178025   1.745   6.645   1.238 -1.4644  0.4045 -0.1241
18870TIP3    H278026   1.847   6.756   1.251  1.0694 -1.9008  0.1683
18871TIP3   OH278027   0.378   2.967  11.568  0.0752 -0.4228  0.2591
18871TIP3    H178028   0.294   2.972  11.614  0.3948 -0.2378  0.8284
18871TIP3    H278029   0.358   2.998  11.479 -0.6843 -1.4413  0.0626
18872TIP3   OH278030   1.973   1.273  12.138  0.1284  0.2724  0.0791
18872TIP3    H178031   1.963   1.368  12.148  0.5851  0.3209  0.0815
18872TIP3    H278032   1.907   1.249  12.073  1.1299  0.8407 -1.1632
18873TIP3   OH278033   3.394   1.155   0.804 -0.3751 -0.1447 -0.5059
18873TIP3    H178034   3.455   1.088   0.774 -0.4048 -0.7358  0.7153
18873TIP3    H278035   3.358   1.119   0.885 -0.7356  1.1459 -0.0896
18874TIP3   OH278036   6.032   1.252   0.848 -0.1693  0.6599  1.1360
18874TIP3    H178037   5.940   1.265   0.824  0.0999  1.0237  0.2834
18874TIP3    H278038   6.047   1.158   0.836  0.7832  1.2479 -3.2056
18875TIP3   OH278039   4.287   0.670  13.637 -0.0576  0.2306  0.1579
18875TIP3    H178040   4.241   0.685  13.554  1.4963 -3.2964 -1.4542
18875TIP3    H278041   4.328   0.754  13.657 -1.2176  1.3977 -2.1828
18876TIP3   OH278042   5.382   1.479  15.913 -0.2663 -0.3153  0.0471
18876TIP3    H178043   5.445   1.407  15.904  1.6079  1.2364  0.2471
18876TIP3    H278044   5.328   1.455  15.988  1.8392 -0.4549  1.5707
18877TIP3   OH278045   4.381   5.060   2.738  0.1735 -0.6959 -0.0761
18877TIP3    H178046   4.385   5.153   2.713  0.3965 -0.9979 -1.2079
18877TIP3    H278047   4.344   5.060   2.826 -1.5284  0.3782 -0.7604
18878TIP3   OH278048   0.293   0.583  15.140  0.0387 -0.0439 -0.5228
18878TIP3    H178049   0.256   0.592  15.052  2.5897  2.2255 -1.4556
18878TIP3    H278050   0.249   0.507  15.178 -1.1885 -0.9946 -3.7321
18879TIP3   OH278051   1.371   5.954   3.996  0.0930 -0.0362  0.1432
18879TIP3    H178052   1.360   6.035   3.947 -0.8029 -0.7604 -0.8888
18879TIP3    H278053   1.456   5.921   3.968  1.3152  1.4629  1.9721
18880TIP3   OH278054   2.839   0.863  11.516  0.4105  0.0075  0.1167
18880TIP3    H178055   2.831   0.768  11.527  0.4083 -0.0333 -0.2434
18880TIP3    H278056   2.806   0.899  11.598 -1.8159 -0.2165 -0.6584
18881TIP3   OH278057   1.945   2.857   4.072  0.5170  0.3005  0.3995
18881TIP3    H178058   1.988   2.867   4.157  2.3206  3.2245 -0.7973
18881TIP3    H278059   1.863   2.905   4.081  0.8988  0.9590  0.3496
18882TIP3   OH278060   3.368   3.818  16.414 -0.8051  0.7297  0.2203
18882TIP3    H178061   3.397   3.909  16.413 -0.5940  0.6546 -0.8416
18882TIP3    H278062   3.408   3.779  16.337 -0.4159 -0.4194  0.9885
18883TIP3   OH278063   0.560   5.842  13.832 -0.4351  0.2229  0.1175
18883TIP3    H178064   0.505   5.763  13.830  0.8738 -0.6963 -0.0112
18883TIP3    H278065   0.559   5.874  13.742  0.5400 -0.7110 -0.2320
18884TIP3   OH278066   5.139   1.662  16.031  0.6991  0.1416  0.1966
18884TIP3    H178067   5.201   1.640  16.100 -0.1230 -0.8201  0.6548
18884TIP3    H278068   5.065   1.701  16.077  0.4614  0.1888 -0.2192
18885TIP3   OH278069   4.941   0.044  16.998 -0.1755 -0.1140 -0.3882
18885TIP3    H178070   4.944  -0.044  17.036 -5.5555 -0.7226 -1.0168
18885TIP3    H278071   4.997   0.039  16.921 -1.3949 -3.4645 -1.1374
18886TIP3   OH278072   6.106   4.371  16.379 -1.3179 -0.1780  0.0101
18886TIP3    H178073   6.086   4.456  16.420  1.7044  1.9947 -2.7312
18886TIP3    H278074   6.185   4.342  16.423 -0.6672 -0.0866 -1.0802
18887TIP3   OH278075   6.736   3.010  17.069 -0.3199 -0.4218 -0.3076
18887TIP3    H178076   6.763   2.921  17.092 -0.3424 -0.7145 -1.3876
18887TIP3    H278077   6.809   3.065  17.098 -0.9654 -0.6217  1.7245
18888TIP3   OH278078   4.159   2.146   4.819 -0.0834 -0.1509  0.2185
18888TIP3    H178079   4.225   2.082   4.793  0.2047  1.1808 -2.4522
18888TIP3    H278080   4.086   2.132   4.758 -1.6606 -0.5121  2.1012
18889TIP3   OH278081   1.439   0.213  13.982  0.1620 -0.1045  0.1702
18889TIP3    H178082   1.370   0.277  13.963 -0.7813 -1.1454  0.0376
18889TIP3    H278083   1.521   0.261  13.969 -0.5339  0.9827 -0.2522
18890TIP3   OH278084   2.463   5.244  12.226  0.0170 -0.4573 -0.2462
18890TIP3    H178085   2.483   5.247  12.133 -2.2384 -1.8445 -0.8096
18890TIP3    H278086   2.416   5.162  12.238 -3.5410  1.6887  1.3194
18891TIP3   OH278087   0.304   0.731  14.108 -0.1465  0.2748  0.2199
18891TIP3    H178088   0.352   0.726  14.026 -0.0945 -1.1300  0.3163
18891TIP3    H278089   0.345   0.803  14.156 -0.6454  1.5710 -1.2646
18892TIP3   OH278090   4.949   1.519  12.846 -0.3075  0.1156 -0.3706
18892TIP3    H178091   5.026   1.566  12.879 -0.6445 -1.1144  2.3180
18892TIP3    H278092   4.941   1.548  12.755  2.2118  1.7001 -0.1614
18893TIP3   OH278093   1.169   2.061  16.820 -0.0364 -0.2343 -0.1868
18893TIP3    H178094   1.215   2.073  16.904 -0.0899 -1.7752  0.0860
18893TIP3    H278095   1.227   2.002  16.770 -1.2576 -1.4508 -0.1992
18894TIP3   OH278096   6.584   1.462  11.759  0.1444  0.0208  0.1433
18894TIP3    H178097   6.504   1.491  11.803 -0.4699 -1.0378 -0.2337
18894TIP3    H278098   6.595   1.523  11.686 -1.2357 -0.7881 -0.7606
18895TIP3   OH278099   6.616   2.009  16.286  0.0843  0.2158 -0.0621
18895TIP3    H178100   6.608   1.949  16.360 -1.3428  0.9870  0.4342
18895TIP3    H278101   6.699   2.054  16.300 -1.0648  1.7516  2.1567
18896TIP3   OH278102   0.239   2.800   2.764  0.0572  0.0734  0.2918
18896TIP3    H178103   0.277   2.848   2.691 -0.0210 -0.2526  0.0338
18896TIP3    H278104   0.308   2.797   2.830 -0.1998  1.2248  0.6300
18897TIP3   OH278105   6.230   5.159   5.321 -0.5910 -0.0083 -0.1075
18897TIP3    H178106   6.134   5.156   5.318 -0.6617  2.4268 -1.4770
18897TIP3    H278107   6.258   5.092   5.258 -1.3825 -0.7412  0.3056
18898TIP3   OH278108   2.623   3.906  15.582  0.0774 -0.0641  0.4621
18898TIP3    H178109   2.664   3.972  15.639 -0.8814  0.1167  0.9482
18898TIP3    H278110   2.585   3.842  15.642  0.5650 -0.7930 -0.0045
18899TIP3   OH278111   5.700   1.739  15.163  0.3976  0.0520 -0.1869
18899TIP3    H178112   5.716   1.651  15.130 -2.2354 -0.4281 -0.2849
18899TIP3    H278113   5.762   1.794  15.116  0.8472 -1.4897 -1.4440
18900TIP3   OH278114   2.808   1.260   0.644  0.4391 -0.2039  0.9355
18900TIP3    H178115   2.750   1.190   0.673  0.3020  0.2362  1.7324
18900TIP3    H278116   2.751   1.335   0.632  0.8021  0.1605  1.4624
18901TIP3   OH278117   0.311   6.325   2.909  0.3698  0.1263  0.1663
18901TIP3    H178118   0.334   6.348   2.999  0.7046 -0.7576  0.3111
18901TIP3    H278119   0.391   6.285   2.874  0.2715  0.5547 -0.5562
18902TIP3   OH278120   4.475   1.414   0.891 -0.5534 -0.1412  0.0495
18902TIP3    H178121   4.439   1.357   0.959  3.4304 -1.7139  0.9866
18902TIP3    H278122   4.502   1.354   0.821  1.4688  0.7869 -0.0054
18903TIP3   OH278123   5.839   2.157  13.602  0.5105  0.4486 -0.0664
18903TIP3    H178124   5.841   2.116  13.689  0.7357 -0.9316 -0.7002
18903TIP3    H278125   5.927   2.192  13.590  1.5919 -2.3984 -1.1049
18904TIP3   OH278126   2.428   3.611   2.111  0.0697  0.5585  0.5108
18904TIP3    H178127   2.343   3.639   2.144 -1.1264  1.6188 -3.2797
18904TIP3    H278128   2.477   3.692   2.096  0.7250  0.0836  0.0306
18905TIP3   OH278129   2.047   5.878   4.351  0.4149  0.2186  0.0861
18905TIP3    H178130   1.970   5.886   4.406  0.8579  0.7469  0.6290
18905TIP3    H278131   2.112   5.936   4.391  1.1552 -0.3652 -0.2567
18906TIP3   OH278132   3.403   5.297   3.343 -0.2982  0.4051 -0.4532
18906TIP3    H178133   3.463   5.316   3.271  1.8310 -0.9402  0.8879
18906TIP3    H278134   3.352   5.222   3.312  2.1088 -1.5788  0.1759
18907TIP3   OH278135   6.153   4.079  10.761  0.2371 -0.0303  0.5882
18907TIP3    H178136   6.171   4.046  10.673  2.0703 -2.5765  1.8469
18907TIP3    H278137   6.224   4.141  10.779  0.6797 -0.5955  0.8032
18908TIP3   OH278138   0.373   2.948   4.604  0.1576 -0.3912  0.0129
18908TIP3    H178139   0.395   2.992   4.522  0.2438  0.8383  0.6732
18908TIP3    H278140   0.314   2.878   4.578  1.8339 -1.3481 -1.3345
18909TIP3   OH278141   4.108   4.737   4.992 -0.2652 -1.0907 -0.3881
18909TIP3    H178142   4.178   4.785   5.036 -1.3514  1.0561 -0.8944
18909TIP3    H278143   4.149   4.702   4.913  0.3435 -0.1153 -0.5188
18910TIP3   OH278144   2.391   4.367   1.856 -0.2377  0.1528  0.3344
18910TIP3    H178145   2.376   4.378   1.762  2.4075  1.6185  0.0504
18910TIP3    H278146   2.348   4.442   1.896  0.5237  0.7146  0.1034
18911TIP3   OH278147   5.163   4.939  16.622 -0.1413  0.9538 -0.1934
18911TIP3    H178148   5.196   4.857  16.660  0.3468  0.6487 -1.2307
18911TIP3    H278149   5.217   4.952  16.544 -0.2860  2.2221 -0.0917
18912TIP3   OH278150   2.728   3.259  13.985  0.3844 -0.1125  0.1477
18912TIP3    H178151   2.715   3.216  14.069 -0.9832  2.1376  1.1224
18912TIP3    H278152   2.762   3.190  13.928  2.3554 -1.4167  2.8057
18913TIP3   OH278153   3.241   4.567   3.098  0.3499 -0.0650  0.2956
18913TIP3    H178154   3.223   4.579   3.005  0.0256 -1.0257  0.2232
18913TIP3    H278155   3.172   4.507   3.128 -0.4275  1.3950  1.4844
18914TIP3   OH278156   2.864   4.004  11.853  0.3643  0.1496 -0.0758
18914TIP3    H178157   2.785   3.950  11.843  0.3605 -0.2172  1.6553
18914TIP3    H278158   2.832   4.094  11.846  0.1640 -0.0308 -1.6572
18915TIP3   OH278159   0.120   6.694   2.481 -0.3680  0.0046 -0.3806
18915TIP3    H178160   0.093   6.726   2.567 -0.9779  1.2379 -1.0114
18915TIP3    H278161   0.142   6.774   2.432  4.0272 -0.9014 -0.0650
18916TIP3   OH278162   1.710   4.075   5.823  0.6294  0.2375  0.3316
18916TIP3    H178163   1.723   4.134   5.897 -0.3625 -0.4153  1.0363
18916TIP3    H278164   1.708   4.132   5.746  0.0433  1.0794  0.9665
18917TIP3   OH278165   2.284   1.833  13.036 -0.6177 -0.7489 -0.2218
18917TIP3    H178166   2.231   1.887  13.095 -0.0342  1.7755 -1.9343
18917TIP3    H278167   2.219   1.783  12.986 -1.3239  0.8243 -0.9059
18918TIP3   OH278168   4.964   2.005   5.520  0.3783 -0.3067  0.1527
18918TIP3    H178169   4.979   1.963   5.435 -3.0338 -2.8182  0.6872
18918TIP3    H278170   4.990   1.938   5.584  1.1275  0.8600  1.0899
18919TIP3   OH278171   1.763   1.653  13.059  0.2005  0.2696  0.0250
18919TIP3    H178172   1.849   1.678  13.025  0.4614 -1.3123 -0.5030
18919TIP3    H278173   1.777   1.569  13.101 -1.1503 -0.1445 -0.3145
18920TIP3   OH278174   4.126   5.034   1.485  0.0453  0.0744 -0.0427
18920TIP3    H178175   4.090   4.974   1.551 -2.0776  1.3456  0.0202
18920TIP3    H278176   4.133   4.982   1.405 -1.3771 -0.3720  0.1160
18921TIP3   OH278177   4.183   6.457   0.883  0.4005 -0.0553 -0.0582
18921TIP3    H178178   4.203   6.528   0.822  1.8127 -0.3026  0.0864
18921TIP3    H278179   4.093   6.433   0.863 -0.4211  2.4063  0.5314
18922TIP3   OH278180   3.543   0.459  14.251 -0.2120  0.0925 -0.6911
18922TIP3    H178181   3.569   0.382  14.200  0.5699 -0.7531  0.9370
18922TIP3    H278182   3.612   0.523  14.233  1.2492 -0.9555  0.9261
18923TIP3   OH278183   1.088   4.236  16.231  0.1767 -0.1632  0.0447
18923TIP3    H178184   1.133   4.197  16.306 -0.3331 -0.7946  0.0274
18923TIP3    H278185   1.005   4.189  16.226  0.4101 -0.4544 -1.2066
18924TIP3   OH278186   0.710   4.508  13.052 -0.3466 -0.6389 -0.1759
18924TIP3    H178187   0.725   4.589  13.101  0.0380  0.6146 -2.2815
18924TIP3    H278188   0.620   4.483  13.074  0.5260 -1.3164  2.7997
18925TIP3   OH278189   3.905   5.381  14.167  0.0509 -0.3420 -0.4064
18925TIP3    H178190   3.910   5.373  14.263  0.9298 -1.3465 -0.5256
18925TIP3    H278191   3.836   5.319  14.142 -0.7555  0.5188 -0.3670
18926TIP3   OH278192   4.479   1.706  15.989 -0.2518 -0.7141  0.3498
18926TIP3    H178193   4.478   1.791  15.944 -1.2796 -0.4219  0.9090
18926TIP3    H278194   4.505   1.643  15.921  0.1789 -0.0066 -0.1542
18927TIP3   OH278195   6.632   2.666   4.080  0.0032 -0.4576 -0.2807
18927TIP3    H178196   6.652   2.573   4.095  1.5225  0.0087  0.6208
18927TIP3    H278197   6.610   2.700   4.166  0.0895  0.1878 -0.5144
18928TIP3   OH278198   0.644   1.961   5.045 -0.0601 -0.7878 -0.3212
18928TIP3    H178199   0.583   2.035   5.050  0.2907 -0.5475  0.4949
18928TIP3    H278200   0.656   1.934   5.136 -1.3173 -2.7968 -0.7358
18929TIP3   OH278201   2.168   3.339   2.760 -0.3267 -0.0069  0.1685
18929TIP3    H178202   2.262   3.351   2.768 -0.5504  2.5512 -0.6281
18929TIP3    H278203   2.151   3.254   2.800  2.3381 -0.6147  0.0895
18930TIP3   OH278204   4.789   1.736  17.069 -0.7500  0.2211 -0.0244
18930TIP3    H178205   4.840   1.802  17.022 -0.7916 -1.8048 -3.1350
18930TIP3    H278206   4.853   1.692  17.125  0.3561 -0.3907 -1.7333
18931TIP3   OH278207   5.506   2.771   5.793 -0.3555  0.3092  0.2257
18931TIP3    H178208   5.574   2.813   5.846 -1.4580  2.1588  0.2127
18931TIP3    H278209   5.548   2.691   5.760  1.5468  0.9986  0.8738
18932TIP3   OH278210   6.191   5.445  12.957  0.0611 -0.1214 -0.0583
18932TIP3    H178211   6.148   5.398  13.028  1.3679  0.9175  1.4559
18932TIP3    H278212   6.132   5.518  12.937 -0.0032 -0.0407  0.4167
18933TIP3   OH278213   3.852   1.737   5.652  0.0950  0.3759 -0.5992
18933TIP3    H178214   3.842   1.672   5.583 -2.3381  0.6690 -0.5751
18933TIP3    H278215   3.932   1.784   5.630 -1.2571  1.2468 -3.9139
18934TIP3   OH278216   0.478   1.103   5.357 -0.0205  0.2396 -0.3767
18934TIP3    H178217   0.387   1.085   5.380 -0.3474  1.1664 -0.9396
18934TIP3    H278218   0.482   1.093   5.262  0.1032  1.7487 -0.5424
18935TIP3   OH278219   6.427   0.941  14.209 -0.2669 -0.2023  0.9190
18935TIP3    H178220   6.346   0.892  14.220  0.4367 -1.6689 -0.1758
18935TIP3    H278221   6.474   0.894  14.140 -0.2105  2.9055 -1.2666
18936TIP3   OH278222   1.533   1.308  12.016  0.2784 -0.1411  0.1085
18936TIP3    H178223   1.617   1.276  11.982  0.0933 -0.5896  0.0546
18936TIP3    H278224   1.499   1.363  11.946  0.9454  0.7819  0.5082
18937TIP3   OH278225   4.689   5.790  13.479  0.1562  0.4959 -0.3913
18937TIP3    H178226   4.628   5.717  13.489  0.3965  0.3859  0.3551
18937TIP3    H278227   4.650   5.845  13.412  0.0220 -0.3736 -1.0386
18938TIP3   OH278228   3.523   3.038  14.010 -0.2847 -0.3295 -0.2711
18938TIP3    H178229   3.557   2.953  13.984  1.1820 -0.0899  0.8402
18938TIP3    H278230   3.447   3.052  13.953 -1.4862 -3.0675  0.5894
18939TIP3   OH278231   4.083   6.619  11.478  0.7658 -0.1997 -0.2630
18939TIP3    H178232   4.039   6.672  11.412  0.7252  2.5695  1.9056
18939TIP3    H278233   4.172   6.609  11.445  0.7382  1.0994 -0.7616
18940TIP3   OH278234   0.991   0.405  12.445 -0.1408  0.0792 -0.0986
18940TIP3    H178235   0.951   0.320  12.463 -0.3113  0.5760  2.0782
18940TIP3    H278236   1.074   0.384  12.401 -0.3799 -1.1846  0.0314
18941TIP3   OH278237   1.759   3.451  16.282 -0.3011  0.0707  0.3506
18941TIP3    H178238   1.852   3.427  16.289 -0.6385 -1.7289 -0.7930
18941TIP3    H278239   1.720   3.421  16.364  0.4691  2.6153  1.6808
18942TIP3   OH278240   6.680   3.353  14.960  0.1160 -0.0976 -0.0377
18942TIP3    H178241   6.732   3.289  15.009 -0.5930 -1.5233 -1.0999
18942TIP3    H278242   6.596   3.356  15.005  0.1047 -0.0134 -0.0650
18943TIP3   OH278243   6.476   5.339  12.264  0.6476  0.0326 -0.5529
18943TIP3    H178244   6.423   5.262  12.243  0.1991  0.0304  0.5299
18943TIP3    H278245   6.492   5.332  12.359  0.0448  1.6134 -0.3185
18944TIP3   OH278246   1.622   6.623   2.931 -0.7297 -0.3183  0.0703
18944TIP3    H178247   1.675   6.551   2.898 -0.9946  0.1854 -1.4764
18944TIP3    H278248   1.680   6.700   2.924 -1.5548  0.1850 -1.3711
18945TIP3   OH278249   0.580   6.740  13.018  0.5738  0.4043  0.5991
18945TIP3    H178250   0.656   6.686  12.997  2.0577  1.7258  2.3964
18945TIP3    H278251   0.536   6.694  13.090  0.7750  0.6232  0.8639
18946TIP3   OH278252   0.010   4.516   3.685  0.0374  0.5349  0.1147
18946TIP3    H178253  -0.067   4.513   3.743  1.1449 -0.2586  1.5874
18946TIP3    H278254   0.045   4.427   3.688  0.4730  0.6519 -1.3171
18947TIP3   OH278255   1.114   3.331  14.532 -0.1821 -0.1203 -0.2045
18947TIP3    H178256   1.130   3.267  14.602  2.6096  0.3354 -0.3717
18947TIP3    H278257   1.020   3.349  14.537  0.0448  0.4337  3.9126
18948TIP3   OH278258   6.548   2.390  13.696 -0.0555 -0.3824 -0.3210
18948TIP3    H178259   6.600   2.387  13.776 -0.8757 -0.4030  0.2140
18948TIP3    H278260   6.612   2.384  13.625  0.6151 -1.0797  0.3430
18949TIP3   OH278261   6.111   5.353   2.428 -0.0527 -0.7416  0.1551
18949TIP3    H178262   6.075   5.265   2.433 -2.2982  0.1289 -0.4082
18949TIP3    H278263   6.037   5.411   2.442  1.7590  1.0834  2.7100
18950TIP3   OH278264   6.202   4.429   2.170  0.1283 -0.1182  0.0400
18950TIP3    H178265   6.192   4.370   2.244 -0.7801  0.5521  0.4599
18950TIP3    H278266   6.122   4.418   2.119  0.2440  0.2597 -0.2304
18951TIP3   OH278267   1.932   2.577  14.034  0.3666 -0.3050  0.4535
18951TIP3    H178268   1.906   2.491  14.001  0.3566 -1.0668  2.3386
18951TIP3    H278269   1.849   2.620  14.056  0.4533 -0.8342  1.9000
18952TIP3   OH278270   0.361   0.504   3.545 -0.3200  0.3184  0.3451
18952TIP3    H178271   0.359   0.440   3.617  1.0483  1.3084  1.3033
18952TIP3    H278272   0.361   0.589   3.589 -0.8333  0.9538 -0.8804
18953TIP3   OH278273   5.745   1.970  16.766  0.1898  0.6830 -0.0070
18953TIP3    H178274   5.716   2.061  16.762 -2.4547 -0.1573 -1.1529
18953TIP3    H278275   5.672   1.923  16.807  1.9639 -0.7647  1.5923
18954TIP3   OH278276   3.560   3.047  10.973  0.1332 -0.4171 -0.0106
18954TIP3    H178277   3.486   3.030  11.032  0.6515  1.0657  1.1249
18954TIP3    H278278   3.623   2.978  10.994 -0.1426 -0.5498  0.4061
18955TIP3   OH278279   5.357   4.526  14.401 -0.5968  0.4644  0.2829
18955TIP3    H178280   5.313   4.570  14.475 -0.3536 -0.8339  1.2165
18955TIP3    H278281   5.386   4.442  14.437  0.2361  0.1538 -1.0850
18956TIP3   OH278282   3.154   3.481  11.898  0.2530 -0.2788 -0.2945
18956TIP3    H178283   3.104   3.530  11.963 -1.1068 -2.5789  0.4785
18956TIP3    H278284   3.232   3.451  11.944 -0.1533 -0.9513 -0.0396
18957TIP3   OH278285   0.674   1.245  14.830  0.0898 -0.3479 -0.7358
18957TIP3    H178286   0.631   1.194  14.762 -0.9172 -3.2744  2.0038
18957TIP3    H278287   0.611   1.314  14.851 -0.7204 -1.0240 -0.9275
18958TIP3   OH278288   1.908   1.611  11.771 -0.2853  0.0287  0.0501
18958TIP3    H178289   1.918   1.596  11.865  0.4485 -0.4757 -0.1051
18958TIP3    H278290   1.878   1.527  11.736  2.5073 -0.7313 -0.6193
18959TIP3   OH278291   3.821   1.951   3.576  0.5203  0.1637  0.0470
18959TIP3    H178292   3.844   2.037   3.543  0.9815 -0.0461 -0.1860
18959TIP3    H278293   3.746   1.966   3.634 -0.2671  0.5429 -1.0542
18960TIP3   OH278294   0.236   1.311  13.834 -0.3207 -0.2918  0.0227
18960TIP3    H178295   0.211   1.221  13.856 -0.4125 -0.0811  0.8222
18960TIP3    H278296   0.153   1.353  13.811  0.0253 -1.0301 -2.6995
18961TIP3   OH278297   6.446   6.163  17.127  0.3394 -0.7897  0.4512
18961TIP3    H178298   6.386   6.112  17.073  0.3520 -0.6874  0.3423
18961TIP3    H278299   6.533   6.134  17.099  0.3562 -0.2910 -0.0137
18962TIP3   OH278300   1.355   1.037  11.474  0.1626  0.0434  0.1017
18962TIP3    H178301   1.374   1.128  11.454 -0.7329  0.2400  0.1297
18962TIP3    H278302   1.262   1.026  11.452  0.5975 -1.2107 -1.1901
18963TIP3   OH278303   2.990   4.325  12.407 -0.2071  0.4398 -0.1978
18963TIP3    H178304   2.974   4.269  12.331  0.5924  1.8241 -1.4306
18963TIP3    H278305   2.959   4.412  12.379  0.9353  1.1566  0.7338
18964TIP3   OH278306   3.074   6.501   2.997 -0.4093 -0.2917  0.1499
18964TIP3    H178307   2.997   6.452   3.025 -0.6536  0.5038  0.8933
18964TIP3    H278308   3.072   6.581   3.050  2.5103 -1.5417  2.2492
18965TIP3   OH278309   2.298   4.709   0.762 -0.1309 -0.2915  0.3513
18965TIP3    H178310   2.227   4.646   0.755  0.7137 -1.1600 -0.6535
18965TIP3    H278311   2.270   4.783   0.708 -0.6290 -0.2808  0.6230
18966TIP3   OH278312   1.742   3.204  12.953  0.0850 -0.0813 -0.2226
18966TIP3    H178313   1.652   3.210  12.921 -0.2681  0.7022  0.8830
18966TIP3    H278314   1.738   3.237  13.043  1.7072  1.1654 -0.5835
18967TIP3   OH278315   4.265   6.156   0.708  0.8596 -0.4084  0.3742
18967TIP3    H178316   4.184   6.160   0.656  0.5599  0.3816  0.8910
18967TIP3    H278317   4.238   6.118   0.791  1.2251 -1.1070  0.1807
18968TIP3   OH278318   6.626   4.215  14.536 -0.5088 -0.3168  0.3028
18968TIP3    H178319   6.533   4.203  14.555 -0.7276  0.4324 -0.2791
18968TIP3    H278320   6.628   4.280  14.466  0.5692  1.6162  2.0725
18969TIP3   OH278321   3.048   2.530   2.540 -0.0985 -0.7695  0.8708
18969TIP3    H178322   3.113   2.467   2.510 -1.2285 -1.5735  0.0782
18969TIP3    H278323   3.016   2.571   2.460  1.7840  2.0028  1.4737
18970TIP3   OH278324   1.252   0.408   5.652  0.4852 -0.0112 -0.3354
18970TIP3    H178325   1.263   0.407   5.557  0.6372  1.1635 -0.3373
18970TIP3    H278326   1.174   0.354   5.668 -0.3884  0.9741 -1.2317
18971TIP3   OH278327   1.577   0.235   6.741  0.4800 -0.2953  0.0483
18971TIP3    H178328   1.633   0.308   6.769  1.5964 -0.7975 -0.8290
18971TIP3    H278329   1.637   0.162   6.728 -0.4598 -1.0064 -0.3797
18972TIP3   OH278330   1.369   1.953  13.469 -0.2761  0.1357  0.3293
18972TIP3    H178331   1.464   1.964  13.464 -0.4793  1.2415 -1.7697
18972TIP3    H278332   1.342   2.003  13.546  0.7719  0.2168  0.6437
18973TIP3   OH278333   4.855   1.605   6.303  0.7285  0.1000 -0.2792
18973TIP3    H178334   4.804   1.658   6.364  0.4031  0.1174 -0.5601
18973TIP3    H278335   4.846   1.650   6.219  0.1632 -0.5762 -0.5923
18974TIP3   OH278336   0.482   0.252  11.408  0.0727  0.3429 -0.0820
18974TIP3    H178337   0.479   0.340  11.372  3.0736  0.4391 -0.1628
18974TIP3    H278338   0.392   0.219  11.398 -0.6457  2.6979 -1.7134
18975TIP3   OH278339   0.886   2.247   0.691 -0.1088  0.0728 -0.1508
18975TIP3    H178340   0.962   2.192   0.670  0.0909  0.1292  0.4036
18975TIP3    H278341   0.824   2.187   0.733  0.3208  0.3661  0.9275
18976TIP3   OH278342   4.295   3.576  15.006 -0.1558 -0.2165 -0.0884
18976TIP3    H178343   4.236   3.618  15.069  0.4689  0.2086  0.2197
18976TIP3    H278344   4.364   3.640  14.991  0.2709 -0.7422 -0.3818
18977TIP3   OH278345   1.668   2.402  15.939 -0.2689 -0.6481 -0.2818
18977TIP3    H178346   1.605   2.375  16.007 -0.1652 -2.4933 -0.9011
18977TIP3    H278347   1.663   2.333  15.873  1.2793 -0.0093 -1.0874
18978TIP3   OH278348   0.831   5.342   0.809  0.3214  0.2154 -0.2579
18978TIP3    H178349   0.891   5.312   0.877  0.3777 -1.2006 -0.9054
18978TIP3    H278350   0.794   5.423   0.843 -0.4336 -1.0098  1.9364
18979TIP3   OH278351   0.525   6.007   2.163  0.7179 -0.8837  0.0664
18979TIP3    H178352   0.522   5.930   2.107  3.0378 -1.0770  0.1589
18979TIP3    H278353   0.573   5.977   2.241  0.2270  0.2249  0.8035
18980TIP3   OH278354   6.739   2.801   3.191 -0.0092  0.4395 -0.0096
18980TIP3    H178355   6.767   2.828   3.104  0.4000  0.3329  0.0884
18980TIP3    H278356   6.718   2.708   3.182 -0.0075  0.4388 -0.0024
18981TIP3   OH278357   0.077   4.853  11.919  0.0005 -0.0449  0.1277
18981TIP3    H178358  -0.004   4.858  11.869 -1.1194  1.9479  2.0560
18981TIP3    H278359   0.063   4.912  11.993  2.4336 -1.2380  1.5946
18982TIP3   OH278360   0.017   6.692  10.931  0.1186 -0.2440  0.3870
18982TIP3    H178361  -0.011   6.644  10.853  1.8253 -0.2282 -0.2566
18982TIP3    H278362   0.088   6.749  10.900  0.5344  0.0523  1.8610
18983TIP3   OH278363   6.692   4.369  12.940  0.0381 -0.4074 -0.1975
18983TIP3    H178364   6.743   4.294  12.910 -1.4058 -1.0436 -1.1311
18983TIP3    H278365   6.622   4.378  12.875 -2.9598 -1.5937  2.7750
18984TIP3   OH278366   3.936   2.511  12.438  0.7721  0.0696  0.3192
18984TIP3    H178367   3.976   2.521  12.351  0.0074 -1.0566 -0.1759
18984TIP3    H278368   3.855   2.562  12.433 -0.6036 -2.1577 -0.5280
18985TIP3   OH278369   2.765   2.041   1.694 -0.2668 -0.0130 -0.0989
18985TIP3    H178370   2.766   2.072   1.785 -1.0785 -2.4012  0.7583
18985TIP3    H278371   2.857   2.018   1.677  0.1670  1.8966 -0.4227
18986TIP3   OH278372   1.385   0.055   4.788  0.1974 -0.1768  0.1478
18986TIP3    H178373   1.297   0.075   4.756  0.3417  0.2254 -0.0034
18986TIP3    H278374   1.441   0.123   4.749  0.8681 -1.4775 -1.2107
18987TIP3   OH278375   1.884   1.375   4.078 -0.1527  0.0900 -0.0738
18987TIP3    H178376   1.903   1.388   3.986  1.1872  2.9226  0.5508
18987TIP3    H278377   1.816   1.439   4.098 -0.1307 -0.2074  1.0057
18988TIP3   OH278378   5.283   3.286  14.014 -0.3318  0.2690  0.0671
18988TIP3    H178379   5.201   3.319  14.050 -0.8388 -1.6636  0.7462
18988TIP3    H278380   5.307   3.213  14.071 -0.0617 -1.5135 -2.2242
18989TIP3   OH278381   3.430   0.330  12.942 -0.0412  0.1475 -0.0536
18989TIP3    H178382   3.374   0.253  12.944  0.9064 -0.5335  0.6377
18989TIP3    H278383   3.510   0.303  12.987  0.6091  1.2887 -0.4972
18990TIP3   OH278384   2.761   5.935   6.074 -0.2714  0.3552 -0.4382
18990TIP3    H178385   2.764   6.030   6.078  0.1420  0.3462 -0.5164
18990TIP3    H278386   2.714   5.909   6.153  0.7938  0.5639  0.2742
18991TIP3   OH278387   3.522   4.541   2.768 -0.4708  0.4399  0.5480
18991TIP3    H178388   3.452   4.484   2.799 -2.0201  1.9292 -0.1416
18991TIP3    H278389   3.539   4.510   2.679 -1.2813  1.0004  0.1889
18992TIP3   OH278390   2.433   2.907  17.178 -0.0729 -0.3778  0.5417
18992TIP3    H178391   2.456   2.815  17.193 -0.6365 -0.6890 -0.4870
18992TIP3    H278392   2.359   2.923  17.236  0.6211 -0.2979  1.4239
18993TIP3   OH278393   2.931   5.544  15.727  0.9396 -0.3259 -0.1480
18993TIP3    H178394   2.949   5.611  15.793 -0.8377 -0.4696  0.5356
18993TIP3    H278395   2.875   5.588  15.663  0.4193 -0.9350 -0.1165
18994TIP3   OH278396   3.915   0.333   1.479 -0.1377  0.8101 -0.6575
18994TIP3    H178397   3.830   0.376   1.464 -1.4128 -1.4841 -0.2773
18994TIP3    H278398   3.914   0.259   1.419  1.9814  1.2298 -1.2221
18995TIP3   OH278399   1.949   6.305  15.538  0.3012 -0.1330 -0.2802
18995TIP3    H178400   1.877   6.259  15.495 -0.1350  0.9236 -0.6896
18995TIP3    H278401   1.949   6.392  15.498  1.4388  0.0582  0.1283
18996TIP3   OH278402   0.482   4.015   0.576 -0.2539 -0.4485  0.2354
18996TIP3    H178403   0.515   4.061   0.499 -2.0017  3.4363  1.6375
18996TIP3    H278404   0.551   4.025   0.642 -1.4411  2.0574  1.1645
18997TIP3   OH278405   1.047   3.965   2.675  0.0631  1.1868 -0.2935
18997TIP3    H178406   1.057   4.050   2.718 -0.4495  1.3089 -0.4037
18997TIP3    H278407   1.135   3.927   2.674  0.4321  2.0476 -0.9263
18998TIP3   OH278408   1.398   5.671   2.648 -1.1403 -0.5545  0.3002
18998TIP3    H178409   1.475   5.696   2.597 -0.6051 -1.0250  0.8671
18998TIP3    H278410   1.339   5.746   2.641 -0.7126 -0.2692 -0.2931
18999TIP3   OH278411   2.363   0.748  15.405 -0.4834  0.6237 -0.0670
18999TIP3    H178412   2.443   0.703  15.378 -1.1410 -1.5659  1.4946
18999TIP3    H278413   2.374   0.838  15.372  1.0073 -0.5543 -2.9603
19000TIP3   OH278414   5.149   3.638  12.717  0.6660  0.2021  0.4313
19000TIP3    H178415   5.164   3.703  12.648 -0.2580  1.9615  1.8522
19000TIP3    H278416   5.062   3.659  12.751  0.4312 -1.6866  1.0467
19001TIP3   OH278417   4.432   3.915   4.449 -0.0481  0.0653  0.1174
19001TIP3    H178418   4.400   3.915   4.539 -0.7855  0.9071 -0.1316
19001TIP3    H278419   4.475   3.999   4.438  2.1122 -0.9743  0.3793
19002TIP3   OH278420   2.241   5.682   2.960 -0.0806  0.0647  0.5966
19002TIP3    H178421   2.179   5.610   2.954  1.3331 -1.2973  1.7432
19002TIP3    H278422   2.264   5.702   2.870  0.4746 -1.8097  0.2963
19003TIP3   OH278423   6.300   2.059   0.825  0.5111  0.0418 -0.4011
19003TIP3    H178424   6.242   2.132   0.847  0.2317  0.4207 -2.3921
19003TIP3    H278425   6.384   2.100   0.805  1.3299 -0.4593  1.7738
19004TIP3   OH278426   4.201   4.084  11.179 -0.3108 -0.1421 -0.5490
19004TIP3    H178427   4.218   4.072  11.086  1.4286 -0.8014 -0.1675
19004TIP3    H278428   4.131   4.149  11.183 -0.2161  0.0758 -2.2997
19005TIP3   OH278429   1.033   0.540  13.057  0.2749 -0.4729 -0.2140
19005TIP3    H178430   1.001   0.595  13.129 -0.6043 -1.0023 -0.1961
19005TIP3    H278431   1.046   0.600  12.985 -2.8702 -0.5429 -0.9174
19006TIP3   OH278432   5.683   2.984   2.356 -0.3729  0.2096  0.0080
19006TIP3    H178433   5.685   3.077   2.333 -0.2047 -0.4977 -3.0953
19006TIP3    H278434   5.687   2.938   2.272  3.1903 -2.6691  1.5986
19007TIP3   OH278435   1.800   4.725   0.905 -0.2193  0.2691 -0.1475
19007TIP3    H178436   1.860   4.656   0.931  2.2891  2.5056  0.1586
19007TIP3    H278437   1.756   4.690   0.827  1.3121 -1.4999 -0.2516
19008TIP3   OH278438   3.284   0.998  13.767  0.5141 -0.6720  0.2429
19008TIP3    H178439   3.216   1.017  13.831  0.6639 -0.5086  0.3544
19008TIP3    H278440   3.249   0.926  13.715 -0.1650  0.0729 -0.3526
19009TIP3   OH278441   6.225   0.372  17.145  0.2245  0.4905 -0.5025
19009TIP3    H178442   6.217   0.285  17.108 -0.1388 -0.5621  1.9670
19009TIP3    H278443   6.138   0.411  17.132 -0.8299 -0.9815  1.9054
19010TIP3   OH278444   6.294   4.847   3.290 -0.2079  0.6718 -0.2426
19010TIP3    H178445   6.300   4.914   3.222 -0.1364 -0.2906 -1.1952
19010TIP3    H278446   6.377   4.800   3.284 -1.1812 -0.9454 -1.0884
19011TIP3   OH278447   3.107   1.391   0.066 -0.1093 -0.2888 -0.6120
19011TIP3    H178448   3.171   1.462   0.068 -0.9078  0.4360 -0.3125
19011TIP3    H278449   3.064   1.400  -0.019 -0.7704  0.0951 -0.2405
19012TIP3   OH278450   1.829   4.414   3.616 -0.3675 -0.8694  0.2232
19012TIP3    H178451   1.915   4.442   3.584 -0.6109 -0.9754 -0.5365
19012TIP3    H278452   1.822   4.453   3.703  0.5337 -1.0213  0.3751
19013TIP3   OH278453   0.597   1.172   0.584 -0.4862  0.2945 -0.6939
19013TIP3    H178454   0.505   1.194   0.569 -1.0593 -2.0709 -0.8305
19013TIP3    H278455   0.603   1.079   0.565  1.6285  0.0945  0.7703
19014TIP3   OH278456   0.037   4.354   2.338  0.4990 -0.1158 -0.1822
19014TIP3    H178457   0.047   4.364   2.432 -0.0792  0.4750 -0.1834
19014TIP3    H278458   0.090   4.424   2.300  0.2286  0.0347 -0.2822
19015TIP3   OH278459   5.848   2.123   2.527  0.7369 -0.9129  0.0219
19015TIP3    H178460   5.878   2.038   2.558  1.4578 -0.7063 -0.1003
19015TIP3    H278461   5.899   2.139   2.447 -1.9882 -2.0261 -2.0390
19016TIP3   OH278462   2.593   4.924   2.340  0.0465  0.0424 -0.1489
19016TIP3    H178463   2.678   4.885   2.357  1.3659  1.7154 -2.4811
19016TIP3    H278464   2.610   5.019   2.339 -2.3963  0.5576  2.0899
19017TIP3   OH278465   1.409   0.737   6.177  0.5238  0.1929  0.3917
19017TIP3    H178466   1.333   0.690   6.211  2.0203 -1.8030  1.0993
19017TIP3    H278467   1.456   0.673   6.125  1.3934  1.5779 -0.5746
19018TIP3   OH278468   3.912   0.067  15.000 -0.2896  0.0785 -0.4414
19018TIP3    H178469   3.863   0.004  15.052 -0.1372 -1.1020 -1.6978
19018TIP3    H278470   3.850   0.138  14.983 -0.4989  0.2259  0.8596
19019TIP3   OH278471   2.088   0.657  12.772  0.1771 -0.2342 -0.2625
19019TIP3    H178472   2.077   0.662  12.677  1.5283 -0.4240 -0.4398
19019TIP3    H278473   2.122   0.743  12.797 -1.6796  0.3656  0.2774
19020TIP3   OH278474   2.400   6.640  11.352 -0.2745 -0.3446 -0.0741
19020TIP3    H178475   2.337   6.617  11.421  0.5814 -2.4589  0.0465
19020TIP3    H278476   2.470   6.687  11.398  0.5165 -2.1444  0.6015
19021TIP3   OH278477   3.664   4.780   4.965 -0.0102  0.1396 -0.0057
19021TIP3    H178478   3.593   4.765   4.902 -0.0094 -0.6316  0.1761
19021TIP3    H278479   3.624   4.761   5.050 -0.0826  1.4121  0.2545
19022TIP3   OH278480   5.266   5.977  14.065  0.3142 -0.5507 -0.0652
19022TIP3    H178481   5.245   5.952  14.155 -0.1206 -3.5888 -0.9338
19022TIP3    H278482   5.359   5.998  14.068  0.3818 -0.9343  1.0483
19023TIP3   OH278483   1.725   6.641   4.469 -0.4295  0.2329  0.1517
19023TIP3    H178484   1.785   6.663   4.398 -0.3448  0.5910  0.3335
19023TIP3    H278485   1.735   6.713   4.531  0.1407 -0.5041  0.9334
19024TIP3   OH278486   0.167   1.181   3.512  0.1292 -0.1582 -0.1132
19024TIP3    H178487   0.104   1.252   3.525 -0.3597 -0.0949 -2.6013
19024TIP3    H278488   0.249   1.224   3.490  0.6875 -0.3011  1.5534
19025TIP3   OH278489   5.973   4.008   4.618 -0.2507 -0.8100 -0.1216
19025TIP3    H178490   5.930   3.960   4.548 -0.5762  0.5830 -0.8725
19025TIP3    H278491   5.953   3.957   4.697 -0.8638 -1.7276 -0.8547
19026TIP3   OH278492   2.714   3.070  12.935  0.1918  0.2027  0.0420
19026TIP3    H178493   2.639   3.125  12.913  0.2032  0.4665  0.6666
19026TIP3    H278494   2.785   3.132  12.953 -0.3992  0.0795  3.0505
19027TIP3   OH278495   6.118   5.968   0.857  0.3955 -0.0062 -0.3099
19027TIP3    H178496   6.126   5.905   0.929 -0.6783  0.0233 -0.1561
19027TIP3    H278497   6.169   5.930   0.786 -0.1493 -1.0117 -0.1818
19028TIP3   OH278498   3.664   3.842   0.349  0.2699  0.1105 -0.3431
19028TIP3    H178499   3.656   3.920   0.404 -0.9856 -0.0379 -0.2964
19028TIP3    H278500   3.573   3.813   0.336  0.7687 -1.7593  0.2376
19029TIP3   OH278501   4.628   5.277   2.243  0.3422 -0.2746  0.0287
19029TIP3    H178502   4.660   5.318   2.323 -2.1802  0.3069  0.7572
19029TIP3    H278503   4.650   5.340   2.174  1.3759 -0.2081  0.3981
19030TIP3   OH278504   0.801   0.091   2.937  0.1045  0.2421  0.5658
19030TIP3    H178505   0.737   0.094   3.008 -0.4223  0.2019  0.0989
19030TIP3    H278506   0.774   0.017   2.883 -0.2207  1.0151 -0.3431
19031TIP3   OH278507   3.488   4.534   0.926  0.8133  0.7640  0.2690
19031TIP3    H178508   3.484   4.496   0.839  0.9278  0.4463  0.4008
19031TIP3    H278509   3.432   4.611   0.921 -1.3205 -0.7066  0.6637
19032TIP3   OH278510   4.537   5.040  12.568 -0.1615  0.4728  0.2335
19032TIP3    H178511   4.478   5.109  12.536  0.0647 -0.3082 -1.9575
19032TIP3    H278512   4.607   5.037  12.502  0.5586 -0.8874  1.0550
19033TIP3   OH278513   6.111   2.178   1.246  0.0721 -0.2255  0.1063
19033TIP3    H178514   6.118   2.230   1.327  0.9115  0.5030 -0.4256
19033TIP3    H278515   6.202   2.167   1.217 -0.1616 -1.2938 -0.2292
19034TIP3   OH278516   2.374   6.685   3.498 -0.0523  0.0749  0.6924
19034TIP3    H178517   2.445   6.655   3.441  0.2224  0.7094  0.7008
19034TIP3    H278518   2.418   6.728   3.571 -0.4557  0.6435  0.6011
19035TIP3   OH278519   3.500   1.644  10.977 -0.4536 -0.1137 -0.1428
19035TIP3    H178520   3.468   1.566  10.932 -0.7197 -0.2323  0.2502
19035TIP3    H278521   3.595   1.631  10.983 -0.7257 -1.4523  1.8797
19036TIP3   OH278522   3.503   0.203   0.552 -0.7923 -0.2346 -0.0865
19036TIP3    H178523   3.597   0.215   0.565 -1.0241  1.4394  0.0984
19036TIP3    H278524   3.478   0.140   0.619  0.0313  0.0187  0.4682
19037TIP3   OH278525   2.152   5.486   3.672 -0.0875  0.4756 -0.4080
19037TIP3    H178526   2.131   5.411   3.728 -0.1140 -0.4130 -1.6017
19037TIP3    H278527   2.099   5.558   3.708 -0.4350 -0.1915  0.4358
19038TIP3   OH278528   5.782   2.334   1.558 -0.2697 -0.0497  0.0598
19038TIP3    H178529   5.708   2.336   1.497  0.7212  0.8262 -1.1467
19038TIP3    H278530   5.781   2.420   1.599  0.0023 -0.0742  0.1191
19039TIP3   OH278531   5.443   4.780  14.593  0.2059  0.1999 -0.3485
19039TIP3    H178532   5.354   4.764  14.562 -0.8921 -0.5044  2.9002
19039TIP3    H278533   5.440   4.869  14.628  0.3241 -0.3695  1.1559
19040TIP3   OH278534   2.781   2.220   4.248  0.0458 -0.3626  0.2357
19040TIP3    H178535   2.744   2.141   4.209 -2.2224  1.6410 -1.8480
19040TIP3    H278536   2.870   2.195   4.274 -0.7861 -3.6942  0.0790
19041TIP3   OH278537   5.316   2.000   5.538 -0.5757  0.1957 -0.2020
19041TIP3    H178538   5.243   1.948   5.572  0.0681  0.0354  0.9956
19041TIP3    H278539   5.391   1.941   5.542 -0.1708  0.6925 -0.3903
19042TIP3   OH278540   0.684   4.654  16.390  0.8761  0.5191  0.1485
19042TIP3    H178541   0.756   4.637  16.452  1.6380 -0.0437 -0.8852
19042TIP3    H278542   0.620   4.703  16.442  0.1563 -2.4796  2.2174
19043TIP3   OH278543   4.055   1.995  14.411 -0.0710 -0.2575  0.0247
19043TIP3    H178544   4.057   1.983  14.506  1.6290  3.0774  0.4520
19043TIP3    H278545   3.976   2.047  14.395  0.0051 -0.2485 -0.3287
19044TIP3   OH278546   3.447   5.197  14.361 -0.4514 -0.4671 -0.0383
19044TIP3    H178547   3.401   5.141  14.423  3.6073 -1.7573  1.9621
19044TIP3    H278548   3.512   5.242  14.414  1.6194  0.1153 -2.9943
19045TIP3   OH278549   5.816   4.674   1.601 -0.5914 -0.3241 -0.7833
19045TIP3    H178550   5.751   4.619   1.645 -0.3782 -1.5011 -1.8999
19045TIP3    H278551   5.808   4.650   1.509  1.0197 -0.0475 -1.0059
19046TIP3   OH278552   5.274   4.740   4.446  0.5481  0.0222  0.0979
19046TIP3    H178553   5.288   4.670   4.382 -2.9270 -0.2025 -0.4802
19046TIP3    H278554   5.263   4.819   4.393 -1.6723 -0.0564  0.3865
19047TIP3   OH278555   0.266   6.419   4.347  0.6651 -0.2980  0.2453
19047TIP3    H178556   0.198   6.375   4.399 -0.2401  1.6523  0.7501
19047TIP3    H278557   0.219   6.460   4.275  1.4136  0.4301  0.1622
19048TIP3   OH278558   6.368   5.722   1.627  0.2956  0.8562 -0.7349
19048TIP3    H178559   6.403   5.670   1.554  0.8845  0.4427 -0.1553
19048TIP3    H278560   6.406   5.809   1.614  3.6868 -0.2333  1.3669
19049TIP3   OH278561   5.490   3.647  10.959 -0.5269 -0.0787 -0.4100
19049TIP3    H178562   5.551   3.591  11.006  0.0077  1.0382  0.2387
19049TIP3    H278563   5.448   3.589  10.895  0.9182 -0.9378 -0.5883
19050TIP3   OH278564   4.667   4.235   3.526  0.0173 -0.4037 -0.6188
19050TIP3    H178565   4.646   4.309   3.469 -0.1181 -0.1341 -0.2263
19050TIP3    H278566   4.757   4.250   3.553  0.5650 -1.3004 -1.9134
19051TIP3   OH278567   0.038   2.421  16.559 -0.2131 -0.0071  0.0455
19051TIP3    H178568  -0.052   2.448  16.576 -0.1863  0.6416 -0.8081
19051TIP3    H278569   0.068   2.478  16.488  0.9808  0.0175  0.5450
19052TIP3   OH278570   4.046   3.109   4.492  0.2713  0.4165  0.5272
19052TIP3    H178571   4.077   3.197   4.469  1.6432 -0.2444 -0.2596
19052TIP3    H278572   3.970   3.094   4.436  1.5648  0.1383 -1.2204
19053TIP3   OH278573   6.659   4.961  14.995 -0.2414  0.1832 -0.6916
19053TIP3    H178574   6.621   4.889  15.045  0.1398 -0.1319 -0.8514
19053TIP3    H278575   6.675   4.925  14.908 -0.8503  0.7152 -1.0282
19054TIP3   OH278576   4.004   0.500   0.497 -0.1531 -0.2823  0.8674
19054TIP3    H178577   4.048   0.583   0.516 -0.9371 -0.1045  1.9861
19054TIP3    H278578   4.043   0.470   0.415  0.6586  0.8282  0.8343
19055TIP3   OH278579   4.929   1.233  12.262  0.4006 -0.1840 -0.4792
19055TIP3    H178580   4.848   1.222  12.214  0.6909  0.8554 -1.2282
19055TIP3    H278581   4.996   1.246  12.195  0.9453  0.3991  0.1631
19056TIP3   OH278582   4.758   1.875   1.145 -0.1572 -0.1618  0.5275
19056TIP3    H178583   4.780   1.967   1.158 -0.6312 -0.1372  1.1844
19056TIP3    H278584   4.816   1.828   1.204  1.3644 -0.4140 -1.1519
19057TIP3   OH278585   5.640   4.092   6.483 -0.2968 -0.2643 -0.1714
19057TIP3    H178586   5.695   4.031   6.532 -0.7154  0.2113  0.9057
19057TIP3    H278587   5.657   4.177   6.523 -0.5476  0.1417 -0.9384
19058TIP3   OH278588   4.139   3.448   5.029 -0.4740  0.4826 -0.3965
19058TIP3    H178589   4.159   3.521   4.971  1.0278  0.3284 -0.0954
19058TIP3    H278590   4.167   3.478   5.116 -1.5267  0.2318  0.0453
19059TIP3   OH278591   0.223   6.497   5.516 -0.0608 -0.1797 -0.0343
19059TIP3    H178592   0.184   6.455   5.593 -1.1671  1.6575  0.4296
19059TIP3    H278593   0.261   6.424   5.466 -1.2938 -1.6391  1.1124
19060TIP3   OH278594   3.571   1.533   2.567 -0.2991  0.9307 -0.7009
19060TIP3    H178595   3.530   1.470   2.626  2.7167 -2.3727 -1.9553
19060TIP3    H278596   3.531   1.514   2.481 -0.2160  1.5040 -0.8660
19061TIP3   OH278597   1.985   6.395  16.671  0.7068 -0.0979  0.1847
19061TIP3    H178598   1.979   6.324  16.735  0.5307 -0.2202  0.0283
19061TIP3    H278599   1.924   6.371  16.602  2.2268 -0.8742 -0.9176
19062TIP3   OH278600   2.761   3.356  10.502 -0.1976 -0.7423  0.7984
19062TIP3    H178601   2.666   3.360  10.518 -0.5965 -0.0592 -1.5506
19062TIP3    H278602   2.770   3.301  10.424  1.3396 -0.7800  0.9940
19063TIP3   OH278603   1.104   0.750  16.245  0.2683  0.1793 -0.0844
19063TIP3    H178604   1.163   0.820  16.217 -0.0195 -0.3629 -2.1993
19063TIP3    H278605   1.157   0.695  16.302  1.6516  0.0809 -1.4136
19064TIP3   OH278606   4.233   1.248   4.488  0.5982 -0.2909 -0.1773
19064TIP3    H178607   4.258   1.271   4.577  0.2799 -0.2511 -0.0981
19064TIP3    H278608   4.194   1.329   4.453  2.2331  0.2101 -0.9076
19065TIP3   OH278609   1.149   6.045  15.332 -0.4245 -0.1229 -0.4407
19065TIP3    H178610   1.123   5.953  15.324  0.2946 -0.3947  0.2787
19065TIP3    H278611   1.208   6.047  15.407 -1.0197  1.0652  0.0046
19066TIP3   OH278612   4.547   0.809   0.375 -0.7020 -0.2720  0.8272
19066TIP3    H178613   4.460   0.795   0.338 -0.2638  0.3555 -0.4671
19066TIP3    H278614   4.607   0.777   0.308  0.0936  0.3686  1.2239
19067TIP3   OH278615   6.299   3.752   2.978 -0.9208 -0.2485  0.6721
19067TIP3    H178616   6.225   3.707   2.938 -0.7046 -1.4064  1.5615
19067TIP3    H278617   6.297   3.727   3.070  1.8588 -2.1210  0.2881
19068TIP3   OH278618   3.108   5.410   1.392 -0.1230  0.3914  0.0944
19068TIP3    H178619   3.043   5.363   1.444 -0.5081  0.4577 -0.3156
19068TIP3    H278620   3.125   5.490   1.442 -0.7686  0.6301 -0.0559
19069TIP3   OH278621   4.066   4.402  12.576 -0.2822 -0.2153  0.1378
19069TIP3    H178622   4.036   4.393  12.486  1.5458  0.6220 -0.5830
19069TIP3    H278623   4.121   4.324  12.591 -0.3497 -0.2071  0.4211
19070TIP3   OH278624   1.668   1.753   2.095  0.7482  0.4220  0.4700
19070TIP3    H178625   1.695   1.726   2.183 -0.3754  1.4381  1.1463
19070TIP3    H278626   1.613   1.830   2.109  1.1292  1.0299 -1.1814
19071TIP3   OH278627   0.975   0.521  14.511 -0.0216  0.3437 -0.6657
19071TIP3    H178628   0.881   0.532  14.497 -0.2964 -1.7554 -0.6477
19071TIP3    H278629   1.013   0.527  14.423 -0.1044  1.7386 -0.6121
19072TIP3   OH278630   5.656   3.018   3.410  0.7085  0.6546 -0.2176
19072TIP3    H178631   5.711   3.068   3.349 -1.6223  3.6693  0.0066
19072TIP3    H278632   5.688   2.928   3.403  4.9779  2.1076 -0.7857
19073TIP3   OH278633   6.745   5.571   1.433 -0.2237 -0.0392  0.5899
19073TIP3    H178634   6.752   5.476   1.427 -1.7013 -0.1443  0.1899
19073TIP3    H278635   6.818   5.605   1.382 -1.0812 -0.9712 -1.2970
19074TIP3   OH278636   5.551   5.833  14.304  0.4187 -0.1213  0.0006
19074TIP3    H178637   5.568   5.745  14.271  0.6123 -0.7437  1.7436
19074TIP3    H278638   5.481   5.822  14.368 -2.3004  1.5473 -2.5467
19075TIP3   OH278639   3.302   4.218   2.031 -0.1533 -0.6537  0.2333
19075TIP3    H178640   3.306   4.270   2.111 -1.3038 -1.2249  0.6779
19075TIP3    H278641   3.209   4.209   2.013  0.0883 -0.8952 -0.9366
19076TIP3   OH278642   6.125   0.894   5.337 -0.6604 -0.1493  0.0585
19076TIP3    H178643   6.145   0.814   5.290  3.5599  0.1995  1.0728
19076TIP3    H278644   6.167   0.964   5.287 -1.5888  1.0399  0.8828
19077TIP3   OH278645   0.935   3.093   0.196 -0.1234 -0.5830  0.1747
19077TIP3    H178646   0.920   2.999   0.202  1.9733 -0.9011  0.4656
19077TIP3    H278647   1.003   3.103   0.130 -0.6881  0.7824 -0.2387
19078TIP3   OH278648   5.510   0.416  16.492  0.1738  0.9322 -0.1139
19078TIP3    H178649   5.509   0.507  16.522 -0.5637  1.3396 -1.3311
19078TIP3    H278650   5.488   0.421  16.399  0.3084 -0.4831 -0.2383
19079TIP3   OH278651   2.930   1.819   4.021  0.0622 -0.5561 -0.1961
19079TIP3    H178652   2.971   1.773   4.093  0.4908 -1.5889 -1.0920
19079TIP3    H278653   2.894   1.750   3.965  1.6965  0.1194 -2.1364
19080TIP3   OH278654   5.632   4.544  17.019  0.3697  0.0289  0.1742
19080TIP3    H178655   5.593   4.518  17.102 -1.9028  2.1653 -0.1708
19080TIP3    H278656   5.680   4.624  17.040  0.2432  0.2720 -0.4632
19081TIP3   OH278657   4.465   4.193   2.106  0.1514 -1.0190 -0.6628
19081TIP3    H178658   4.408   4.227   2.037  0.7170  1.4861  0.0526
19081TIP3    H278659   4.538   4.255   2.109  0.9042 -1.9611  1.1525
19082TIP3   OH278660   2.535   1.166   1.601 -0.0516 -0.5448 -0.8625
19082TIP3    H178661   2.479   1.225   1.652  1.0014  1.6094 -2.1225
19082TIP3    H278662   2.603   1.138   1.663 -1.4123 -1.6689  0.1532
19083TIP3   OH278663   4.403   2.474  13.666 -0.0894 -0.3527  0.3805
19083TIP3    H178664   4.496   2.464  13.645 -0.2791  0.7578 -1.0574
19083TIP3    H278665   4.400   2.533  13.740  0.3316  0.1049  0.0326
19084TIP3   OH278666   1.298   6.770  12.131  0.3750  0.0942 -0.8590
19084TIP3    H178667   1.378   6.807  12.093 -0.4833  1.0359 -1.8103
19084TIP3    H278668   1.289   6.812  12.216  0.0876  1.1576 -1.4012
19085TIP3   OH278669   4.782   4.996   4.401 -0.3604 -0.8782  0.1747
19085TIP3    H178670   4.835   4.947   4.338  1.1067  0.7163  0.1302
19085TIP3    H278671   4.738   5.062   4.349  0.0574 -0.2132  0.6554
19086TIP3   OH278672   4.233   1.923  10.579  0.5666  0.0884 -0.1461
19086TIP3    H178673   4.165   1.908  10.513 -0.8708 -1.0378  1.5469
19086TIP3    H278674   4.299   1.975  10.534 -1.1738  0.7658 -1.9895
19087TIP3   OH278675   4.107   4.851   3.575 -0.1729 -0.6902  0.7294
19087TIP3    H178676   4.062   4.843   3.659 -0.2748  0.3048  0.7821
19087TIP3    H278677   4.199   4.832   3.596 -0.4998 -2.3473  0.6902
19088TIP3   OH278678   3.156   5.031   5.131 -0.5351  0.0989  0.4921
19088TIP3    H178679   3.155   5.098   5.062  1.0264  0.4571  0.8002
19088TIP3    H278680   3.130   5.078   5.210  3.2507  1.0278  1.2677
19089TIP3   OH278681   2.055   0.940  14.843  0.3605 -0.2730  0.0934
19089TIP3    H178682   2.051   0.867  14.781  1.1447 -0.2904  0.0676
19089TIP3    H278683   2.115   1.003  14.803  1.0400 -0.3811  0.9336
19090TIP3   OH278684   1.607   5.268   3.811 -0.2780  0.3363  0.2414
19090TIP3    H178685   1.671   5.197   3.813 -3.0817 -2.3563 -1.3805
19090TIP3    H278686   1.638   5.326   3.741  0.2875 -1.0036 -0.6350
19091TIP3   OH278687   5.822   4.715  13.573  0.0885  0.2293  0.1526
19091TIP3    H178688   5.850   4.661  13.647  2.1771  1.0924  0.0343
19091TIP3    H278689   5.847   4.804  13.597  1.9717  0.3575 -2.1177
19092TIP3   OH278690   5.506   0.326   5.993  0.1593 -0.1121 -0.3649
19092TIP3    H178691   5.517   0.374   6.075 -2.5767 -0.2253  0.1380
19092TIP3    H278692   5.538   0.238   6.011  1.0861  0.3171  0.0813
19093TIP3   OH278693   2.364   4.819   1.779  0.3587 -0.3511 -0.8618
19093TIP3    H178694   2.362   4.748   1.715  1.1578 -0.4876 -0.7378
19093TIP3    H278695   2.394   4.778   1.860 -2.5652 -0.5955  0.1471
19094TIP3   OH278696   0.593   2.293   2.598  0.1281  0.1714  0.1404
19094TIP3    H178697   0.551   2.324   2.518 -0.9375  0.4110  0.7817
19094TIP3    H278698   0.554   2.345   2.668 -1.0278 -1.9500  1.1357
19095TIP3   OH278699   1.334   6.038  13.116  0.1995 -1.1299 -0.2932
19095TIP3    H178700   1.404   6.047  13.181 -0.2418  0.4902 -0.0077
19095TIP3    H278701   1.326   5.944  13.101  2.1037 -1.3666  0.0391
19096TIP3   OH278702   0.847   3.631  12.704  0.2801 -0.0891 -0.1553
19096TIP3    H178703   0.791   3.655  12.629 -2.7688 -0.7904  1.8062
19096TIP3    H278704   0.881   3.715  12.736  0.2826  0.3623 -1.3065
19097TIP3   OH278705   5.505   2.310   0.189  0.0359 -0.4790 -0.1337
19097TIP3    H178706   5.541   2.385   0.142 -0.0395 -0.1197  0.3730
19097TIP3    H278707   5.441   2.348   0.249  0.1119 -0.9336  0.2385
19098TIP3   OH278708   1.027   1.400  12.080 -0.3591  0.9080  0.5212
19098TIP3    H178709   1.108   1.448  12.097  1.6325 -1.5588 -1.4873
19098TIP3    H278710   0.988   1.444  12.005  0.4324  0.6513 -0.0543
19099TIP3   OH278711   6.266   2.846  16.093 -0.1139  0.4152  0.4779
19099TIP3    H178712   6.255   2.799  16.175  0.7073  0.2143  0.4764
19099TIP3    H278713   6.360   2.859  16.085 -0.1237 -0.1968 -0.7897
19100TIP3   OH278714   3.100   4.272  10.360 -0.0045  0.2407 -0.0797
19100TIP3    H178715   3.122   4.204  10.297 -1.2631  0.5897 -0.9341
19100TIP3    H278716   3.116   4.233  10.445 -0.6467 -1.1029 -0.5639
19101TIP3   OH278717   6.329   1.766   2.986 -0.4644  0.7351 -0.1809
19101TIP3    H178718   6.308   1.836   3.047 -0.0415 -0.0432  0.8602
19101TIP3    H278719   6.264   1.698   3.003  1.0701 -0.4713  1.0639
19102TIP3   OH278720   5.600   0.834   0.748 -0.1944  0.0170  0.6619
19102TIP3    H178721   5.513   0.794   0.758 -0.7378  0.5388 -1.7942
19102TIP3    H278722   5.582   0.928   0.745  0.4515  0.1207  0.0721
19103TIP3   OH278723   1.558   0.569   2.725 -0.3901 -0.8332  0.1996
19103TIP3    H178724   1.503   0.646   2.713  0.3294 -0.0601  1.6806
19103TIP3    H278725   1.511   0.499   2.680 -0.9196  0.5117 -1.3880
19104TIP3   OH278726   5.136   2.396   4.967  0.1979 -0.5244 -0.0128
19104TIP3    H178727   5.229   2.406   4.948 -0.2749 -1.0390 -2.8117
19104TIP3    H278728   5.130   2.312   5.013  1.2862  0.3340  1.7564
19105TIP3   OH278729   2.494   2.496  11.806 -0.5073 -0.4514 -0.1061
19105TIP3    H178730   2.457   2.435  11.742 -1.3252 -0.9464  0.8289
19105TIP3    H278731   2.586   2.469  11.815  0.3197  1.2492 -2.9956
19106TIP3   OH278732   0.660   4.069  12.905  0.3015 -0.5265  0.2128
19106TIP3    H178733   0.718   4.138  12.938  1.0370 -1.1855  0.2975
19106TIP3    H278734   0.668   4.075  12.810 -1.2792  0.9032  0.1260
19107TIP3   OH278735   3.565   4.128   2.640  0.2271  0.2540  0.2209
19107TIP3    H178736   3.479   4.164   2.658  0.2810  0.5346 -0.0818
19107TIP3    H278737   3.617   4.150   2.718 -0.2687 -0.8709  0.8776
19108TIP3   OH278738   6.728   1.292   5.670  0.0693 -0.4025 -0.1227
19108TIP3    H178739   6.797   1.307   5.735 -0.4807 -0.3245  0.4472
19108TIP3    H278740   6.753   1.211   5.626  0.9752  0.0830 -0.5024
19109TIP3   OH278741   5.932   3.603   0.785  0.2745  0.1678  0.5303
19109TIP3    H178742   5.939   3.668   0.855  0.0027  1.4310 -0.5979
19109TIP3    H278743   6.019   3.563   0.781  0.2018 -0.1632  1.7902
19110TIP3   OH278744   6.481   3.798  14.992 -0.2180 -0.3804  0.5695
19110TIP3    H178745   6.559   3.743  14.998 -0.7660 -1.4921 -2.0417
19110TIP3    H278746   6.436   3.768  14.913 -1.6337  2.3864  0.2610
19111TIP3   OH278747   0.799   1.504   4.822  0.5429 -0.1396 -0.4683
19111TIP3    H178748   0.716   1.551   4.828  0.0895 -0.8383 -1.2387
19111TIP3    H278749   0.862   1.571   4.793 -0.0105  0.0945 -1.1345
19112TIP3   OH278750   1.441   4.444  12.549  0.1436 -0.3330 -0.1635
19112TIP3    H178751   1.505   4.457  12.619 -1.3351 -1.0244  1.3293
19112TIP3    H278752   1.461   4.513  12.486  1.5062  0.2886  0.9262
19113TIP3   OH278753   5.468   1.362   3.645  0.0860  0.6553  0.2392
19113TIP3    H178754   5.441   1.391   3.732  0.4529  1.6185  0.0287
19113TIP3    H278755   5.386   1.334   3.603  0.0915 -1.2792  1.4223
19114TIP3   OH278756   1.634   2.387   6.645  0.2268 -0.8418 -0.3622
19114TIP3    H178757   1.721   2.349   6.652 -0.0005 -1.1630  0.7821
19114TIP3    H278758   1.575   2.312   6.645 -0.0639 -0.6168 -0.9497
19115TIP3   OH278759   5.076   6.029  16.851  0.5009  0.0928  0.8341
19115TIP3    H178760   5.172   6.030  16.855  0.5231  0.4785  0.2214
19115TIP3    H278761   5.048   6.069  16.933  0.8781  1.5274  0.2679
19116TIP3   OH278762   0.102   2.899  12.152 -0.3164  0.0386  0.3013
19116TIP3    H178763   0.185   2.937  12.121 -0.4167 -0.3477 -0.4477
19116TIP3    H278764   0.061   2.864  12.073 -0.5026 -1.0965  0.8942
19117TIP3   OH278765   3.313   3.101   2.575  0.3584  0.0992  0.2706
19117TIP3    H178766   3.327   3.080   2.667  1.2343  0.4736  0.2313
19117TIP3    H278767   3.294   3.017   2.534  0.2630 -0.1116  0.7386
19118TIP3   OH278768   6.762   2.777   1.088 -0.3648 -0.1592 -0.0418
19118TIP3    H178769   6.855   2.798   1.092 -0.4270  0.1718 -0.3151
19118TIP3    H278770   6.735   2.768   1.179 -0.0948 -0.1276  0.0406
19119TIP3   OH278771   3.234   2.148  16.930  0.1172 -0.2836 -0.4210
19119TIP3    H178772   3.294   2.074  16.927 -0.8582 -1.1541  1.1950
19119TIP3    H278773   3.273   2.207  16.995 -2.4211 -2.3759  3.1807
19120TIP3   OH278774   4.486   1.168   2.164  0.7087  0.3851 -0.5299
19120TIP3    H178775   4.520   1.195   2.079  0.6942  1.3692 -0.2311
19120TIP3    H278776   4.396   1.200   2.165  1.2090  1.7900  0.4938
19121TIP3   OH278777   5.033   2.129  11.392 -0.0004 -0.5578 -0.2407
19121TIP3    H178778   4.977   2.053  11.407  0.6429 -1.0138 -0.1445
19121TIP3    H278779   4.987   2.202  11.434 -1.5098 -0.5434 -1.8752
19122TIP3   OH278780   2.282   0.869  11.735  0.4793  0.0411 -0.5518
19122TIP3    H178781   2.341   0.795  11.723 -0.8226 -1.2897  1.0827
19122TIP3    H278782   2.287   0.917  11.652  2.7086 -0.8655 -0.9631
19123TIP3   OH278783   2.155   1.847  12.396  0.3482 -0.2676  0.1509
19123TIP3    H178784   2.157   1.823  12.304 -1.4811  0.8011 -0.1909
19123TIP3    H278785   2.146   1.764  12.443  0.2794 -0.7249 -0.6632
19124TIP3   OH278786   2.851   5.763   0.132  0.1803  0.1874  0.0666
19124TIP3    H178787   2.864   5.836   0.072  1.7068 -0.8340 -0.8800
19124TIP3    H278788   2.927   5.706   0.118 -1.2621 -1.8756  0.3434
19125TIP3   OH278789   4.065   6.224  12.392 -0.3762  0.1672 -0.2628
19125TIP3    H178790   4.075   6.313  12.358  1.1184  0.0599 -0.1173
19125TIP3    H278791   3.977   6.198  12.364 -0.9189  1.7669 -0.1123
19126TIP3   OH278792   1.534   4.165  12.639  0.0819  0.1873  0.0082
19126TIP3    H178793   1.619   4.165  12.594 -0.1005  1.3497 -0.3439
19126TIP3    H278794   1.488   4.240  12.603 -0.5406  0.4245  1.2704
19127TIP3   OH278795   1.792   0.876   1.708 -0.1788 -1.0944 -0.2692
19127TIP3    H178796   1.813   0.967   1.729 -2.3826 -0.6980  0.3477
19127TIP3    H278797   1.854   0.825   1.760  0.5065  0.0401  0.0577
19128TIP3   OH278798   2.695   3.531  15.024  0.0658 -0.0969  0.6180
19128TIP3    H178799   2.704   3.492  14.937  1.1107  1.1020  0.1709
19128TIP3    H278800   2.783   3.530  15.060  0.0064  1.2886  0.8256
19129TIP3   OH278801   5.920   1.517   5.569  0.5460 -0.1758  0.2878
19129TIP3    H178802   6.001   1.477   5.602  1.3320  0.6209 -0.6545
19129TIP3    H278803   5.929   1.513   5.473 -0.8670 -0.7522  0.1630
19130TIP3   OH278804   1.678   1.569   4.193  0.7219 -0.5491  0.0663
19130TIP3    H178805   1.711   1.636   4.252 -1.5641 -1.5833  2.6065
19130TIP3    H278806   1.587   1.595   4.177  0.9215 -1.0304 -1.9557
19131TIP3   OH278807   5.954   4.741   5.331  0.0964  0.5174 -0.5636
19131TIP3    H178808   5.954   4.648   5.308 -0.3025  0.4939 -0.4727
19131TIP3    H278809   5.938   4.786   5.248  1.9095  0.5851 -0.9011
19132TIP3   OH278810   2.142   5.568   5.006 -0.1133 -0.2030  0.6258
19132TIP3    H178811   2.106   5.575   5.094 -0.3549  1.6507  0.3961
19132TIP3    H278812   2.237   5.577   5.018 -0.0263 -1.2322  0.8105
19133TIP3   OH278813   0.204   1.579   3.836  0.5914  0.7072  0.5079
19133TIP3    H178814   0.268   1.574   3.765  0.5717  1.9323  0.3988
19133TIP3    H278815   0.231   1.656   3.887 -0.6198  1.0550  0.6276
19134TIP3   OH278816   2.689   3.592  15.827 -0.2179  0.2344 -0.6458
19134TIP3    H178817   2.745   3.666  15.805 -0.3987  0.6937  0.4162
19134TIP3    H278818   2.643   3.572  15.746  1.2348  0.0592 -1.4477
19135TIP3   OH278819   2.042   4.585  13.186  0.2371 -0.2851 -0.4957
19135TIP3    H178820   2.112   4.529  13.221  0.9780  0.8278 -0.1730
19135TIP3    H278821   2.076   4.674  13.195  0.2865  0.0867 -3.6459
19136TIP3   OH278822   3.164   0.434   5.981  0.0959 -0.1697 -0.0471
19136TIP3    H178823   3.085   0.435   5.928 -0.5944 -0.4718  0.9669
19136TIP3    H278824   3.232   0.399   5.923 -0.7139 -0.7505 -0.6461
19137TIP3   OH278825   1.969   5.351  11.332  0.2257  0.4619  0.0461
19137TIP3    H178826   1.962   5.336  11.426  0.6093  1.1478  0.1934
19137TIP3    H278827   2.012   5.436  11.325 -0.4779  0.7636 -0.7446
19138TIP3   OH278828   3.638   4.059  11.886 -0.1722 -0.0651  0.0245
19138TIP3    H178829   3.599   4.111  11.815  0.2048 -0.1635 -0.2592
19138TIP3    H278830   3.732   4.058  11.866 -0.3293 -2.0048 -0.7476
19139TIP3   OH278831   2.551   1.151   0.724  0.0055  0.4726  0.2846
19139TIP3    H178832   2.551   1.241   0.690  1.7462  0.2910 -0.2660
19139TIP3    H278833   2.465   1.140   0.763 -0.1842  2.4387  0.4792
19140TIP3   OH278834   6.261   2.553   6.340  0.1171 -0.5083 -0.0189
19140TIP3    H178835   6.322   2.481   6.329  0.6750 -0.0881  0.3223
19140TIP3    H278836   6.316   2.631   6.349 -0.4268 -0.2624  1.3255
19141TIP3   OH278837   1.134   0.063   4.712  0.2763 -0.1460 -0.4393
19141TIP3    H178838   1.051   0.022   4.736 -0.1408  0.7787 -0.2761
19141TIP3    H278839   1.112   0.122   4.641  0.5542  1.0989  0.4991
19142TIP3   OH278840   3.400   5.079  12.514  0.3014  0.0961  0.0952
19142TIP3    H178841   3.382   5.152  12.455  2.9272  0.7972  0.0875
19142TIP3    H278842   3.473   5.033  12.474 -0.2392 -1.5483  0.9672
19143TIP3   OH278843   2.591   2.433   5.826 -0.4354  0.2782 -0.1922
19143TIP3    H178844   2.617   2.500   5.890 -0.3613  0.5002 -0.4579
19143TIP3    H278845   2.517   2.471   5.780  0.0862  0.4753 -0.8602
19144TIP3   OH278846   0.596   4.448  14.383  0.2983 -0.1382  0.1346
19144TIP3    H178847   0.542   4.454  14.462  0.2938 -0.0473  0.1252
19144TIP3    H278848   0.610   4.539  14.356  0.0291 -0.1848 -0.1552
19145TIP3   OH278849   1.260   4.050   2.901 -0.4709  0.0127 -0.6085
19145TIP3    H178850   1.188   4.109   2.921  0.3492  0.7300  0.2740
19145TIP3    H278851   1.314   4.050   2.980  0.7264 -0.1808 -1.4097
19146TIP3   OH278852   6.632   5.615  10.474 -0.3122 -0.4468 -0.6819
19146TIP3    H178853   6.546   5.611  10.516 -0.5590  1.1892 -1.0112
19146TIP3    H278854   6.673   5.694  10.509  1.4447 -1.6937  0.1715
19147TIP3   OH278855   4.878   5.421   0.197  0.0018  0.5265  0.4919
19147TIP3    H178856   4.897   5.351   0.134 -0.2879  0.8383  0.0514
19147TIP3    H278857   4.847   5.493   0.143  0.1710  0.9507  0.9577
19148TIP3   OH278858   3.350   6.505   4.961  0.2681  0.0981 -0.4092
19148TIP3    H178859   3.260   6.512   4.931  0.2429 -0.8289 -0.5904
19148TIP3    H278860   3.354   6.419   5.004  1.2491 -0.2066 -1.0836
19149TIP3   OH278861   1.910   5.709   0.532  0.2449 -0.3195 -0.5161
19149TIP3    H178862   1.839   5.746   0.480 -1.1338 -1.2790  0.6342
19149TIP3    H278863   1.958   5.653   0.471 -1.1734 -1.1954 -0.8557
19150TIP3   OH278864   1.557   2.653  16.566  0.1809  0.7876  0.1287
19150TIP3    H178865   1.649   2.663  16.544  0.3791 -0.6204  0.2744
19150TIP3    H278866   1.549   2.692  16.654  0.2706  2.4633 -0.5870
19151TIP3   OH278867   4.568   5.787  15.613  0.2427  0.4347 -0.4127
19151TIP3    H178868   4.482   5.807  15.651  0.3584  0.2262 -0.0375
19151TIP3    H278869   4.571   5.838  15.532  0.3153  1.4846  0.2578
19152TIP3   OH278870   2.593   0.137  15.849 -0.2859 -0.1667 -0.1768
19152TIP3    H178871   2.577   0.194  15.773  1.9726 -0.0877 -0.6415
19152TIP3    H278872   2.511   0.139  15.898 -0.8818  2.0084 -1.1663
19153TIP3   OH278873   3.836   6.098   2.235  0.4203  0.6463  0.3951
19153TIP3    H178874   3.756   6.146   2.215 -0.2421  0.2895  2.1195
19153TIP3    H278875   3.842   6.100   2.331  1.1988 -1.3539  0.4143
19154TIP3   OH278876   5.592   1.351  16.649 -0.8011  0.1549 -0.1032
19154TIP3    H178877   5.610   1.262  16.679 -1.8113 -0.6226 -1.7201
19154TIP3    H278878   5.676   1.395  16.652 -0.4273 -0.6307  1.4277
19155TIP3   OH278879   3.900   3.968  11.242 -0.6235  0.7406  1.0039
19155TIP3    H178880   3.956   3.927  11.307  0.2305  0.8972  0.3743
19155TIP3    H278881   3.870   3.896  11.187 -1.5863  0.5666  1.7325
19156TIP3   OH278882   2.337   1.569   0.705  0.1741  0.6542  0.2297
19156TIP3    H178883   2.243   1.578   0.719  0.1711 -1.7004  2.1340
19156TIP3    H278884   2.376   1.628   0.769  0.0136  2.0353 -0.9223
19157TIP3   OH278885   2.954   3.404   4.028 -0.5407  0.6824  0.3280
19157TIP3    H178886   3.023   3.358   3.980  1.3531  0.1615  3.3334
19157TIP3    H278887   2.881   3.342   4.030  1.1636 -1.3592  2.3550
19158TIP3   OH278888   3.926   0.564   4.734  0.0676 -0.0587  0.2053
19158TIP3    H178889   3.906   0.606   4.818  1.4010 -0.8923  0.9571
19158TIP3    H278890   3.959   0.635   4.679 -2.3283  0.8211 -0.1956
19159TIP3   OH278891   0.720   2.376  11.607  0.2399 -0.0496 -0.0592
19159TIP3    H178892   0.797   2.349  11.656  0.3183  1.5204  0.7077
19159TIP3    H278893   0.746   2.369  11.515  0.3967 -2.0917  0.1183
19160TIP3   OH278894   2.277   6.021  10.523  0.3038 -0.3031  0.4169
19160TIP3    H178895   2.211   5.976  10.470  0.0273 -0.9580  1.3000
19160TIP3    H278896   2.360   6.005  10.478  0.0485 -0.7075  0.0922
19161TIP3   OH278897   5.186   2.470  12.493 -0.1428  0.6418  0.1527
19161TIP3    H178898   5.201   2.536  12.560  0.4785  0.1337  0.5135
19161TIP3    H278899   5.164   2.391  12.541 -2.6522  1.0121 -0.3282
19162TIP3   OH278900   6.252   5.738  15.840 -0.6748 -0.1242  0.2050
19162TIP3    H178901   6.284   5.649  15.826  0.1150 -0.0161  1.2460
19162TIP3    H278902   6.318   5.779  15.897 -1.4326  0.8662  0.3888
19163TIP3   OH278903   5.108   3.466  16.817  0.1333  0.1173 -0.2463
19163TIP3    H178904   5.178   3.403  16.832 -1.1998 -1.6395 -1.1910
19163TIP3    H278905   5.090   3.459  16.723 -2.9569 -1.2806  0.3848
19164TIP3   OH278906   4.570   6.527  12.993 -0.1861 -0.1317 -0.0053
19164TIP3    H178907   4.555   6.620  13.013 -0.9582 -0.9444  3.6569
19164TIP3    H278908   4.641   6.527  12.929  1.3454  2.9190  1.5994
19165TIP3   OH278909   6.588   0.035  11.593 -0.0807  0.3173  0.7294
19165TIP3    H178910   6.531   0.060  11.520  1.6239  0.6877 -0.4907
19165TIP3    H278911   6.566   0.097  11.663 -0.3955  1.1661 -0.1150
19166TIP3   OH278912   5.362   4.314   4.641 -0.1071  0.0521 -0.5288
19166TIP3    H178913   5.405   4.229   4.650  1.2206  0.8728  1.2051
19166TIP3    H278914   5.269   4.293   4.644  0.2014 -1.2069  1.5368
19167TIP3   OH278915   5.589   4.093  16.016 -0.4961 -0.4044 -0.0449
19167TIP3    H178916   5.549   4.070  15.933  0.0568 -1.5188 -0.0160
19167TIP3    H278917   5.630   4.179  16.001 -1.3064 -0.1160 -0.5952
19168TIP3   OH278918   5.524   1.690   2.520  0.1930 -0.5468  0.2079
19168TIP3    H178919   5.557   1.742   2.593  1.4734 -0.7408 -0.2260
19168TIP3    H278920   5.596   1.631   2.498 -0.1322 -0.3806 -1.3100
19169TIP3   OH278921   0.861   5.760   5.411  0.1297 -0.4525 -0.3468
19169TIP3    H178922   0.934   5.708   5.378  0.5249  1.2848 -2.2877
19169TIP3    H278923   0.785   5.702   5.403  1.0378 -1.7936  0.4239
19170TIP3   OH278924   5.423   6.104  15.451 -0.0092  0.2565 -0.4766
19170TIP3    H178925   5.383   6.061  15.526 -0.2128  0.2217 -0.6033
19170TIP3    H278926   5.349   6.126  15.394  0.1623  0.0983 -0.7624
19171TIP3   OH278927   0.029   2.017  15.166 -0.7200 -0.0697  0.8617
19171TIP3    H178928   0.051   2.095  15.114 -2.1642  0.0408  0.3798
19171TIP3    H278929   0.084   2.023  15.243 -0.6685  1.3399  0.7332
19172TIP3   OH278930   4.786   1.494   3.921  0.0713  0.0644  0.2102
19172TIP3    H178931   4.694   1.470   3.905 -0.0203  0.5835 -0.0347
19172TIP3    H278932   4.794   1.582   3.886  0.5852  0.1429  0.5282
19173TIP3   OH278933   4.107   6.681   4.567 -0.2772  0.1013  0.5702
19173TIP3    H178934   4.195   6.719   4.562  0.2901 -1.2316 -0.2109
19173TIP3    H278935   4.074   6.706   4.653  0.9407  0.4701  0.9418
19174TIP3   OH278936   0.731   0.650   5.108 -0.1383 -0.3814 -0.1938
19174TIP3    H178937   0.697   0.648   5.018 -2.0675  3.0437  0.3595
19174TIP3    H278938   0.821   0.679   5.098 -0.6297  0.9564 -1.0075
19175TIP3   OH278939   1.526   1.669  16.354  0.3515  0.1255  0.2207
19175TIP3    H178940   1.555   1.699  16.267 -0.3956 -0.8542 -0.3682
19175TIP3    H278941   1.478   1.743  16.390 -0.2905  0.1495 -0.6641
19176TIP3   OH278942   3.688   3.109  11.249 -0.4151  0.5527 -0.2688
19176TIP3    H178943   3.699   3.020  11.281 -0.5592  0.9348  0.8884
19176TIP3    H278944   3.653   3.099  11.160 -0.5719 -0.5363 -0.0925
19177TIP3   OH278945   5.149   2.101   2.550 -0.6322  0.1829 -0.0571
19177TIP3    H178946   5.074   2.063   2.504 -1.0000  0.7324  0.0749
19177TIP3    H278947   5.125   2.193   2.563 -0.5076  0.0538  1.1668
19178TIP3   OH278948   3.079   2.586  16.742 -0.3712 -0.4023  0.3291
19178TIP3    H178949   3.074   2.681  16.736  0.9220 -0.3696 -0.3198
19178TIP3    H278950   2.996   2.555  16.707 -0.4834  0.4550 -0.1609
19179TIP3   OH278951   5.421   2.554   0.858 -0.0450  0.0243  0.0713
19179TIP3    H178952   5.486   2.487   0.880  0.7251  0.7817  0.1758
19179TIP3    H278953   5.388   2.585   0.943 -0.5623 -0.3799  0.0166
19180TIP3   OH278954   3.924   2.928   1.165  0.3477 -0.1311 -0.2235
19180TIP3    H178955   3.928   2.882   1.082 -1.3621 -0.4459 -0.1485
19180TIP3    H278956   3.921   2.858   1.231 -0.6284  0.1029 -0.0219
19181TIP3   OH278957   5.667   5.201  11.553  0.2022 -0.6021 -0.5369
19181TIP3    H178958   5.681   5.218  11.646  1.9836 -2.3073 -0.4691
19181TIP3    H278959   5.581   5.159  11.549 -1.3639  2.4306 -0.0540
19182TIP3   OH278960   1.673   5.761  14.080 -0.4302  0.2823  0.2984
19182TIP3    H178961   1.615   5.833  14.058  0.1334  0.7055  0.2038
19182TIP3    H278962   1.620   5.704  14.136 -1.0109  0.5456  0.0207
19183TIP3   OH278963   0.700   6.732  16.940  0.5391 -0.1750 -0.8563
19183TIP3    H178964   0.794   6.730  16.921  0.4618  2.5576 -1.6782
19183TIP3    H278965   0.661   6.769  16.860 -1.2604 -1.3687 -0.5558
19184TIP3   OH278966   5.202   0.648   1.148 -0.0825 -0.1992 -0.2398
19184TIP3    H178967   5.112   0.668   1.175 -0.3311  0.8676 -1.7981
19184TIP3    H278968   5.235   0.591   1.217 -1.5731  0.3230  0.9482
19185TIP3   OH278969   6.462   3.511   2.790 -0.0121 -0.2274  0.2950
19185TIP3    H178970   6.393   3.523   2.855 -0.2434 -2.0402  0.4278
19185TIP3    H278971   6.423   3.450   2.726  1.5428 -1.4729  0.5078
19186TIP3   OH278972   3.669   2.817   5.876  0.2926 -0.3491  0.5427
19186TIP3    H178973   3.754   2.773   5.885  2.4823  3.3336 -1.0106
19186TIP3    H278974   3.651   2.816   5.782  0.0395  1.3252  0.5518
19187TIP3   OH278975   4.565   4.371  16.483 -0.0045 -0.6264 -0.3050
19187TIP3    H178976   4.548   4.288  16.438  0.7840 -0.1301 -1.5708
19187TIP3    H278977   4.501   4.432  16.446 -1.6974 -1.0440  1.8349
19188TIP3   OH278978   6.046   2.630  14.948 -0.3332 -0.2793  0.1918
19188TIP3    H178979   5.991   2.703  14.920  0.5891  0.0091 -0.8996
19188TIP3    H278980   6.114   2.670  15.001  0.1800 -0.3383 -0.4158
19189TIP3   OH278981   6.722   4.163   2.156  0.0800 -0.8277 -0.3196
19189TIP3    H178982   6.646   4.208   2.120 -0.7500 -0.0653  2.2769
19189TIP3    H278983   6.774   4.232   2.199  1.7357 -1.4889 -1.1958
19190TIP3   OH278984   2.759   6.387  11.679  0.2091 -0.3432 -0.0577
19190TIP3    H178985   2.837   6.332  11.686  0.5509  0.3850  2.2129
19190TIP3    H278986   2.784   6.455  11.617  0.7700 -1.1138 -0.6908
19191TIP3   OH278987   0.128   0.070  17.031 -0.2092  0.0192 -0.5189
19191TIP3    H178988   0.159   0.117  17.108  0.6545  1.5044 -1.7429
19191TIP3    H278989   0.190   0.094  16.962 -1.7126 -0.2355 -1.9866
19192TIP3   OH278990   5.127   3.158  15.664 -0.6561  0.2181 -0.0542
19192TIP3    H178991   5.039   3.121  15.674 -0.6485  0.8046  2.3836
19192TIP3    H278992   5.113   3.253  15.663  0.0037  0.3260  0.8717
19193TIP3   OH278993   0.032   3.315  16.693 -0.0160  0.0290  0.2733
19193TIP3    H178994  -0.030   3.385  16.711 -0.4301 -0.2454 -0.0653
19193TIP3    H278995   0.118   3.352  16.716 -0.0923  1.0633 -1.0377
19194TIP3   OH278996   1.924   2.945   0.499  0.0906 -0.4593  0.4707
19194TIP3    H178997   1.844   2.972   0.544  0.3774  0.1554  0.6195
19194TIP3    H278998   1.929   2.851   0.514 -0.4176 -0.4441  0.7591
19195TIP3   OH278999   2.445   1.560  12.970 -0.8692  0.4887  0.6286
19195TIP3    H179000   2.453   1.655  12.978  0.3334  0.4008  0.4790
19195TIP3    H279001   2.458   1.543  12.876  2.1917 -0.1325  1.1373
19196TIP3   OH279002   1.515   3.006   3.004  0.0039  0.3689  0.2588
19196TIP3    H179003   1.437   2.997   2.948  0.4287 -1.8231 -0.0242
19196TIP3    H279004   1.487   2.975   3.089  0.1888  0.9268  0.5263
19197TIP3   OH279005   2.016   0.020  13.091 -0.0146 -0.6559 -0.1807
19197TIP3    H179006   2.022   0.094  13.031 -1.9840 -0.4172 -0.1247
19197TIP3    H279007   1.981  -0.051  13.038 -0.5511 -0.8141  0.3792
19198TIP3   OH279008   5.027   1.508  10.328  0.5596 -0.1297 -0.4521
19198TIP3    H179009   5.101   1.502  10.388 -0.0394  0.2332  0.3417
19198TIP3    H279010   4.993   1.596  10.341 -0.7751 -0.7223  0.1028
19199TIP3   OH279011   0.598   1.941  14.404 -0.6979 -0.4213  0.9566
19199TIP3    H179012   0.536   2.012  14.383 -2.1858 -1.5254  1.4852
19199TIP3    H279013   0.569   1.867  14.350 -0.1938 -1.1229  1.6364
19200TIP3   OH279014   3.999   5.980  15.876  0.0993 -0.4974  0.0131
19200TIP3    H179015   4.036   5.896  15.849  0.9427 -0.5996  1.4658
19200TIP3    H279016   3.997   6.032  15.796 -1.0229 -2.1126 -1.0369
19201TIP3   OH279017   5.893   2.141  17.083  0.2173 -0.4534  0.0582
19201TIP3    H179018   5.807   2.143  17.040  0.5943  2.4277 -0.7037
19201TIP3    H279019   5.956   2.136  17.010  0.7482  0.2132  0.4609
19202TIP3   OH279020   2.152   0.920   3.646  0.0122  0.2450  0.0139
19202TIP3    H179021   2.149   0.974   3.567  0.5569  0.8580  0.4022
19202TIP3    H279022   2.088   0.851   3.631 -1.2307  1.4218 -0.1886
19203TIP3   OH279023   6.768   1.860   1.910  0.1961  0.5471 -0.2480
19203TIP3    H179024   6.746   1.792   1.846  1.0161 -0.3558  0.4018
19203TIP3    H279025   6.748   1.819   1.995 -0.2504  1.4867  0.1083
19204TIP3   OH279026   1.487   2.301  16.179  0.6526 -1.0939 -0.3677
19204TIP3    H179027   1.461   2.221  16.226  0.4800 -0.5344  0.4871
19204TIP3    H279028   1.521   2.359  16.246  2.1603 -1.0018 -1.1959
19205TIP3   OH279029   3.491   5.432  10.752  0.1720 -0.1036  0.0226
19205TIP3    H179030   3.583   5.444  10.773  0.5581 -0.5409 -1.3413
19205TIP3    H279031   3.449   5.515  10.776  0.5005 -0.6966  2.7478
19206TIP3   OH279032   2.157   3.641  17.011 -0.3829  0.2956 -0.2884
19206TIP3    H179033   2.143   3.644  16.917  1.2937 -0.8647 -0.5996
19206TIP3    H279034   2.138   3.729  17.041 -2.1575  0.3578 -1.5203
19207TIP3   OH279035   5.122   2.838   3.601  0.5753  0.0761  0.0664
19207TIP3    H179036   5.144   2.761   3.653  1.6887  0.0332 -0.4577
19207TIP3    H279037   5.071   2.803   3.527 -0.0517  0.0078  0.5261
19208TIP3   OH279038   3.846   5.675  13.439  0.6123  0.6482 -0.3360
19208TIP3    H179039   3.800   5.636  13.514  0.4036 -1.8545 -1.7275
19208TIP3    H279040   3.826   5.768  13.445 -0.4513  0.3162  1.9842
19209TIP3   OH279041   6.494   0.395  12.082 -0.0227  0.0375  0.0427
19209TIP3    H179042   6.586   0.401  12.059 -0.2241  0.2035 -0.7306
19209TIP3    H279043   6.448   0.388  11.998 -0.8327  1.5001  0.3409
19210TIP3   OH279044   0.213   1.410   1.370 -0.6275 -1.1747 -0.0153
19210TIP3    H179045   0.281   1.342   1.371 -0.2300 -0.8509 -2.2156
19210TIP3    H279046   0.253   1.483   1.417  1.4010 -0.2587 -3.0011
19211TIP3   OH279047   6.143   1.277   0.246  0.1985  0.0892  0.4612
19211TIP3    H179048   6.233   1.293   0.219  0.3456 -1.5495 -0.1032
19211TIP3    H279049   6.096   1.257   0.165 -0.3316 -0.5425  0.9134
19212TIP3   OH279050   5.429   5.346  15.005 -0.1086  0.2288  0.1029
19212TIP3    H179051   5.363   5.295  14.957  1.5048 -0.4936 -1.4029
19212TIP3    H279052   5.486   5.382  14.937  0.7069  1.3369  1.3479
19213TIP3   OH279053   3.128   1.182  15.652  0.0442  0.4095  0.4333
19213TIP3    H179054   3.053   1.156  15.704 -0.1041  0.6530  0.3454
19213TIP3    H279055   3.196   1.118  15.673 -0.0754  0.3960  0.7804
19214TIP3   OH279056   5.393   0.398   2.544  0.5133 -0.3456  0.2488
19214TIP3    H179057   5.368   0.481   2.503 -3.1739 -1.6886 -0.4487
19214TIP3    H279058   5.448   0.423   2.618  2.3615  2.4833 -2.0025
19215TIP3   OH279059   0.798   3.277   3.322 -0.1701  0.4572 -0.7178
19215TIP3    H179060   0.744   3.199   3.316  0.1502  0.2858 -1.4141
19215TIP3    H279061   0.736   3.347   3.345 -0.6124  0.1807 -1.0497
19216TIP3   OH279062   0.918   5.194   1.760  0.2171  0.2714  0.1616
19216TIP3    H179063   0.999   5.202   1.811  0.0288  1.6703  0.2537
19216TIP3    H279064   0.948   5.185   1.669  0.4820  2.0816  0.0368
19217TIP3   OH279065   2.912   1.193   5.760  0.4378  0.5129 -0.0703
19217TIP3    H179066   2.985   1.241   5.799 -0.3549  0.9744  0.8696
19217TIP3    H279067   2.835   1.224   5.807 -0.4796  0.6678 -1.6353
19218TIP3   OH279068   1.619   2.419   0.201  0.2438  0.0737 -0.3523
19218TIP3    H179069   1.574   2.425   0.117  0.6837 -0.0215 -0.5988
19218TIP3    H279070   1.655   2.506   0.215  0.0226  0.1358 -0.1821
19219TIP3   OH279071   0.064   4.821  13.358 -0.5722  0.2543 -1.0250
19219TIP3    H179072   0.066   4.740  13.409 -1.3641 -0.4769 -2.1162
19219TIP3    H279073   0.030   4.887  13.418  1.1675  0.0621  0.2337
19220TIP3   OH279074   4.097   2.439  11.064 -0.2203  0.3815  0.3674
19220TIP3    H179075   4.058   2.489  11.135 -1.9917 -0.9072  0.3357
19220TIP3    H279076   4.069   2.483  10.984  0.3556  0.8315  0.4116
19221TIP3   OH279077   1.441   1.690  15.664 -0.2185  0.1940 -0.3620
19221TIP3    H179078   1.424   1.596  15.667  0.0275  0.1521 -0.2885
19221TIP3    H279079   1.364   1.729  15.706 -0.1851  0.0092 -0.1253
19222TIP3   OH279080   0.857   3.987  14.622 -0.1431 -0.0941  0.0725
19222TIP3    H179081   0.938   4.037  14.613 -0.6609  1.0820  1.7957
19222TIP3    H279082   0.881   3.914  14.680 -0.1926 -0.0209  0.1847
19223TIP3   OH279083   4.957   5.998   5.205 -0.1186  0.1908  0.0835
19223TIP3    H179084   4.878   5.951   5.176 -1.0499  1.9594 -0.3372
19223TIP3    H279085   4.926   6.057   5.273  0.7317  1.3860 -0.5550
19224TIP3   OH279086   6.310   1.513  12.713 -0.1694 -1.0147 -0.1766
19224TIP3    H179087   6.388   1.529  12.765 -0.1723  0.4620 -0.5865
19224TIP3    H279088   6.247   1.580  12.742 -0.2036 -0.2438 -1.9731
19225TIP3   OH279089   0.826   4.320   4.094  0.3502 -0.1032 -0.0181
19225TIP3    H179090   0.839   4.392   4.032  0.6223  0.9321  1.2076
19225TIP3    H279091   0.825   4.363   4.180  1.4622 -1.6891  0.8119
19226TIP3   OH279092   2.520   1.049   6.932  0.2323 -0.2485 -0.1856
19226TIP3    H179093   2.524   0.993   6.854  1.7662  0.1357 -0.4052
19226TIP3    H279094   2.518   1.138   6.898  1.7824 -0.0448  0.1974
19227TIP3   OH279095   3.393   4.266  14.253 -0.4409 -0.0351 -0.7980
19227TIP3    H179096   3.382   4.173  14.273 -0.9734  0.1282 -0.3103
19227TIP3    H279097   3.304   4.302  14.256 -0.3203  0.3404 -1.7348
19228TIP3   OH279098   0.743   3.297   4.626  0.0017  0.2093 -0.3816
19228TIP3    H179099   0.772   3.209   4.652 -2.7704 -1.1924 -1.8739
19228TIP3    H279100   0.814   3.330   4.571  0.1959 -1.8934 -1.4181
19229TIP3   OH279101   4.302   4.755   3.843  0.3122 -0.3744  0.1369
19229TIP3    H179102   4.365   4.700   3.795 -1.6885 -2.0426 -0.6411
19229TIP3    H279103   4.294   4.712   3.928  0.3957 -0.0155  0.3272
19230TIP3   OH279104   3.459   6.426  16.172 -0.0777  0.5505 -0.3314
19230TIP3    H179105   3.483   6.420  16.264 -2.1973  2.9783  0.4109
19230TIP3    H279106   3.527   6.481  16.132 -0.0289  0.8119  0.1179
19231TIP3   OH279107   6.023   5.768   4.901  0.3733  0.1089  0.3552
19231TIP3    H179108   6.005   5.680   4.865 -0.3357  0.5125 -0.3121
19231TIP3    H279109   5.945   5.819   4.877  0.9998  1.0472  0.3139
19232TIP3   OH279110   4.436   1.039  11.566 -0.3430  0.5929 -0.2758
19232TIP3    H179111   4.472   1.101  11.502 -0.4779  1.1476  0.1768
19232TIP3    H279112   4.347   1.071  11.582 -0.2619  0.5323  0.2840
19233TIP3   OH279113   5.571   6.267   2.601 -0.2933 -0.1688  0.4725
19233TIP3    H179114   5.661   6.295   2.620 -0.5091 -0.2439  1.6312
19233TIP3    H279115   5.574   6.172   2.607 -0.5648 -0.1430  1.0060
19234TIP3   OH279116   5.754   1.236  13.717 -0.0393 -0.0575 -0.3884
19234TIP3    H179117   5.812   1.311  13.730 -0.1721 -0.0511  0.1566
19234TIP3    H279118   5.806   1.175  13.665  0.0397  0.4470 -0.9125
19235TIP3   OH279119   6.135   1.247  15.296  0.4420 -0.0182  0.2138
19235TIP3    H179120   6.123   1.152  15.303 -2.3273  0.3747  1.7234
19235TIP3    H279121   6.129   1.266  15.203  2.1386 -1.4150 -0.2170
19236TIP3   OH279122   3.743   2.930   1.561 -0.1248 -0.3166  0.5224
19236TIP3    H179123   3.714   2.981   1.637  0.8872  0.4129  0.4267
19236TIP3    H279124   3.766   2.845   1.596  0.3722  0.0320  1.0468
19237TIP3   OH279125   6.066   3.531   1.170  0.2775 -0.3428  0.2767
19237TIP3    H179126   6.144   3.586   1.172  0.4053 -0.5497  1.9317
19237TIP3    H279127   6.091   3.455   1.118  1.1250 -0.3197  0.6419
19238TIP3   OH279128   2.795   5.581  17.107  0.3825  0.0161  0.4301
19238TIP3    H179129   2.759   5.558  17.021 -1.4394 -0.0562  1.2037
19238TIP3    H279130   2.856   5.653  17.089 -0.8433  0.7752 -0.7673
19239TIP3   OH279131   5.424   6.601   6.037 -0.5894  0.0844  0.2524
19239TIP3    H179132   5.490   6.539   6.006 -0.6245  0.2772 -0.2145
19239TIP3    H279133   5.394   6.564   6.120 -0.5934 -0.5127 -0.0109
19240TIP3   OH279134   0.648   2.440  12.243  0.3499 -0.1118 -0.1084
19240TIP3    H179135   0.705   2.512  12.272  1.1950 -0.4997 -0.7609
19240TIP3    H279136   0.589   2.481  12.180  1.0230 -0.0354 -0.7064
19241TIP3   OH279137   2.218   5.851   3.851 -0.6359 -0.2714  0.1350
19241TIP3    H179138   2.138   5.885   3.813 -0.9740 -1.9921 -0.7738
19241TIP3    H279139   2.202   5.757   3.861  2.1794 -1.1143 -2.5442
19242TIP3   OH279140   1.873   1.790  14.805  0.2227  0.2512  0.5351
19242TIP3    H179141   1.859   1.851  14.732  1.2868  1.7158  1.5201
19242TIP3    H279142   1.965   1.801  14.827  0.0951 -0.7668  1.5917
19243TIP3   OH279143   4.516   2.844  15.761  0.5306  0.8262 -0.3191
19243TIP3    H179144   4.491   2.902  15.689  0.2515 -0.2798 -1.1341
19243TIP3    H279145   4.433   2.812  15.797  0.6860 -1.2195 -1.6763
19244TIP3   OH279146   5.435   1.937  13.498 -0.0435  0.0639 -0.9267
19244TIP3    H179147   5.357   1.895  13.534  0.5968 -0.8151 -0.5600
19244TIP3    H279148   5.444   2.018  13.548 -0.4365 -0.0737 -0.6314
19245TIP3   OH279149   3.594   6.140  13.052  0.1549 -0.3805 -0.3079
19245TIP3    H179150   3.683   6.103  13.055  0.6847  0.8443 -0.6947
19245TIP3    H279151   3.582   6.166  12.961  0.0679  1.0934  0.1245
19246TIP3   OH279152   5.721   1.962  11.149  0.7362  0.2209 -0.0836
19246TIP3    H179153   5.772   1.916  11.082  0.6434  1.8151 -1.2857
19246TIP3    H279154   5.646   1.997  11.102  0.8305  1.6257  0.7852
19247TIP3   OH279155   3.533   2.668  15.435  0.0446 -0.0163  0.4182
19247TIP3    H179156   3.472   2.739  15.413  1.1452  1.7420  2.8294
19247TIP3    H279157   3.477   2.600  15.473 -0.6664  0.7646  0.7980
19248TIP3   OH279158   5.044   6.476   4.623  0.2578  0.1406 -0.0604
19248TIP3    H179159   5.075   6.408   4.563 -0.1240  1.7540 -2.1237
19248TIP3    H279160   5.007   6.427   4.697  1.7337 -1.8650 -0.6152
19249TIP3   OH279161   6.070   0.357   6.041  0.2082 -0.3210  0.0721
19249TIP3    H179162   6.068   0.263   6.058 -2.5165 -0.0967  1.1940
19249TIP3    H279163   6.036   0.367   5.952  2.4654 -0.5127 -0.8511
19250TIP3   OH279164   1.109   2.337   0.976 -0.5155 -0.1399 -0.5397
19250TIP3    H179165   1.026   2.380   0.992 -0.6159 -0.8765  1.0053
19250TIP3    H279166   1.174   2.407   0.983 -0.9214  0.2733 -0.8689
19251TIP3   OH279167   0.600   4.622   1.620 -0.4168 -0.0807  0.0285
19251TIP3    H179168   0.626   4.644   1.530  1.8558 -0.2501  0.6163
19251TIP3    H279169   0.549   4.698   1.649  2.1987  1.7903 -0.0654
19252TIP3   OH279170   3.465   2.263   1.772 -0.0697  0.5708  0.1326
19252TIP3    H179171   3.460   2.340   1.828 -2.2382  1.1947 -0.8779
19252TIP3    H279172   3.487   2.297   1.685 -0.9250  0.0629 -0.2953
19253TIP3   OH279173   3.742   2.012   0.381 -0.0639  0.1063 -0.2743
19253TIP3    H179174   3.650   2.002   0.354 -0.1379  0.3599 -0.1142
19253TIP3    H279175   3.792   1.969   0.311 -0.1758  2.1074 -1.6315
19254TIP3   OH279176   2.860   5.337  11.708 -0.1609 -0.5654  0.2603
19254TIP3    H179177   2.829   5.295  11.627  0.3641  0.0877 -0.2896
19254TIP3    H279178   2.785   5.336  11.767 -0.5739 -0.9682 -0.2718
19255TIP3   OH279179   2.641   5.602  11.553  0.1507  0.1274  0.7076
19255TIP3    H179180   2.725   5.590  11.510 -0.2701 -1.5639  0.2959
19255TIP3    H279181   2.577   5.599  11.482 -0.3261  0.3819  1.1198
19256TIP3   OH279182   4.256   1.977  14.230 -0.5346 -0.9948 -0.2899
19256TIP3    H179183   4.195   2.001  14.299 -0.9432 -1.1603 -0.5868
19256TIP3    H279184   4.341   1.970  14.273 -1.0159 -2.4478  0.4658
19257TIP3   OH279185   2.049   6.550  15.641  0.8509  0.0261 -0.0106
19257TIP3    H179186   2.092   6.621  15.687 -2.0337  1.2294  0.9267
19257TIP3    H279187   1.970   6.532  15.692  0.7037 -2.7710 -1.1184
19258TIP3   OH279188   6.610   2.461  14.312 -0.5003  0.2908 -0.3733
19258TIP3    H179189   6.520   2.446  14.340 -0.0257 -1.4167  0.3558
19258TIP3    H279190   6.660   2.463  14.394  0.4927 -1.6488 -0.8809
19259TIP3   OH279191   2.606   4.393  15.024 -0.2238  0.0085 -0.0135
19259TIP3    H179192   2.529   4.400  14.968  0.0517 -0.6401 -0.4846
19259TIP3    H279193   2.633   4.301  15.017  0.7400  0.2878 -0.0528
19260TIP3   OH279194   5.170   5.674  15.328 -0.5214 -0.2108 -0.0003
19260TIP3    H179195   5.152   5.648  15.238 -0.0826  0.1990 -0.2072
19260TIP3    H279196   5.265   5.668  15.336 -0.5011  0.4141  0.2288
19261TIP3   OH279197   5.379   5.185  16.011  0.0372 -0.5926 -0.3866
19261TIP3    H179198   5.329   5.216  16.086  0.8806 -1.7628  0.6638
19261TIP3    H279199   5.405   5.096  16.034  2.6483  0.0094 -0.8773
19262TIP3   OH279200   6.170   4.533   4.345  0.0341  0.2295  0.4328
19262TIP3    H179201   6.207   4.445   4.357 -0.4333  0.0728  0.7296
19262TIP3    H279202   6.078   4.518   4.323  0.5333  0.5780 -1.9538
19263TIP3   OH279203   2.616   3.971  10.946  0.1269  0.5475 -0.2453
19263TIP3    H179204   2.594   4.025  11.023 -2.0125  0.7360 -0.9564
19263TIP3    H279205   2.609   4.031  10.872  0.1464 -0.1133 -0.7884
19264TIP3   OH279206   1.928   0.331   5.236 -0.5357  0.0985  0.1687
19264TIP3    H179207   1.869   0.406   5.244 -0.2382  0.3296  0.1635
19264TIP3    H279208   1.873   0.256   5.259 -0.6232  0.3967  0.9455
19265TIP3   OH279209   1.123   6.382   0.911  0.7528  0.0033  0.5145
19265TIP3    H179210   1.179   6.453   0.942  0.6120  1.9898 -3.4647
19265TIP3    H279211   1.035   6.406   0.940  1.0483  0.1965  1.2571
19266TIP3   OH279212   3.529   1.489  13.302  0.4579  0.2688 -0.2393
19266TIP3    H179213   3.577   1.416  13.262  0.7476 -0.5896  1.5959
19266TIP3    H279214   3.489   1.534  13.229  1.0771 -1.1747 -1.5080
19267TIP3   OH279215   3.210   6.567  15.964  0.4894 -0.0983 -0.2290
19267TIP3    H179216   3.256   6.486  15.941 -1.5094 -1.5636  0.7158
19267TIP3    H279217   3.210   6.568  16.060  0.0255  0.7371 -0.2324
19268TIP3   OH279218   2.752   0.787  15.401  0.2357  0.2040 -0.3662
19268TIP3    H179219   2.678   0.805  15.343  0.5427  1.0031 -0.5126
19268TIP3    H279220   2.781   0.873  15.430 -0.0071 -0.1918  1.1031
19269TIP3   OH279221   2.677   5.673   4.112 -0.5976  0.0906  0.1522
19269TIP3    H179222   2.765   5.700   4.135 -0.8306 -0.3806  1.6872
19269TIP3    H279223   2.659   5.598   4.169 -1.6592 -0.3765 -0.7587
19270TIP3   OH279224   4.705   2.006   5.946  0.7582  0.3412 -0.1234
19270TIP3    H179225   4.711   1.978   5.855 -1.0881  0.9021 -0.4402
19270TIP3    H279226   4.789   1.982   5.984  2.2549  1.7095 -2.4258
19271TIP3   OH279227   3.750   1.501   3.036  0.0666  0.3782 -0.2558
19271TIP3    H179228   3.808   1.474   3.107 -1.1648 -2.8293 -0.3796
19271TIP3    H279229   3.686   1.557   3.078  0.9113  0.6784  0.6543
19272TIP3   OH279230   4.967   1.001   5.564 -0.0951  0.0374 -0.7919
19272TIP3    H179231   5.019   1.064   5.516  1.0773 -0.1740  0.1860
19272TIP3    H279232   4.905   1.055   5.615 -0.7045  0.2912 -1.7904
19273TIP3   OH279233   1.457   5.066  16.109  0.0409 -0.9107 -0.0960
19273TIP3    H179234   1.532   5.094  16.057 -0.6078  0.7489 -0.1908
19273TIP3    H279235   1.417   4.995  16.057  1.9210 -2.2815  0.3131
19274TIP3   OH279236   0.457   0.945  13.124 -0.5390 -0.3801  0.3224
19274TIP3    H179237   0.461   0.981  13.035 -0.3094  0.8979  0.8387
19274TIP3    H279238   0.451   0.851  13.111 -0.0496 -0.2414 -1.0557
19275TIP3   OH279239   5.854   5.762   5.213 -0.3239  0.4211  0.2830
19275TIP3    H179240   5.806   5.684   5.184 -0.5298  0.0041  1.7091
19275TIP3    H279241   5.932   5.763   5.158 -0.7172 -0.3458 -0.3043
19276TIP3   OH279242   2.011   3.067   1.932  0.1902  0.3811  0.0500
19276TIP3    H179243   2.004   3.140   1.993 -0.4651  0.3480  0.0129
19276TIP3    H279244   1.968   3.097   1.852  1.0408  0.4234 -0.4083
19277TIP3   OH279245   6.773   4.347   5.616  0.1111 -0.0138 -0.0139
19277TIP3    H179246   6.775   4.263   5.571 -2.3527  0.1405 -0.4591
19277TIP3    H279247   6.857   4.388   5.594  0.5329 -1.5441 -1.3465
19278TIP3   OH279248   1.699   0.410  11.963  0.3554  0.4334 -0.2088
19278TIP3    H179249   1.755   0.448  11.895  0.2078 -1.5707 -1.5125
19278TIP3    H279250   1.613   0.449  11.947 -0.0802 -1.3026 -2.3045
19279TIP3   OH279251   2.705   5.495  16.836 -0.1718 -0.1783  0.1135
19279TIP3    H179252   2.643   5.438  16.880  0.7251  0.5387  2.4140
19279TIP3    H279253   2.756   5.437  16.780 -0.6741 -1.3126  0.8176
19280TIP3   OH279254   1.330   5.277  15.980  0.2195  0.5050  0.6384
19280TIP3    H179255   1.240   5.294  16.009 -0.7012 -0.2602 -1.6117
19280TIP3    H279256   1.380   5.269  16.061 -2.3125 -2.0636  2.0779
19281TIP3   OH279257   0.155   0.600  13.753 -0.1219  0.0544 -0.3460
19281TIP3    H179258   0.134   0.515  13.791  1.2679 -1.1610 -2.2081
19281TIP3    H279259   0.113   0.599  13.667 -0.7830  1.6134 -0.0732
19282TIP3   OH279260   1.113   0.775  13.987  0.3209 -0.3154 -0.1635
19282TIP3    H179261   1.111   0.774  13.891  2.0596  0.5116 -0.2184
19282TIP3    H279262   1.201   0.806  14.009  0.3011 -1.5086  1.7050
19283TIP3   OH279263   5.716   3.935   6.267 -0.4293 -0.3494  0.5246
19283TIP3    H179264   5.800   3.902   6.298 -0.7322 -0.8940  0.7606
19283TIP3    H279265   5.680   3.983   6.342  0.6717  1.7999 -0.2673
19284TIP3   OH279266   0.731   5.095  17.036 -0.1525 -0.0314 -0.0133
19284TIP3    H179267   0.676   5.171  17.015 -3.0079 -1.8180  0.7466
19284TIP3    H279268   0.748   5.104  17.130 -1.3588 -0.8492  0.2932
19285TIP3   OH279269   0.899   6.615   3.197  0.0484  0.3974 -0.1530
19285TIP3    H179270   0.821   6.559   3.194  1.1621 -1.2072 -0.1026
19285TIP3    H279271   0.942   6.602   3.112  0.1813  1.3835 -0.2423
19286TIP3   OH279272   3.740   4.338  12.505 -0.8470 -0.0281  0.2330
19286TIP3    H179273   3.791   4.369  12.579 -1.0351  0.3733  0.1968
19286TIP3    H279274   3.686   4.413  12.480  0.8079  0.5430 -1.7194
19287TIP3   OH279275   3.651   2.277  11.265  0.4847 -0.0063 -0.0828
19287TIP3    H179276   3.676   2.331  11.190 -2.8465  2.2327  0.3054
19287TIP3    H279277   3.602   2.204  11.226 -0.3930  0.6279 -0.1787
19288TIP3   OH279278   6.477   0.095   3.622  0.6755 -0.2603  0.7131
19288TIP3    H179279   6.459   0.042   3.700  0.0776 -1.8728 -0.5111
19288TIP3    H279280   6.437   0.047   3.550  2.6707  0.3728 -0.8544
19289TIP3   OH279281   6.457   1.704  15.544 -0.5034 -0.2998 -0.2332
19289TIP3    H179282   6.483   1.764  15.613  0.7945 -1.8948  0.7146
19289TIP3    H279283   6.364   1.690  15.557 -0.5416  0.4871  0.3444
19290TIP3   OH279284   3.463   0.865   1.986  0.4399 -0.0490  0.1292
19290TIP3    H179285   3.457   0.938   1.924 -0.2646 -0.6238 -0.4851
19290TIP3    H279286   3.555   0.865   2.014  0.2018  1.7097  0.9220
19291TIP3   OH279287   2.085   1.633  16.178  0.2240 -0.1586 -0.3019
19291TIP3    H179288   2.066   1.612  16.087  1.9015  0.2763 -0.7764
19291TIP3    H279289   1.999   1.635  16.221 -0.6175  0.0922 -1.9601
19292TIP3   OH279290   6.688   3.643   3.775 -0.8042  0.3680  0.8230
19292TIP3    H179291   6.707   3.737   3.776  4.2675 -0.5032  0.0762
19292TIP3    H279292   6.674   3.620   3.866 -1.2211  1.6575  1.0937
19293TIP3   OH279293   0.223   1.903  16.493 -0.4270  0.5135 -0.2151
19293TIP3    H179294   0.210   1.987  16.449  2.0278  0.7905 -0.4776
19293TIP3    H279295   0.316   1.883  16.480  0.1817  0.1198  4.0064
19294TIP3   OH279296   6.646   3.241  11.088 -0.1044  0.3330  0.0794
19294TIP3    H179297   6.725   3.281  11.051  0.6267 -0.3756  0.8555
19294TIP3    H279298   6.631   3.164  11.034  0.2011  0.0339  0.4118
19295TIP3   OH279299   3.495   1.510  16.094  0.4005 -0.3011  0.1346
19295TIP3    H179300   3.445   1.431  16.075  1.5336 -1.0421  0.1423
19295TIP3    H279301   3.517   1.547  16.008 -0.3345  0.1425  0.1384
19296TIP3   OH279302   2.061   4.670  16.463 -0.2409  0.2191  0.4148
19296TIP3    H179303   2.133   4.678  16.401  0.2413  0.2925  0.9732
19296TIP3    H279304   2.019   4.756  16.462  0.0613  0.3698  0.5424
19297TIP3   OH279305   3.799   0.561   2.411  0.1062 -0.1205  0.0489
19297TIP3    H179306   3.892   0.582   2.416  0.0611  0.3423 -0.8550
19297TIP3    H279307   3.755   0.644   2.433 -0.0811  0.1406 -1.2570
19298TIP3   OH279308   3.288   0.203  13.628  0.0544  0.0901  0.0308
19298TIP3    H179309   3.336   0.257  13.690 -0.2006 -0.6602  0.9049
19298TIP3    H279310   3.281   0.118  13.671 -0.7063 -0.2526 -0.7482
19299TIP3   OH279311   0.607   3.298   5.317  0.5383 -0.0634 -0.1427
19299TIP3    H179312   0.699   3.303   5.291  0.1642 -2.0061 -1.9151
19299TIP3    H279313   0.564   3.366   5.264  0.9419  0.9046  0.7497
19300TIP3   OH279314   2.507   3.511  17.137  0.1457 -0.0954  0.7699
19300TIP3    H179315   2.492   3.575  17.207 -0.9906  1.1267 -0.5717
19300TIP3    H279316   2.424   3.505  17.091  1.3021  0.2820 -1.4281
19301TIP3   OH279317   1.985   3.988  13.595 -0.2226  0.6950 -0.1723
19301TIP3    H179318   2.000   3.990  13.501 -0.2334 -2.7268 -0.3117
19301TIP3    H279319   2.069   4.016  13.633  0.7608 -0.8222 -1.1699
19302TIP3   OH279320   3.089   6.125  14.714  0.2548  0.2503  0.5023
19302TIP3    H179321   3.000   6.155  14.695 -0.6670 -2.3538  0.5179
19302TIP3    H279322   3.077   6.057  14.780  2.1240 -1.1258 -0.5439
19303TIP3   OH279323   1.089   6.557  16.252 -0.5319  0.4202 -0.4506
19303TIP3    H179324   1.103   6.543  16.346  2.4757 -1.3860 -1.0759
19303TIP3    H279325   1.067   6.470  16.218 -4.0322  1.4745 -1.1198
19304TIP3   OH279326   4.597   5.799   0.720 -0.4595 -0.9073  0.3872
19304TIP3    H179327   4.516   5.802   0.771  0.1397 -1.3571  1.3838
19304TIP3    H279328   4.661   5.845   0.774 -0.3669  0.6409 -1.0021
19305TIP3   OH279329   4.110   1.174  12.104 -1.0594  0.3197  0.3402
19305TIP3    H179330   4.055   1.252  12.093  0.7713  1.3694 -1.7547
19305TIP3    H279331   4.113   1.135  12.016  3.3846  1.5901 -0.1760
19306TIP3   OH279332   0.835   0.680   4.359  0.2033 -0.6013 -0.3842
19306TIP3    H179333   0.765   0.690   4.295 -0.7450  1.7664  0.9682
19306TIP3    H279334   0.820   0.593   4.397 -0.8962 -0.8650 -1.3880
19307TIP3   OH279335   4.932   2.662   1.592 -0.1734 -0.1451  0.1298
19307TIP3    H179336   4.918   2.733   1.655 -2.1147 -0.5114  0.1525
19307TIP3    H279337   4.990   2.699   1.526  0.1815  0.9225  1.0315
19308TIP3   OH279338   6.011   4.969   1.372  0.2656 -0.5797  0.2606
19308TIP3    H179339   6.014   4.976   1.276  2.2671  0.5119  0.3782
19308TIP3    H279340   6.082   4.908   1.393 -1.7104 -2.7094  0.9140
19309TIP3   OH279341   1.632   0.239   1.810  0.0536 -0.8011 -0.3716
19309TIP3    H179342   1.688   0.168   1.778  0.0393 -0.0125 -2.1901
19309TIP3    H279343   1.585   0.269   1.733 -0.9126  0.3368  0.6350
19310TIP3   OH279344   3.618   5.658  16.185  0.2236  0.4076  0.3092
19310TIP3    H179345   3.529   5.684  16.208  0.1343 -0.1028  0.5539
19310TIP3    H279346   3.674   5.714  16.239  0.1326  2.8720 -2.0475
19311TIP3   OH279347   3.989   0.832   2.838  0.0202  0.4739  0.0924
19311TIP3    H179348   3.896   0.814   2.834  0.0523  0.0679  1.0828
19311TIP3    H279349   3.995   0.925   2.861 -0.1334  1.4576 -3.4561
19312TIP3   OH279350   2.429   6.329  16.240  0.4069 -0.2833 -0.9942
19312TIP3    H179351   2.372   6.318  16.163 -0.0254 -0.2400 -0.6838
19312TIP3    H279352   2.448   6.240  16.268  1.4050 -0.3199 -1.7638
19313TIP3   OH279353   4.615   0.191   0.849  0.9645 -0.2760  0.1291
19313TIP3    H179354   4.676   0.209   0.919 -0.4219 -1.5988  1.7190
19313TIP3    H279355   4.529   0.190   0.891 -0.1889  1.5369 -2.0390
19314TIP3   OH279356   3.169   3.141  13.022  0.0148  0.1624 -0.5041
19314TIP3    H179357   3.118   3.172  13.097  0.7092 -0.3537  0.1980
19314TIP3    H279358   3.200   3.221  12.979  0.1642  0.4593  0.1485
19315TIP3   OH279359   1.824   3.814  17.149 -0.3797  0.4662 -0.3985
19315TIP3    H179360   1.823   3.759  17.071  0.6924  0.0220 -0.1014
19315TIP3    H279361   1.796   3.756  17.219  0.6433  0.3375 -0.1019
19316TIP3   OH279362   1.339   3.321  15.969  0.0286  0.0552 -0.0663
19316TIP3    H179363   1.392   3.258  15.919  0.1479  0.2281 -0.1573
19316TIP3    H279364   1.395   3.348  16.041 -1.0506 -2.1218  1.6346
19317TIP3   OH279365   0.662   0.267   6.140  0.0048 -0.0336  0.4649
19317TIP3    H179366   0.605   0.314   6.079 -1.3693 -0.8328  1.1096
19317TIP3    H279367   0.614   0.268   6.223  2.1759  1.6792  1.7511
19318TIP3   OH279368   6.756   2.108  12.913 -0.3638  0.4476 -0.0423
19318TIP3    H179369   6.693   2.045  12.950  0.2866  0.5167  1.2296
19318TIP3    H279370   6.828   2.109  12.977  0.4960  1.0600 -1.0164
19319TIP3   OH279371   1.758   2.536   5.505 -0.4941 -0.0580 -0.2038
19319TIP3    H179372   1.747   2.574   5.592 -0.9377  0.2869 -0.4105
19319TIP3    H279373   1.745   2.609   5.445 -1.2850 -0.5116 -0.5991
19320TIP3   OH279374   2.745   2.976   6.244 -0.5066  0.1318 -0.0390
19320TIP3    H179375   2.800   2.905   6.214 -1.1244 -0.2553 -0.2585
19320TIP3    H279376   2.806   3.048   6.261 -0.1702  0.4368 -2.4070
19321TIP3   OH279377   6.570   5.561   2.392 -0.0762  0.4519 -0.0348
19321TIP3    H179378   6.485   5.530   2.363 -0.0223 -0.2069  0.4973
19321TIP3    H279379   6.571   5.654   2.370 -0.5190  0.2315 -0.9883
19322TIP3   OH279380   5.938   5.987   1.283  0.6300  0.2667  0.2320
19322TIP3    H179381   5.977   5.962   1.367  0.7581  0.0083  0.0991
19322TIP3    H279382   5.999   6.051   1.246  1.4326 -0.8425 -0.4048
19323TIP3   OH279383   1.604   3.913  16.502 -0.1449 -0.0370  0.0443
19323TIP3    H179384   1.615   4.008  16.510  1.7670 -0.1056 -1.3865
19323TIP3    H279385   1.676   3.877  16.553 -0.1346 -0.7005 -0.4408
19324TIP3   OH279386   0.266   2.536  16.107  0.2048 -0.5603 -0.1798
19324TIP3    H179387   0.271   2.585  16.189 -0.8902 -1.2561  0.3118
19324TIP3    H279388   0.186   2.568  16.065 -0.5635 -1.9764  0.1868
19325TIP3   OH279389   3.388   2.143   1.154 -0.2521  0.1585 -0.3387
19325TIP3    H179390   3.427   2.130   1.240 -2.2527 -1.6596  0.3203
19325TIP3    H279391   3.463   2.144   1.094  0.9430 -1.6455  1.0715
19326TIP3   OH279392   4.951   2.465   1.208  0.6109  0.1513  0.1012
19326TIP3    H179393   5.034   2.436   1.246  0.4258  0.2899  0.6097
19326TIP3    H279394   4.887   2.456   1.279 -0.1261 -1.4407 -0.7427
19327TIP3   OH279395   6.738   6.615   5.987  0.9900  0.1777  0.2924
19327TIP3    H179396   6.697   6.643   6.068  1.2567  2.6042 -0.3677
19327TIP3    H279397   6.680   6.547   5.953 -0.2594  0.6500  1.4419
19328TIP3   OH279398   5.452   5.751  17.091 -0.5129 -0.4589  0.1330
19328TIP3    H179399   5.496   5.687  17.146  0.0224 -1.0840 -1.0163
19328TIP3    H279400   5.488   5.737  17.004 -0.5205  1.2841 -0.1742
19329TIP3   OH279401   5.858   4.833   2.801  0.3158 -0.6058 -0.2595
19329TIP3    H179402   5.864   4.927   2.790  0.7702 -0.7245 -1.0778
19329TIP3    H279403   5.897   4.816   2.887 -0.7709  0.0620  0.3669
19330TIP3   OH279404   0.478   0.569   4.282 -0.3424 -0.4706 -0.0916
19330TIP3    H179405   0.464   0.481   4.247 -0.9068 -0.4206  0.0124
19330TIP3    H279406   0.499   0.555   4.374  0.5093 -0.5591 -0.2972
19331TIP3   OH279407   0.731   3.173   5.647  0.6981 -0.0824  0.6091
19331TIP3    H179408   0.710   3.199   5.736  0.4626 -1.4293  0.9604
19331TIP3    H279409   0.691   3.087   5.637 -0.2386  0.5415 -1.1690
19332TIP3   OH279410   1.299   1.413  15.350  0.2533  0.3120 -0.6557
19332TIP3    H179411   1.280   1.412  15.444 -1.1952 -0.5291 -0.9447
19332TIP3    H279412   1.350   1.334  15.334 -1.1566 -0.5720 -0.8891
19333TIP3   OH279413   5.168   0.231  12.747  0.2713  0.4027 -0.2631
19333TIP3    H179414   5.192   0.177  12.822 -0.2829 -0.5144 -0.7436
19333TIP3    H279415   5.171   0.172  12.672 -0.7584  0.9284 -0.7343
19334TIP3   OH279416   3.546   0.234  16.839  0.2926 -0.3064 -0.2589
19334TIP3    H179417   3.476   0.298  16.824  1.1943  0.2353 -2.3797
19334TIP3    H279418   3.551   0.185  16.757  2.4028 -0.3275 -0.1230
19335TIP3   OH279419   5.248   5.798   0.348 -0.0484 -0.2923  0.0598
19335TIP3    H179420   5.261   5.891   0.329  0.0568 -0.5118 -0.9637
19335TIP3    H279421   5.303   5.781   0.424  1.9252 -0.1059 -1.2984
19336TIP3   OH279422   3.244   2.989   1.732  0.5141 -0.2346 -0.2766
19336TIP3    H179423   3.180   3.046   1.689  1.1960  0.4978 -0.3399
19336TIP3    H279424   3.197   2.908   1.749 -0.3960  0.2555 -0.4353
19337TIP3   OH279425   3.082   2.485   3.291  0.1609 -0.5229 -0.2072
19337TIP3    H179426   3.077   2.580   3.297 -1.8425 -0.6519  0.6165
19337TIP3    H279427   3.167   2.463   3.330 -0.1481  0.8075  1.2855
19338TIP3   OH279428   0.105   4.814  16.505 -0.5022  1.2495  0.0049
19338TIP3    H179429   0.187   4.858  16.486 -1.1168  2.0387 -0.8676
19338TIP3    H279430   0.085   4.765  16.426  0.2185 -0.6868  0.9973
19339TIP3   OH279431   6.383   2.324  15.478  0.8022  0.9561 -0.6982
19339TIP3    H179432   6.363   2.347  15.569  0.8133  0.0850 -0.4653
19339TIP3    H279433   6.470   2.285  15.482  0.1594 -0.5149 -0.8421
19340TIP3   OH279434   4.566   4.478  14.153  0.7494  0.2847 -0.1495
19340TIP3    H179435   4.547   4.393  14.192  2.2819 -0.4584 -0.9885
19340TIP3    H279436   4.541   4.542  14.220 -0.1379 -0.8315  0.5951
19341TIP3   OH279437   0.337   4.743   6.790 -0.6133 -0.2595  0.1111
19341TIP3    H179438   0.408   4.687   6.821  0.8701  0.2962 -2.2527
19341TIP3    H279439   0.368   4.832   6.804  0.9080  0.0494 -4.6335
19342TIP3   OH279440   0.684   1.685  16.473  0.1598  0.0196 -0.1596
19342TIP3    H179441   0.731   1.657  16.552  0.7290 -1.7758 -1.1241
19342TIP3    H279442   0.750   1.685  16.404 -0.1453  2.3990 -0.4917
19343TIP3   OH279443   3.147   6.751  11.914 -0.2783  0.2899 -0.1963
19343TIP3    H179444   3.052   6.752  11.906 -0.4385 -0.1516  1.3709
19343TIP3    H279445   3.165   6.674  11.968  0.8888  0.9775  0.4072
19344TIP3   OH279446   3.039   2.006   3.020  0.5631  0.2664 -0.2564
19344TIP3    H179447   3.076   1.946   3.085  1.3177 -0.7051 -1.5576
19344TIP3    H279448   2.947   1.982   3.013  0.8062 -0.5921 -0.5844
19345TIP3   OH279449   1.296   1.132  12.050  0.0205 -0.3359  0.1442
19345TIP3    H179450   1.376   1.181  12.032  0.4448 -0.4577  1.6356
19345TIP3    H279451   1.226   1.196  12.039  0.6599  1.0036  3.4505
19346TIP3   OH279452   5.751   2.742  17.173  0.0781  0.2770  0.5085
19346TIP3    H179453   5.836   2.764  17.211  0.4005 -0.6890  0.3691
19346TIP3    H279454   5.772   2.685  17.099 -0.7317 -0.8256  1.0975
19347TIP3   OH279455   2.453   1.778  15.044 -0.1041  0.2075 -0.4752
19347TIP3    H179456   2.535   1.790  14.995  0.8792  1.4476  1.4409
19347TIP3    H279457   2.445   1.857  15.098 -0.9782 -1.2804  1.6288
19348TIP3   OH279458   6.508   6.263   1.640  0.2217 -0.0174 -0.1981
19348TIP3    H179459   6.496   6.356   1.660  0.3042  0.4618 -2.2858
19348TIP3    H279460   6.603   6.251   1.639  0.2727  0.5172 -2.7141
19349TIP3   OH279461   1.697   0.350  11.263 -0.7024 -0.0479 -0.4312
19349TIP3    H179462   1.753   0.401  11.204  2.0668 -1.0572  1.2218
19349TIP3    H279463   1.715   0.387  11.350 -1.7479 -1.1790  0.2688
19350TIP3   OH279464   4.083   4.193  15.310  0.3365 -0.6427 -0.1451
19350TIP3    H179465   4.151   4.125  15.313  1.3246  0.3199 -0.6519
19350TIP3    H279466   4.128   4.273  15.335 -0.6961 -0.0519 -0.1614
19351TIP3   OH279467   4.494   4.033  15.210  0.1261 -0.1945 -0.3016
19351TIP3    H179468   4.564   4.000  15.267  2.2693  0.5935 -2.4142
19351TIP3    H279469   4.485   3.966  15.142 -0.7948 -0.0079 -0.3660
19352TIP3   OH279470   5.929   5.663  12.636 -0.2334 -0.4074  0.2373
19352TIP3    H179471   5.971   5.674  12.551 -1.5707  0.7370 -0.2945
19352TIP3    H279472   5.960   5.738  12.688  0.6181 -1.1287  0.7812
19353TIP3   OH279473   5.971   3.888  15.077  0.7258  0.4049  0.3545
19353TIP3    H179474   5.911   3.951  15.037  1.4797  1.6734  1.1737
19353TIP3    H279475   5.917   3.840  15.140 -0.0270 -0.3082 -0.8278
19354TIP3   OH279476   6.359   2.472  15.756 -0.7910  0.0840  0.3591
19354TIP3    H179477   6.360   2.467  15.851  1.6131  1.5361  0.4593
19354TIP3    H279478   6.433   2.529  15.734 -0.4740 -1.3199 -2.4473
19355TIP3   OH279479   5.885   6.373   4.263  0.0179  0.7402  0.1976
19355TIP3    H179480   5.959   6.354   4.205  0.0271 -0.4143  0.5696
19355TIP3    H279481   5.852   6.457   4.233  0.7522  0.7061 -0.7327
19356TIP3   OH279482   0.888   2.546  15.767  0.4753 -0.5877 -0.2264
19356TIP3    H179483   0.883   2.531  15.861  2.8417 -0.1513  0.0007
19356TIP3    H279484   0.798   2.568  15.741 -0.0366  0.1560  2.0706
19357TIP3   OH279485   6.005   0.694  14.396  0.0632 -0.2445 -0.1664
19357TIP3    H179486   5.988   0.773  14.446 -1.1405 -0.9583  0.5764
19357TIP3    H279487   5.924   0.678  14.347 -0.5559 -2.2336  1.4157
19358TIP3   OH279488   4.401   2.982   1.213  0.2820  0.0345  0.3441
19358TIP3    H179489   4.424   3.029   1.293  0.0044  0.6226  0.0835
19358TIP3    H279490   4.361   2.901   1.244 -1.8125  1.2254  0.8170
19359TIP3   OH279491   1.080   5.140  14.025 -0.3510 -0.0794 -0.0577
19359TIP3    H179492   1.115   5.207  14.084 -2.5602  1.0608  0.0136
19359TIP3    H279493   1.013   5.096  14.077  0.1122 -1.4409 -0.5886
19360TIP3   OH279494   2.155   0.830   1.674 -0.0477  0.2900  0.0071
19360TIP3    H179495   2.136   0.873   1.591 -0.1601 -2.1810 -1.3122
19360TIP3    H279496   2.215   0.889   1.719 -0.6885  2.0915 -1.4327
19361TIP3   OH279497   0.112   2.600  11.463  0.5864  0.1994  0.4219
19361TIP3    H179498   0.189   2.552  11.433  1.3109  0.1047  2.3316
19361TIP3    H279499   0.127   2.690  11.434  0.3000 -0.2709 -1.2172
19362TIP3   OH279500   3.703   2.808   4.271 -0.0255  0.1475 -0.1000
19362TIP3    H179501   3.772   2.804   4.338  0.3595  1.3836 -0.4096
19362TIP3    H279502   3.691   2.717   4.243  1.2034 -0.1266  0.2467
19363TIP3   OH279503   1.978   5.385  15.602 -0.8366 -0.4857  0.3557
19363TIP3    H179504   2.015   5.341  15.526 -0.5184  0.7443 -0.2226
19363TIP3    H279505   2.054   5.415  15.652 -1.0447 -1.0517  1.0119
19364TIP3   OH279506   5.146   5.890  14.625  0.5151 -0.0306  0.1543
19364TIP3    H179507   5.052   5.871  14.617  0.5684 -0.7694  1.2437
19364TIP3    H279508   5.151   5.966  14.682  0.5946 -0.1136  0.2570
19365TIP3   OH279509   2.053   1.334   1.875  0.1751 -0.7301 -0.0766
19365TIP3    H179510   1.971   1.311   1.830  0.0146  0.4362 -0.3953
19365TIP3    H279511   2.096   1.395   1.816  1.5867 -1.8032 -0.1964
19366TIP3   OH279512   0.732   2.751  13.077 -0.2958 -0.3441  0.5173
19366TIP3    H179513   0.702   2.834  13.115 -0.5004  0.0223 -0.4335
19366TIP3    H279514   0.805   2.776  13.020  1.4768 -1.1585  2.3707
19367TIP3   OH279515   5.748   2.429   5.428  0.0037  0.2372  0.1355
19367TIP3    H179516   5.756   2.508   5.376  1.3972 -0.0057 -0.0306
19367TIP3    H279517   5.792   2.361   5.377 -1.2872 -0.6949  0.2094
19368TIP3   OH279518   5.861   5.052   5.888  0.2546 -0.3284  0.5082
19368TIP3    H179519   5.879   5.048   5.794 -0.7621 -2.2273  0.3735
19368TIP3    H279520   5.928   4.998   5.928  1.1820  1.1385  0.9702
19369TIP3   OH279521   4.249   1.190  16.829 -0.0970  0.6670 -0.1024
19369TIP3    H179522   4.331   1.154  16.796 -0.2022 -0.1152  0.4873
19369TIP3    H279523   4.232   1.266  16.773  0.6854  0.4420 -0.6476
19370TIP3   OH279524   2.589   4.497  12.501 -0.1822 -0.1683 -0.0890
19370TIP3    H179525   2.630   4.412  12.518  0.7939  0.7030  2.0643
19370TIP3    H279526   2.542   4.484  12.419 -1.7909 -3.4250  1.2325
19371TIP3   OH279527   5.120   6.483   2.987  0.3413  0.4830 -0.0424
19371TIP3    H179528   5.184   6.533   2.936 -0.2524  1.9704  0.6377
19371TIP3    H279529   5.173   6.427   3.044  1.0244  0.8906 -0.2706
19372TIP3   OH279530   5.619   5.021  14.399 -0.0238  0.1991 -0.1733
19372TIP3    H179531   5.633   5.027  14.304 -0.3393 -0.4769 -0.2691
19372TIP3    H279532   5.704   5.042  14.437 -0.3331  2.2175 -0.5490
19373TIP3   OH279533   1.158   1.183  16.281 -0.2108  0.2411  0.1655
19373TIP3    H179534   1.233   1.240  16.297 -1.0044  1.8983 -1.8154
19373TIP3    H279535   1.087   1.221  16.331 -0.5810  0.6458 -0.6576
19374TIP3   OH279536   0.857   1.555   6.695 -0.4350  0.0494 -0.2009
19374TIP3    H179537   0.896   1.475   6.659 -2.2262 -0.3526 -1.2675
19374TIP3    H279538   0.898   1.626   6.646 -0.8019 -0.3553 -1.0968
19375TIP3   OH279539   0.634   5.164  14.006 -0.3072  0.3590  0.2309
19375TIP3    H179540   0.682   5.226  14.061 -0.4707  0.2093  0.5431
19375TIP3    H279541   0.699   5.099  13.980 -0.4508 -0.1325  1.0831
19376TIP3   OH279542   2.884   1.895  14.811 -0.2405  0.2407  0.1189
19376TIP3    H179543   2.863   1.988  14.810  0.7558  0.4754  0.5204
19376TIP3    H279544   2.955   1.886  14.748 -0.0081 -0.1663  0.4355
19377TIP3   OH279545   1.534   0.311   4.082  0.3376  0.4959 -0.4702
19377TIP3    H179546   1.627   0.335   4.082  0.9102 -1.6040  0.1054
19377TIP3    H279547   1.488   0.394   4.086  2.2062  1.5476 -0.1681
19378TIP3   OH279548   2.577   5.392   5.088 -0.0727 -0.0460 -0.7031
19378TIP3    H179549   2.521   5.378   5.165 -0.3398  1.9229 -0.5137
19378TIP3    H279550   2.524   5.447   5.030  1.3071  1.0651 -0.9366
19379TIP3   OH279551   0.516   4.431  11.921  0.3016 -0.5995  0.1540
19379TIP3    H179552   0.500   4.508  11.976  0.9573 -0.2776 -0.1046
19379TIP3    H279553   0.581   4.380  11.969  0.2934 -0.7141  0.0459
19380TIP3   OH279554   0.363   1.607   3.620 -0.4827 -0.5400 -0.1329
19380TIP3    H179555   0.450   1.623   3.657 -1.5633  1.2121  1.7604
19380TIP3    H279556   0.360   1.661   3.541 -0.2469  0.3305  0.4397
19381TIP3   OH279557   1.774   2.378   2.819  0.6001  0.7808  0.0414
19381TIP3    H179558   1.718   2.300   2.824  1.4486  0.2222  1.3106
19381TIP3    H279559   1.714   2.451   2.833  0.3362  0.1213  2.7364
19382TIP3   OH279560   4.548   2.696   3.659  0.2745  0.2159  0.5386
19382TIP3    H179561   4.507   2.745   3.731 -2.5825 -0.6098 -0.4519
19382TIP3    H279562   4.571   2.612   3.697  0.3460  0.4044  0.9149
19383TIP3   OH279563   4.940   4.787   4.273  0.0152 -0.6946  0.1192
19383TIP3    H179564   4.903   4.699   4.273  0.8094 -1.0328  0.6013
19383TIP3    H279565   4.992   4.792   4.353  0.4890 -0.0040 -0.2198
19384TIP3   OH279566   3.991   0.239  11.145 -0.9130  0.3383 -0.3614
19384TIP3    H179567   3.985   0.334  11.149 -1.2094  0.2988  0.1273
19384TIP3    H279568   4.035   0.221  11.061 -0.5925  0.9142 -0.3185
19385TIP3   OH279569   3.755   1.384   2.796  0.0703  0.3775  0.2564
19385TIP3    H179570   3.747   1.416   2.886  0.6133  0.7226  0.1821
19385TIP3    H279571   3.669   1.346   2.777  0.0991 -0.1248  1.0839
19386TIP3   OH279572   4.762   4.557   0.279 -0.2633 -0.3812  0.5803
19386TIP3    H179573   4.851   4.549   0.245 -0.3197 -2.5321  0.8806
19386TIP3    H279574   4.772   4.600   0.364  0.1335  2.4255 -0.8035
19387TIP3   OH279575   3.068   3.995   2.637 -0.0984  0.1875  0.2061
19387TIP3    H179576   3.006   4.056   2.596 -0.3433 -1.1134 -1.4501
19387TIP3    H279577   3.017   3.952   2.705 -0.6182  0.1037 -0.2322
19388TIP3   OH279578   4.101   2.185   5.091 -0.4322  0.1252 -0.5302
19388TIP3    H179579   4.125   2.097   5.117  1.1561  0.8919  0.6363
19388TIP3    H279580   4.118   2.188   4.997  2.5353  0.1332 -0.0349
19389TIP3   OH279581   1.513   1.299   3.850 -0.4942 -0.1315 -0.1312
19389TIP3    H179582   1.460   1.220   3.848  0.5264 -0.8005 -1.1214
19389TIP3    H279583   1.598   1.272   3.816  0.2641  1.0941  0.7504
19390TIP3   OH279584   0.522   0.530  14.199 -0.3159  0.8335 -0.4601
19390TIP3    H179585   0.481   0.482  14.272  0.3474  0.9928  0.0204
19390TIP3    H279586   0.448   0.571  14.154 -0.8325 -0.1070 -0.4943
19391TIP3   OH279587   4.623   6.612   2.746 -0.3458 -0.1803  0.4990
19391TIP3    H179588   4.660   6.523   2.743  0.4116  0.1695 -0.5064
19391TIP3    H279589   4.566   6.617   2.669 -1.7170 -0.3621  1.4782
19392TIP3   OH279590   4.157   4.154   0.409 -0.2109  0.4736  0.0764
19392TIP3    H179591   4.221   4.213   0.368 -1.2558  1.3187 -0.3501
19392TIP3    H279592   4.129   4.200   0.488 -0.0126 -0.0701  0.4682
19393TIP3   OH279593   1.646   5.107  11.906 -0.3200  0.2381 -0.3339
19393TIP3    H179594   1.703   5.038  11.873 -1.0601 -1.0311  0.9559
19393TIP3    H279595   1.588   5.063  11.968  1.0027  2.5047  2.6600
19394TIP3   OH279596   2.484   1.928  14.578  0.2684 -0.0849 -0.4211
19394TIP3    H179597   2.552   1.862  14.589 -0.1687 -0.4520  0.1416
19394TIP3    H279598   2.515   2.003  14.628 -0.6180 -0.9268  1.4453
19395TIP3   OH279599   4.867   2.034   4.402 -0.5196 -0.2257  0.0828
19395TIP3    H179600   4.782   2.026   4.359 -0.0500 -0.0104 -0.9172
19395TIP3    H279601   4.887   2.128   4.398  1.2675 -0.6500 -2.7215
19396TIP3   OH279602   1.265   5.561  12.947  0.1494 -0.0963  0.1041
19396TIP3    H179603   1.242   5.561  12.854 -1.4235  2.3103  0.4348
19396TIP3    H279604   1.181   5.559  12.992  0.7914  1.7410  1.4334
19397TIP3   OH279605   4.498   0.147   5.808  0.3444 -0.1922  0.6421
19397TIP3    H179606   4.461   0.185   5.729  1.5526 -0.4258 -0.0512
19397TIP3    H279607   4.448   0.186   5.879 -0.9844 -0.2368 -0.2481
19398TIP3   OH279608   2.366   2.211   3.128 -0.0829  0.2495 -0.0994
19398TIP3    H179609   2.341   2.301   3.108 -2.5835 -0.6006 -0.9338
19398TIP3    H279610   2.440   2.194   3.070 -0.8454  1.1380 -1.3613
19399TIP3   OH279611   4.469   3.667   3.551  0.0017 -0.0290  0.4369
19399TIP3    H179612   4.390   3.698   3.594 -1.9850  0.2909 -3.3118
19399TIP3    H279613   4.469   3.572   3.567 -0.4352  0.1329  1.4690
19400TIP3   OH279614   0.942   5.122  15.185 -0.0045 -0.3035 -0.5710
19400TIP3    H179615   0.920   5.215  15.184 -0.1886 -0.3190  0.9192
19400TIP3    H279616   0.869   5.081  15.231  0.6272 -1.0471 -0.2322
19401TIP3   OH279617   1.427   1.478   4.116  0.4102  0.5771 -0.0992
19401TIP3    H179618   1.334   1.496   4.129  0.6592  2.2803 -0.5853
19401TIP3    H279619   1.429   1.412   4.046 -0.5257 -1.5652  1.8469
19402TIP3   OH279620   5.753   0.569  12.232 -0.1541  0.1205  0.2918
19402TIP3    H179621   5.841   0.538  12.255 -0.0260  0.0133 -0.3331
19402TIP3    H279622   5.768   0.633  12.163 -0.4484  1.3072  1.3132
19403TIP3   OH279623   4.931   1.310   1.977  0.2035 -0.3077 -0.8585
19403TIP3    H179624   5.026   1.319   1.980  0.0272  1.7024 -1.0983
19403TIP3    H279625   4.902   1.376   1.915 -1.5026  0.3016  0.5462
19404TIP3   OH279626   4.299   4.440  13.143  0.3565 -0.0053 -0.1343
19404TIP3    H179627   4.350   4.368  13.105  0.7470  0.2625 -0.1185
19404TIP3    H279628   4.297   4.507  13.075  3.1721  1.4990  1.1893
19405TIP3   OH279629   2.648   1.970  13.569  0.0238  0.2667 -0.6984
19405TIP3    H179630   2.718   2.035  13.578  0.6274 -0.4141 -0.3866
19405TIP3    H279631   2.568   2.016  13.594  0.3125  1.1476 -1.3752
19406TIP3   OH279632   1.654   2.507  13.788 -0.6806  0.0104  0.3857
19406TIP3    H179633   1.689   2.578  13.842  0.3342 -2.6769  3.3711
19406TIP3    H279634   1.562   2.501  13.811 -0.6943  0.1066  0.3591
19407TIP3   OH279635   4.304   1.715  15.578  0.1381 -0.1368  0.0752
19407TIP3    H179636   4.383   1.760  15.608  0.9202  0.0524 -2.1510
19407TIP3    H279637   4.320   1.623  15.600  0.2720  0.1179  1.0693
19408TIP3   OH279638   5.830   0.367  16.339  0.0806  0.2552  0.2185
19408TIP3    H179639   5.793   0.439  16.286  1.6338 -0.0743 -1.3652
19408TIP3    H279640   5.771   0.294  16.324 -1.1946  1.0235  1.3886
19409TIP3   OH279641   0.773   2.074  10.847 -0.3712 -0.6122 -0.1342
19409TIP3    H179642   0.703   2.042  10.790  0.3367  0.5982 -1.7302
19409TIP3    H279643   0.744   2.161  10.875  0.2611 -0.3122 -0.3957
19410TIP3   OH279644   4.881   0.017  11.727  0.4792  0.0050 -0.3621
19410TIP3    H179645   4.885  -0.027  11.642 -1.9456 -1.7836  0.3940
19410TIP3    H279646   4.788   0.017  11.749  0.9531  1.5339  1.7574
19411TIP3   OH279647   4.507   4.399  12.441  0.3098 -0.0522 -0.0779
19411TIP3    H179648   4.531   4.401  12.349  0.2395 -1.9478 -0.1639
19411TIP3    H279649   4.469   4.312  12.454 -0.3705  0.4653  1.5696
19412TIP3   OH279650   3.081   0.463   1.512 -0.0721 -0.3870  0.0478
19412TIP3    H179651   3.156   0.435   1.565  0.0974  1.4460  0.8443
19412TIP3    H279652   3.006   0.456   1.571 -0.3616 -1.1920 -0.4121
19413TIP3   OH279653   2.766   0.502   1.393 -0.8256  0.0212 -1.0763
19413TIP3    H179654   2.817   0.579   1.417 -0.1361 -0.6564 -0.3198
19413TIP3    H279655   2.727   0.524   1.308  0.1987  0.7956 -1.3565
19414TIP3   OH279656   1.827   1.362  11.658 -0.2566 -0.5410 -0.5571
19414TIP3    H179657   1.837   1.315  11.741  0.1990  0.0547 -0.2668
19414TIP3    H279658   1.781   1.301  11.601 -0.9409 -0.8036  0.2699
19415TIP3   OH279659   4.221   2.178   5.518  0.4493  0.1142  0.2918
19415TIP3    H179660   4.302   2.132   5.541 -0.8372 -2.0950  0.5955
19415TIP3    H279661   4.216   2.250   5.581  2.5072  0.6663 -0.1571
19416TIP3   OH279662   5.328   3.876   1.370 -0.5793  0.0355 -0.1044
19416TIP3    H179663   5.269   3.839   1.436  0.0372 -0.3230  0.2476
19416TIP3    H279664   5.280   3.950   1.334 -0.8217  0.3798  0.9108
19417TIP3   OH279665   3.682   0.154   3.608 -0.0765 -1.0607 -0.0683
19417TIP3    H179666   3.727   0.165   3.525 -0.4112  2.5501  0.1383
19417TIP3    H279667   3.739   0.097   3.659  0.9583 -1.9480 -2.1637
19418TIP3   OH279668   0.996   0.083  12.210 -0.6240  0.1748  0.2816
19418TIP3    H179669   1.059   0.154  12.225  0.0800 -0.1144 -1.2512
19418TIP3    H279670   0.989   0.038  12.295 -1.1589  2.1197  1.3108
19419TIP3   OH279671   2.897   1.709   0.051 -0.6819  0.2923  0.0419
19419TIP3    H179672   2.956   1.671  -0.014 -1.2639 -0.2126 -0.2004
19419TIP3    H279673   2.874   1.635   0.108 -2.7462  0.0105 -1.1215
19420TIP3   OH279674   6.226   5.804  14.132  0.3954 -0.3695  0.1510
19420TIP3    H179675   6.242   5.897  14.148  2.1459 -0.5274 -0.5405
19420TIP3    H279676   6.231   5.795  14.037 -4.2828 -0.4252 -0.2080
19421TIP3   OH279677   5.977   2.106   5.633 -0.1678  0.8881 -0.4270
19421TIP3    H179678   5.994   2.140   5.721 -0.1522 -3.9056  1.5397
19421TIP3    H279679   6.057   2.125   5.584  0.7584  1.4824  1.2742
19422TIP3   OH279680   3.035   0.127   5.108 -0.2036 -0.1164  0.6445
19422TIP3    H179681   3.040   0.098   5.199 -1.8734 -0.0421  0.7764
19422TIP3    H279682   2.942   0.120   5.085 -0.2006  2.2739 -0.2467
19423TIP3   OH279683   4.606   3.998  10.393 -0.0042  0.6307  0.1596
19423TIP3    H179684   4.528   3.951  10.365 -0.2389  1.3163 -0.3384
19423TIP3    H279685   4.591   4.017  10.486 -0.4045  0.7386  0.0690
19424TIP3   OH279686   4.248   2.792   4.055 -0.3401  0.0378 -0.1162
19424TIP3    H179687   4.268   2.885   4.059 -3.4326  0.7222  0.7342
19424TIP3    H279688   4.194   2.775   4.133 -1.1117 -2.1088 -1.0536
19425TIP3   OH279689   1.002   3.924  16.416 -0.4022 -0.4642  0.0476
19425TIP3    H179690   0.972   3.931  16.507  0.2030  1.9008  0.0968
19425TIP3    H279691   0.936   3.971  16.365  0.6545  0.5728 -0.3931
19426TIP3   OH279692   2.731   2.390   1.389 -0.2406 -0.2468  0.3701
19426TIP3    H179693   2.687   2.434   1.316  0.4595  1.1242  0.7570
19426TIP3    H279694   2.821   2.378   1.359 -0.3231 -1.0454  0.4318
19427TIP3   OH279695   1.837   5.432  16.779  0.0923 -0.0265  0.1653
19427TIP3    H179696   1.922   5.454  16.741  0.0914 -0.9871 -0.4255
19427TIP3    H279697   1.784   5.511  16.768 -0.1596 -0.5335 -2.5800
19428TIP3   OH279698   1.372   3.695  16.043 -0.2211  0.0261  0.1593
19428TIP3    H179699   1.418   3.680  16.125 -2.1265 -1.3958  1.0041
19428TIP3    H279700   1.433   3.666  15.975  1.0097  0.3678  1.1040
19429TIP3   OH279701   5.393   5.953   2.976 -0.3954  0.9207  0.2496
19429TIP3    H179702   5.360   5.982   2.890 -2.5187  1.2787  1.1527
19429TIP3    H279703   5.334   5.882   3.001  0.0918  0.9593  1.5089
19430TIP3   OH279704   6.251   0.625  13.494 -0.3379  0.3872  0.0909
19430TIP3    H179705   6.319   0.608  13.559  0.9286 -2.7674 -1.9310
19430TIP3    H279706   6.293   0.681  13.429  0.3009 -1.3200 -1.0056
19431TIP3   OH279707   5.774   4.374   5.942  0.2638  0.4106 -0.2528
19431TIP3    H179708   5.793   4.468   5.947 -0.8040  0.6991 -1.3600
19431TIP3    H279709   5.787   4.342   6.031 -2.5177  2.2337  0.8683
19432TIP3   OH279710   3.384   0.830  13.403 -1.3722  0.7856  0.1050
19432TIP3    H179711   3.412   0.922  13.399 -0.6388  0.6507  1.7527
19432TIP3    H279712   3.311   0.831  13.464 -0.4967  0.0731  1.1716
19433TIP3   OH279713   6.374   0.492   4.440  0.4006 -0.0822  0.2007
19433TIP3    H179714   6.409   0.497   4.351 -1.1744  1.5941 -0.3497
19433TIP3    H279715   6.340   0.402   4.447 -0.3431  0.0750 -1.2233
19434TIP3   OH279716   3.872   0.662   1.542 -0.2281  0.2932  0.7087
19434TIP3    H179717   3.935   0.731   1.563  1.6636 -1.4254  0.7259
19434TIP3    H279718   3.846   0.679   1.452  0.0864  1.1182  0.7700
19435TIP3   OH279719   3.023   2.817   1.754  0.3243  0.3485  0.1672
19435TIP3    H179720   2.998   2.741   1.701 -0.7393 -0.3061  1.5688
19435TIP3    H279721   2.959   2.884   1.732 -0.8246 -0.3040  1.4488
19436TIP3   OH279722   6.516   5.542   2.713 -0.1797  0.1927 -0.1377
19436TIP3    H179723   6.436   5.582   2.678  0.2246  1.6726  0.6004
19436TIP3    H279724   6.510   5.555   2.807 -0.1187 -1.6780  0.1450
19437TIP3   OH279725   3.793   3.888   0.044 -0.0385 -0.0979  0.2497
19437TIP3    H179726   3.712   3.878  -0.005  1.9755 -2.1200 -2.8597
19437TIP3    H279727   3.843   3.953  -0.006  0.6872  0.3576  1.5476
19438TIP3   OH279728   4.060   6.086  12.719 -0.3424 -0.2719 -0.2705
19438TIP3    H179729   4.105   6.055  12.798  0.4208 -0.6896 -0.8568
19438TIP3    H279730   4.130   6.124  12.666 -1.2756  2.6576  0.5158
19439TIP3   OH279731   0.451   6.496   6.294 -0.0892 -0.0675  0.6204
19439TIP3    H179732   0.393   6.567   6.266 -0.2453  0.0920  1.3214
19439TIP3    H279733   0.452   6.503   6.390  1.4589  0.2143  0.5879
19440TIP3   OH279734   6.054   2.077   2.354 -0.5489  0.1635 -0.2004
19440TIP3    H179735   6.141   2.115   2.367  0.5234 -1.6961 -1.6553
19440TIP3    H279736   6.068   2.006   2.291 -2.4029 -2.8900  2.6822
19441TIP3   OH279737   6.022   2.471  12.128 -0.2306 -0.1283  0.5078
19441TIP3    H179738   6.094   2.486  12.068 -2.5280 -1.7374 -2.8377
19441TIP3    H279739   5.989   2.558  12.150 -1.0761  0.4730 -2.8797
19442TIP3   OH279740   0.250   3.756   3.852 -0.4717 -0.2012 -0.1782
19442TIP3    H179741   0.332   3.713   3.878 -0.0776 -0.7735 -2.2499
19442TIP3    H279742   0.210   3.784   3.934  0.6536 -2.0425  1.0392
19443TIP3   OH279743   1.309   2.093   5.022  0.0708 -0.3641  0.4985
19443TIP3    H179744   1.280   2.091   4.931  0.3252 -3.0970  0.4342
19443TIP3    H279745   1.230   2.073   5.072  0.5107 -1.7176  0.6788
19444TIP3   OH279746   4.196   6.416  12.807  0.4160  0.0902 -0.5128
19444TIP3    H179747   4.288   6.393  12.820  0.7292  1.3196 -0.5173
19444TIP3    H279748   4.192   6.509  12.828 -1.0998 -0.2542  0.8038
19445TIP3   OH279749   2.576   6.275  12.557 -0.1353  0.7891 -0.5012
19445TIP3    H179750   2.549   6.250  12.645 -0.4390 -0.7007 -0.9975
19445TIP3    H279751   2.664   6.239  12.547 -0.1306  0.8850 -0.8205
19446TIP3   OH279752   6.395   2.193  16.948 -0.3555  0.3877  0.4108
19446TIP3    H179753   6.426   2.272  16.902 -1.1535  0.2923 -0.3089
19446TIP3    H279754   6.426   2.120  16.893  1.4054  0.1389  1.6997
19447TIP3   OH279755   2.963   6.608   1.142  0.0400 -0.2596 -1.0036
19447TIP3    H179756   3.051   6.578   1.161  0.8114  1.2924 -1.9760
19447TIP3    H279757   2.907   6.558   1.201  1.7920  0.4652  1.3597
19448TIP3   OH279758   3.988   5.475  10.768 -0.5600 -0.8783 -0.0944
19448TIP3    H179759   3.898   5.444  10.784 -1.0981 -0.1888 -1.6496
19448TIP3    H279760   3.981   5.527  10.689  1.1975 -0.6286 -0.0991
19449TIP3   OH279761   5.354   0.531   4.386  0.3146 -0.4304  0.4466
19449TIP3    H179762   5.391   0.533   4.298  0.4110  2.5012  0.5037
19449TIP3    H279763   5.276   0.475   4.378 -0.1144  0.4344 -1.6860
19450TIP3   OH279764   1.142   3.886  12.126 -0.3568  0.0878 -0.2904
19450TIP3    H179765   1.083   3.961  12.117 -0.9569 -0.3285  0.1331
19450TIP3    H279766   1.216   3.907  12.070 -0.3081  1.2184  0.1940
19451TIP3   OH279767   4.862   4.470  15.687  0.3742  0.1926 -0.6536
19451TIP3    H179768   4.841   4.427  15.770  0.7091  0.8973 -0.2040
19451TIP3    H279769   4.777   4.489  15.647  0.1698  1.5112  0.3763
19452TIP3   OH279770   3.811   0.099   4.377  0.2264 -0.0409  0.5003
19452TIP3    H179771   3.882   0.155   4.344 -0.9137  0.9363 -0.3431
19452TIP3    H279772   3.854   0.017   4.400  1.7070  0.6940  0.4267
19453TIP3   OH279773   3.110   0.840  11.041  0.4440  0.1881 -0.5104
19453TIP3    H179774   3.038   0.901  11.054 -0.1972 -0.2285 -1.9845
19453TIP3    H279775   3.074   0.755  11.067  1.1753  0.3354  1.0555
19454TIP3   OH279776   4.192   5.890  13.275 -0.0452  0.0767  0.4978
19454TIP3    H179777   4.193   5.847  13.361  1.3194 -1.1919 -0.1269
19454TIP3    H279778   4.219   5.980  13.292  0.0955 -0.1392  1.4211
19455TIP3   OH279779   0.571   5.474  14.385  0.7052  0.4351  0.0234
19455TIP3    H179780   0.487   5.439  14.354  0.2890  0.8894  0.6099
19455TIP3    H279781   0.634   5.448  14.318 -0.5860  3.4409 -2.5299
19456TIP3   OH279782   3.783   2.772  16.231  0.3893  0.0195 -0.5128
19456TIP3    H179783   3.764   2.863  16.253 -2.0021 -0.7535  0.9375
19456TIP3    H279784   3.771   2.767  16.136  1.5621  1.4232 -0.7485
19457TIP3   OH279785   4.299   6.688   3.112  0.4081 -0.3890  0.0605
19457TIP3    H179786   4.353   6.610   3.107  0.6623 -0.2763  0.8715
19457TIP3    H279787   4.320   6.738   3.033  1.0985 -0.5935  0.1160
19458TIP3   OH279788   1.728   2.988  11.900  0.2130  0.1026  0.3120
19458TIP3    H179789   1.693   3.023  11.983 -0.0996 -0.0242  0.2317
19458TIP3    H279790   1.823   2.986  11.914  0.1446 -0.1762  0.7707
19459TIP3   OH279791   6.498   6.442   0.778 -0.2401  0.7292 -0.0487
19459TIP3    H179792   6.533   6.419   0.864  1.2792  0.4584 -0.7276
19459TIP3    H279793   6.429   6.377   0.762 -0.4470  0.7086  0.9084
19460TIP3   OH279794   0.225   0.662   1.730 -0.3772 -0.0650  0.3539
19460TIP3    H179795   0.307   0.652   1.778  1.1596  1.0963 -1.9086
19460TIP3    H279796   0.242   0.619   1.646 -2.1478  0.0380 -0.0659
19461TIP3   OH279797   5.751   1.585  14.740 -0.0164  0.5805 -0.0316
19461TIP3    H179798   5.672   1.536  14.719  1.4364 -1.8461  0.0665
19461TIP3    H279799   5.750   1.658  14.678 -2.1606  0.4339 -0.2318
19462TIP3   OH279800   3.049   1.440  16.298  0.3433  0.5520  0.0964
19462TIP3    H179801   3.002   1.514  16.337 -2.8359 -1.5211  0.3645
19462TIP3    H279802   3.027   1.445  16.205  2.2138  1.3784 -0.3274
19463TIP3   OH279803   5.579   1.190  11.559  0.2816 -0.3914 -0.5430
19463TIP3    H179804   5.546   1.111  11.603  2.6877 -1.1836 -0.0847
19463TIP3    H279805   5.647   1.157  11.500  0.3951  1.2152 -1.3278
19464TIP3   OH279806   3.683   4.506   5.083 -0.3502 -0.2076  0.0067
19464TIP3    H179807   3.613   4.454   5.122 -0.0418 -1.5198 -1.1274
19464TIP3    H279808   3.666   4.595   5.112 -3.1314 -0.3019 -1.1337
19465TIP3   OH279809   6.322   3.255   0.514  0.1771 -0.1476  0.1246
19465TIP3    H179810   6.234   3.252   0.552  0.6327 -0.2047  1.2045
19465TIP3    H279811   6.307   3.271   0.421 -0.9282  1.3121  0.5238
19466TIP3   OH279812   3.140   1.617   4.759  0.4740  0.2162 -0.2269
19466TIP3    H179813   3.196   1.692   4.778  0.0529  0.7868 -1.1871
19466TIP3    H279814   3.129   1.619   4.664 -0.0530 -0.6892 -0.1871
19467TIP3   OH279815   0.289   1.415   5.148  0.4259  0.2531 -0.0371
19467TIP3    H179816   0.228   1.470   5.197  0.4811  0.3264 -0.0509
19467TIP3    H279817   0.301   1.460   5.065  0.0688 -0.0447 -0.2515
19468TIP3   OH279818   3.277   6.739  14.224 -0.0557  0.0966 -0.1806
19468TIP3    H179819   3.230   6.811  14.264 -0.1460 -0.9920  1.7523
19468TIP3    H279820   3.336   6.780  14.160 -1.5598  1.6759 -0.5767
19469TIP3   OH279821   4.183   0.759   5.166 -0.4389 -0.4222 -0.0325
19469TIP3    H179822   4.260   0.816   5.164 -0.5155 -0.3481 -1.2821
19469TIP3    H279823   4.158   0.756   5.258  1.4475 -0.9872  0.4815
19470TIP3   OH279824   0.134   3.233   4.899  0.5568  0.6804  0.5715
19470TIP3    H179825   0.169   3.270   4.980  2.0400  2.4081 -0.8041
19470TIP3    H279826   0.044   3.267   4.894  0.8702  1.5630  0.8820
19471TIP3   OH279827   0.001   4.700  15.762  0.0968 -0.0610  0.1321
19471TIP3    H179828  -0.069   4.661  15.710 -1.7775 -0.7434  3.0475
19471TIP3    H279829  -0.000   4.793  15.738 -1.6248 -0.1225 -0.0916
19472TIP3   OH279830   4.248   2.819  15.770 -0.5174  0.3453 -0.3706
19472TIP3    H179831   4.181   2.804  15.704 -1.3956  1.5714  0.2265
19472TIP3    H279832   4.223   2.902  15.811 -1.1704 -1.4017  2.9357
19473TIP3   OH279833   3.891   2.922   4.827  0.6146 -0.2857 -0.6781
19473TIP3    H179834   3.838   2.956   4.755  1.5834  1.6099 -0.5442
19473TIP3    H279835   3.975   2.967   4.818  0.8263 -0.1919  1.4914
19474TIP3   OH279836   4.643   6.421   3.350  0.3517  0.0686  0.0357
19474TIP3    H179837   4.705   6.412   3.278 -0.1260 -0.4251 -0.3202
19474TIP3    H279838   4.614   6.332   3.368  0.5128  0.1832  0.8851
19475TIP3   OH279839   1.824   4.264   5.325  0.0463  0.5052 -0.0356
19475TIP3    H179840   1.883   4.335   5.298 -0.2403  0.8228  0.1816
19475TIP3    H279841   1.767   4.303   5.390 -0.6528  0.2944 -0.5156
19476TIP3   OH279842   3.713   1.456  14.119 -0.1351 -0.1254 -0.8637
19476TIP3    H179843   3.657   1.436  14.044 -0.2527 -2.1052 -0.2874
19476TIP3    H279844   3.801   1.430  14.092  0.2629  1.5100 -1.1980
19477TIP3   OH279845   5.186   1.013  11.325  0.0927  0.4730  0.2435
19477TIP3    H179846   5.162   0.997  11.233 -1.0154 -1.2272  0.8141
19477TIP3    H279847   5.165   0.931  11.370  0.7690  1.2476  1.9970
19478TIP3   OH279848   3.880   6.525  15.075  0.3474 -0.1508  0.4062
19478TIP3    H179849   3.923   6.533  15.160 -0.8926  0.4469  0.9984
19478TIP3    H279850   3.796   6.570  15.087 -0.4372 -1.2978 -0.7094
19479TIP3   OH279851   4.829   3.362  12.953 -0.0791  0.2066 -0.6435
19479TIP3    H179852   4.918   3.329  12.966 -1.1233 -2.6572 -0.4172
19479TIP3    H279853   4.790   3.359  13.040 -0.6380  0.7628 -0.8739
19480TIP3   OH279854   2.449   3.724  12.530 -0.5799  0.3226 -0.5626
19480TIP3    H179855   2.526   3.776  12.553 -0.6175 -0.6392  1.9042
19480TIP3    H279856   2.484   3.640  12.500 -0.6028  0.6710 -1.5604
19481TIP3   OH279857   3.854   6.181  15.165 -0.0821  0.2418 -0.0026
19481TIP3    H179858   3.947   6.186  15.145 -0.1963  3.5159  0.0154
19481TIP3    H279859   3.849   6.131  15.246  1.6444 -0.1835 -0.1563
19482TIP3   OH279860   0.919   5.792  17.107  0.2324  0.5648  0.4183
19482TIP3    H179861   0.909   5.697  17.116 -0.3707  0.6120  0.3072
19482TIP3    H279862   0.837   5.827  17.143  1.4706  1.1638  2.7701
19483TIP3   OH279863   3.719   1.150  12.425 -0.2801  0.5078 -0.6413
19483TIP3    H179864   3.698   1.066  12.465  1.5148  1.0149  1.4149
19483TIP3    H279865   3.779   1.128  12.354 -0.1694  0.0144 -0.3997
19484TIP3   OH279866   5.949   2.046  11.359 -0.2620 -0.3214  0.0789
19484TIP3    H179867   5.864   2.002  11.370 -0.1364 -0.2454  1.4451
19484TIP3    H279868   5.937   2.103  11.283 -1.5397 -0.0675  0.4619
19485TIP3   OH279869   1.955   1.929  13.759  0.2411 -0.8665  0.2829
19485TIP3    H179870   1.990   2.017  13.772  0.5645 -0.6393 -1.8323
19485TIP3    H279871   1.976   1.882  13.840  0.5088  0.8503  1.2357
19486TIP3   OH279872   1.128   6.266   2.297 -0.2610  0.4539 -0.3026
19486TIP3    H179873   1.202   6.281   2.238  0.3500  0.5585  0.4789
19486TIP3    H279874   1.057   6.319   2.261 -0.2618 -0.4377 -1.6359
19487TIP3   OH279875   3.165   3.559  15.645  0.0678  0.4585  0.1838
19487TIP3    H179876   3.121   3.605  15.574 -0.2966 -1.5990 -0.9449
19487TIP3    H279877   3.101   3.496  15.678  1.8293 -2.0309 -0.9643
19488TIP3   OH279878   0.975   5.549  14.257 -0.7556  0.5387 -0.1310
19488TIP3    H179879   0.923   5.470  14.238 -0.4181  0.1724  0.4541
19488TIP3    H279880   0.973   5.599  14.176 -1.7923  0.3888 -0.2092
19489TIP3   OH279881   1.568   5.756  15.032 -0.5725 -0.2214 -0.2743
19489TIP3    H179882   1.581   5.661  15.028 -2.0355 -0.3967 -1.3122
19489TIP3    H279883   1.504   5.769  15.102  0.8019  0.1523  0.9384
19490TIP3   OH279884   2.303   4.968   2.995  0.0003 -0.4030 -0.1228
19490TIP3    H179885   2.327   5.057   3.021 -0.2776 -0.7949  1.4958
19490TIP3    H279886   2.320   4.915   3.072  1.6535 -2.0313 -1.5567
19491TIP3   OH279887   3.456   6.579  13.332  0.3901  0.3176  0.4395
19491TIP3    H179888   3.460   6.501  13.276 -0.0442 -0.2672  1.2186
19491TIP3    H279889   3.433   6.650  13.272  0.5120 -0.1991 -0.2287
19492TIP3   OH279890   4.067   6.246   2.650 -0.2494  0.1329 -0.1302
19492TIP3    H179891   4.159   6.259   2.626 -0.0229  0.0610  0.6799
19492TIP3    H279892   4.051   6.309   2.719 -0.1111 -1.4775  1.4150
19493TIP3   OH279893   6.358   6.492   3.065 -0.0097 -0.0923 -0.5811
19493TIP3    H179894   6.372   6.399   3.082  0.5034  0.3640  1.6113
19493TIP3    H279895   6.287   6.517   3.123 -0.4063  0.8259 -1.4363
19494TIP3   OH279896   6.218   0.694   2.794 -0.2412 -0.5442  0.1335
19494TIP3    H179897   6.257   0.670   2.878  1.5976 -1.8727 -1.0650
19494TIP3    H279898   6.291   0.693   2.732 -1.3483  1.5850 -1.2772
19495TIP3   OH279899   1.819   0.964  14.112 -0.6012  0.1104  0.1466
19495TIP3    H179900   1.793   0.941  14.201  1.2000 -0.9119  0.4506
19495TIP3    H279901   1.856   1.052  14.119 -1.3231  0.4041  0.2409
19496TIP3   OH279902   2.051   4.023   0.858 -0.0435 -0.1362 -0.0471
19496TIP3    H179903   2.124   4.033   0.919  0.1612  1.2123 -0.4932
19496TIP3    H279904   1.997   3.955   0.897  1.7520 -1.5829 -0.0188
19497TIP3   OH279905   4.348   3.211  12.289  0.8858  0.2779  0.4830
19497TIP3    H179906   4.279   3.145  12.295 -1.2890  2.3343 -1.1046
19497TIP3    H279907   4.406   3.180  12.219  0.4562 -0.4366  0.4420
19498TIP3   OH279908   0.559   3.169  12.299 -0.3039  0.3026 -0.5610
19498TIP3    H179909   0.519   3.147  12.383  1.1731  0.1423  0.1171
19498TIP3    H279910   0.531   3.100  12.240  1.2183 -1.3340  0.5995
19499TIP3   OH279911   3.469   4.263   3.703 -0.2113  0.2115  0.5050
19499TIP3    H179912   3.458   4.169   3.685 -0.5935  0.3380  0.0802
19499TIP3    H279913   3.553   4.285   3.663 -0.5980  0.2723 -0.2889
19500TIP3   OH279914   4.619   6.418   0.812 -1.0587 -0.2370 -0.0456
19500TIP3    H179915   4.555   6.473   0.856 -0.2299  1.0736 -0.4583
19500TIP3    H279916   4.695   6.419   0.870 -1.2531 -1.4869  0.2607
19501TIP3   OH279917   0.629   0.390  13.339 -0.1746  0.3035 -0.5136
19501TIP3    H179918   0.632   0.485  13.330  0.0640  0.2308 -1.2100
19501TIP3    H279919   0.550   0.374  13.390  0.7141  0.9836  1.1733
19502TIP3   OH279920   5.823   4.753   0.271  0.6471  0.6158  0.0764
19502TIP3    H179921   5.810   4.659   0.260 -0.0659  0.6413  0.6534
19502TIP3    H279922   5.905   4.772   0.225  0.2556 -0.1033 -0.9301
19503TIP3   OH279923   6.010   0.606  14.752 -0.3817  0.0923  0.4063
19503TIP3    H179924   6.100   0.619  14.723 -1.1077  0.2389 -1.8475
19503TIP3    H279925   5.959   0.670  14.702 -1.9330 -1.0054  0.5425
19504TIP3   OH279926   0.839   6.351   2.135  0.1118 -0.1855  0.1254
19504TIP3    H179927   0.838   6.256   2.142 -1.1499 -0.4218 -2.5757
19504TIP3    H279928   0.759   6.380   2.179 -0.8262 -0.5920 -1.2829
19505TIP3   OH279929   2.936   3.481   5.600  0.6675 -0.4343 -0.2426
19505TIP3    H179930   2.995   3.496   5.527  0.6133 -0.8628 -0.3771
19505TIP3    H279931   2.860   3.436   5.562 -0.3127  1.2164 -0.2851
19506TIP3   OH279932   4.720   4.457  13.913  0.2183 -0.2987 -0.1555
19506TIP3    H179933   4.767   4.537  13.938 -1.6957  1.4372 -1.8518
19506TIP3    H279934   4.637   4.462  13.961 -0.6248 -0.3810 -1.5799
19507TIP3   OH279935   1.370   3.400   2.636  0.2740 -0.5132 -0.5417
19507TIP3    H179936   1.341   3.401   2.546 -1.5805  0.4361  0.0605
19507TIP3    H279937   1.437   3.468   2.641  0.2863 -0.4800 -1.1488
19508TIP3   OH279938   4.121   2.322  16.591  0.3828  0.1742 -0.4018
19508TIP3    H179939   4.170   2.399  16.620 -0.3351  0.8911 -1.0737
19508TIP3    H279940   4.029   2.348  16.597  0.1631 -0.3648 -1.3692
19509TIP3   OH279941   0.215   4.506   5.556  0.0718 -0.0684  0.0680
19509TIP3    H179942   0.204   4.510   5.461  0.1834 -0.3212  0.0447
19509TIP3    H279943   0.297   4.552   5.572 -1.0067  1.8762  0.2454
19510TIP3   OH279944   2.511   2.966  12.394 -0.1480 -0.2356  0.1525
19510TIP3    H179945   2.483   2.883  12.356  0.8319 -0.4485 -0.1186
19510TIP3    H279946   2.560   2.941  12.473  1.0070  0.0199 -0.4675
19511TIP3   OH279947   3.436   5.400  11.848 -0.6509 -0.8506 -0.1171
19511TIP3    H179948   3.456   5.353  11.929  0.5485  1.7474  1.1769
19511TIP3    H279949   3.473   5.346  11.778  0.7778 -1.7615  1.3141
19512TIP3   OH279950   0.128   5.229  12.306 -0.0008 -0.1665  0.4800
19512TIP3    H179951   0.095   5.182  12.383  1.1357  1.6618  2.1171
19512TIP3    H279952   0.132   5.320  12.333  1.1805  0.3947 -1.4941
19513TIP3   OH279953   3.971   6.380   5.528 -0.5836 -0.0319 -0.0992
19513TIP3    H179954   3.923   6.462   5.517  0.5416  0.7967  0.9581
19513TIP3    H279955   4.034   6.379   5.457 -0.3247  0.2253  0.1259
19514TIP3   OH279956   2.095   5.015  10.575 -0.4253  0.0709 -0.4698
19514TIP3    H179957   2.088   5.004  10.480 -1.1797 -2.6448 -0.1537
19514TIP3    H279958   2.005   5.000  10.607 -0.1911  1.0127  0.6641
19515TIP3   OH279959   3.756   0.671  11.760 -0.3058 -0.0776 -0.0713
19515TIP3    H179960   3.742   0.615  11.683 -2.6063 -2.5932  2.0870
19515TIP3    H279961   3.844   0.650  11.790 -0.5838 -1.4452 -0.1831
19516TIP3   OH279962   5.927   2.544  14.327  0.0406  0.5807  0.0567
19516TIP3    H179963   5.849   2.547  14.382  0.1483  0.3286  0.2266
19516TIP3    H279964   5.896   2.516  14.242 -0.1295  0.9843 -0.0168
19517TIP3   OH279965   3.849   5.203  11.496  0.7589 -0.1038 -0.1736
19517TIP3    H179966   3.842   5.109  11.484 -2.9296 -0.1975  1.8621
19517TIP3    H279967   3.808   5.241  11.418 -1.0654 -0.2830  0.6775
19518TIP3   OH279968   0.294   3.736   2.217 -0.0779 -0.2830 -0.4193
19518TIP3    H179969   0.260   3.821   2.246  0.9075 -0.2013  0.5242
19518TIP3    H279970   0.386   3.736   2.244  0.0636 -1.4541 -0.8616
19519TIP3   OH279971   1.864   2.349   6.425 -0.3203 -0.0965 -0.1821
19519TIP3    H179972   1.824   2.406   6.359 -0.2503 -0.4164 -0.5038
19519TIP3    H279973   1.899   2.409   6.491 -0.2678  0.2330 -0.5098
19520TIP3   OH279974   1.579   4.371  15.829  0.5898  0.5928 -0.0719
19520TIP3    H179975   1.598   4.366  15.735 -0.9522 -0.6450 -0.3466
19520TIP3    H279976   1.515   4.441  15.836 -0.9595 -0.7653 -0.2637
19521TIP3   OH279977   4.094   1.562   3.009 -0.1055  0.8461 -0.1927
19521TIP3    H179978   4.046   1.624   3.064 -0.1949  0.4692  0.1590
19521TIP3    H279979   4.144   1.617   2.949  1.5254  1.3284  1.5482
19522TIP3   OH279980   2.573   6.037  13.903 -0.1836 -0.1031 -0.2521
19522TIP3    H179981   2.578   6.132  13.896 -1.2294  0.1438  1.7929
19522TIP3    H279982   2.642   6.004  13.845  0.9302  1.9307 -0.1075
19523TIP3   OH279983   0.019   0.431   1.684  0.6035  0.0252  0.3766
19523TIP3    H179984  -0.076   0.444   1.691  0.7997  1.1420  1.0646
19523TIP3    H279985   0.042   0.470   1.599  0.3915 -0.6336  0.0103
19524TIP3   OH279986   5.386   3.502   1.624  0.0083  0.3650  0.2817
19524TIP3    H179987   5.372   3.481   1.716  2.7514 -0.3377  0.5597
19524TIP3    H279988   5.481   3.498   1.612 -0.1002  2.9430 -1.9821
19525TIP3   OH279989   3.741   1.419   1.883 -0.5145 -0.0847  0.3904
19525TIP3    H179990   3.799   1.477   1.834  3.3814 -0.4548  4.2407
19525TIP3    H279991   3.746   1.335   1.837  2.5594 -0.2447  0.8914
19526TIP3   OH279992   5.900   6.689   5.428 -0.0743  0.2333 -0.0324
19526TIP3    H179993   5.818   6.737   5.413 -0.5340 -0.3663  0.5296
19526TIP3    H279994   5.936   6.676   5.340  0.8344  2.9436 -0.0781
19527TIP3   OH279995   4.368   3.979   2.239  0.6363  0.0347  0.3026
19527TIP3    H179996   4.419   3.914   2.191  1.4732  0.4731  0.5893
19527TIP3    H279997   4.400   4.064   2.207  0.1151  0.3137  0.5138
19528TIP3   OH279998   0.247   1.717   5.964 -0.0199 -0.6618 -0.5945
19528TIP3    H179999   0.311   1.683   5.902 -0.4850 -0.9720 -0.8993
19528TIP3    H280000   0.172   1.744   5.910  0.1228  0.3439 -0.3108
19529TIP3   OH280001   2.077   1.411  16.628  0.0763  0.1905 -0.1593
19529TIP3    H180002   2.117   1.482  16.679 -0.3095  0.8517 -0.7643
19529TIP3    H280003   2.130   1.407  16.548 -1.2045  1.2477 -1.0871
19530TIP3   OH280004   5.118   4.768   3.546  0.0685  0.0320 -0.1611
19530TIP3    H180005   5.140   4.853   3.508 -0.6665  1.1301  1.8166
19530TIP3    H280006   5.199   4.739   3.589  0.5611 -0.6739 -1.5332
19531TIP3   OH280007   4.559   6.263   2.872  0.2048 -0.2010  0.2916
19531TIP3    H180008   4.473   6.298   2.895  0.3791  0.4364 -0.0086
19531TIP3    H280009   4.563   6.178   2.915 -0.0353  0.3662  1.4466
19532TIP3   OH280010   3.881   3.058  14.901 -0.5699  0.2979  0.0067
19532TIP3    H180011   3.941   2.988  14.876 -1.6083 -0.5391 -0.2208
19532TIP3    H280012   3.901   3.131  14.843  1.0993  0.4978  0.8097
19533TIP3   OH280013   2.961   2.832   3.544 -0.0370 -0.3884  0.2503
19533TIP3    H180014   2.881   2.804   3.588 -0.4643  0.4239  0.0124
19533TIP3    H280015   3.032   2.807   3.604 -0.5397 -0.2047  0.9294
19534TIP3   OH280016   5.109   3.770   4.366  0.2442 -0.3397 -0.0682
19534TIP3    H180017   5.056   3.719   4.428  1.8572 -1.4803  0.4186
19534TIP3    H280018   5.047   3.803   4.302 -1.1543 -1.0091  0.9258
19535TIP3   OH280019   4.901   4.086  13.650  0.8243  0.0353  0.1545
19535TIP3    H180020   4.845   4.120  13.581  0.6863  1.1706  0.8107
19535TIP3    H280021   4.911   3.993  13.630 -0.4155  0.0533 -0.5626
19536TIP3   OH280022   1.028   1.293   2.848  0.2110 -0.0031  0.5840
19536TIP3    H180023   1.019   1.373   2.899  1.2678  0.1178  0.5927
19536TIP3    H280024   1.063   1.322   2.764 -3.4378  0.0558 -0.9946
19537TIP3   OH280025   1.448   1.705   4.482  0.5847  0.3303  0.1051
19537TIP3    H180026   1.356   1.718   4.507  0.5725  0.2038  0.1274
19537TIP3    H280027   1.453   1.735   4.392  0.9607  2.2142  0.7280
19538TIP3   OH280028   2.414   3.077   3.934  0.1612  0.0082 -0.5905
19538TIP3    H180029   2.448   3.165   3.916 -0.0037  0.0143 -0.8737
19538TIP3    H280030   2.453   3.021   3.867 -1.4402  0.2572 -1.7697
19539TIP3   OH280031   4.752   5.362  16.486 -0.0244 -0.1861 -0.5332
19539TIP3    H180032   4.742   5.267  16.495 -1.8905 -0.1530 -1.9074
19539TIP3    H280033   4.714   5.397  16.567  0.9597 -0.6163  0.1240
19540TIP3   OH280034   2.948   0.964   0.849  0.2128  0.2197  0.2033
19540TIP3    H180035   2.997   0.914   0.915 -0.7368 -1.7303 -0.5418
19540TIP3    H280036   3.016   1.000   0.792  0.8784 -1.2605  0.0226
19541TIP3   OH280037   1.928   1.400  13.430 -0.4682  0.3012  0.4334
19541TIP3    H180038   2.011   1.442  13.449 -0.2149  0.5008 -1.0108
19541TIP3    H280039   1.878   1.406  13.511  0.0225  2.3003  0.6010
19542TIP3   OH280040   3.509   0.028  12.424  0.4880  0.0699 -0.2052
19542TIP3    H180041   3.477   0.033  12.514  0.5271 -0.1021 -0.1808
19542TIP3    H280042   3.501  -0.064  12.401 -2.4554  0.5921 -1.4637
19543TIP3   OH280043   0.252   1.064  13.949 -0.3047  0.4150  0.2870
19543TIP3    H180044   0.339   1.030  13.969 -0.1476  2.1273  2.6757
19543TIP3    H280045   0.197   0.986  13.943  1.4622 -0.7266 -1.8651
19544TIP3   OH280046   4.495   6.067   2.529 -0.2263  0.2914  0.5962
19544TIP3    H180047   4.580   6.029   2.507  0.7446  1.8020  1.5799
19544TIP3    H280048   4.514   6.160   2.543 -2.3584  0.9645 -0.8537
19545TIP3   OH280049   2.116   2.462   4.471 -0.1089 -0.0418  1.0924
19545TIP3    H180050   2.119   2.369   4.453 -0.9056 -0.0225  0.8387
19545TIP3    H280051   2.067   2.500   4.398 -1.2687  0.3442  2.0367
19546TIP3   OH280052   0.499   3.324  14.056 -0.2352  0.0445  0.6756
19546TIP3    H180053   0.452   3.399  14.093 -0.8399  0.5013 -0.9855
19546TIP3    H280054   0.533   3.355  13.973  1.9691 -0.6748  1.2610
19547TIP3   OH280055   2.097   3.454   5.443 -0.2790 -0.5219  0.7082
19547TIP3    H180056   2.133   3.395   5.510  0.2467 -2.0083 -0.8396
19547TIP3    H280057   2.173   3.505   5.413 -0.1925 -0.9808  0.1329
19548TIP3   OH280058   5.365   0.450  12.086 -0.2227  0.1748  0.1621
19548TIP3    H180059   5.449   0.480  12.051 -0.3508  1.1517  0.6810
19548TIP3    H280060   5.300   0.505  12.042 -0.4959  0.3355  0.7740
19549TIP3   OH280061   3.630   5.559   4.029  0.0779 -0.2873 -0.3644
19549TIP3    H180062   3.695   5.629   4.020 -0.5558  0.4041  0.4343
19549TIP3    H280063   3.618   5.526   3.940  0.8387  0.1996 -0.6511
19550TIP3   OH280064   0.742   1.575   4.298 -0.0157  0.4115  0.1249
19550TIP3    H180065   0.700   1.489   4.294  0.3839  0.1392  1.5619
19550TIP3    H280066   0.671   1.635   4.321 -0.1623  0.3813 -0.2351
19551TIP3   OH280067   4.368   3.045   1.734  0.4078 -0.0030  0.0743
19551TIP3    H180068   4.403   3.035   1.646 -0.9126 -0.8171 -0.3745
19551TIP3    H280069   4.404   3.128   1.765 -0.0516  0.8835 -1.6902
19552TIP3   OH280070   3.897   2.822  11.886  0.1826 -0.4706 -0.1889
19552TIP3    H180071   3.985   2.849  11.913 -0.2122  2.6052 -1.7883
19552TIP3    H280072   3.901   2.820  11.790 -1.4630 -0.3924 -0.2775
19553TIP3   OH280073   4.365   5.239  11.718  0.3782  0.4517  0.1689
19553TIP3    H180074   4.384   5.277  11.804 -0.4514 -0.7184  0.8783
19553TIP3    H280075   4.270   5.230  11.715  0.4252  0.1518 -0.7428
19554TIP3   OH280076   5.039   3.539   4.830  0.2802 -0.0133 -0.3521
19554TIP3    H180077   5.050   3.453   4.870  2.1448  0.0439 -0.6726
19554TIP3    H280078   4.957   3.573   4.866 -1.5955 -2.7826 -1.8537
19555TIP3   OH280079   6.478   2.475   6.088  0.5032  0.0266 -0.2726
19555TIP3    H180080   6.477   2.447   6.179 -1.3835 -0.7405 -0.5049
19555TIP3    H280081   6.388   2.502   6.070  0.7224 -0.3913 -2.0734
19556TIP3   OH280082   0.653   4.523   0.238  0.1378 -0.1640  0.0404
19556TIP3    H180083   0.685   4.443   0.197  0.5340 -0.5602  1.0886
19556TIP3    H280084   0.648   4.502   0.332  0.1992  1.0176  0.3284
19557TIP3   OH280085   2.259   4.686  16.289 -0.1966  0.0594  0.0567
19557TIP3    H180086   2.343   4.658  16.252  0.9468  1.5701  1.4232
19557TIP3    H280087   2.210   4.721  16.215  0.9794  0.5577 -0.4989
19558TIP3   OH280088   5.852   1.044   1.473 -0.3463 -0.0441 -1.0332
19558TIP3    H180089   5.808   1.024   1.391  1.3371 -1.9766 -1.4943
19558TIP3    H280090   5.944   1.053   1.450 -0.0465  0.8652  0.4216
19559TIP3   OH280091   1.136   4.436  14.295  0.1512  0.5256  0.6483
19559TIP3    H180092   1.114   4.374  14.364  1.4558 -1.1395 -0.3883
19559TIP3    H280093   1.230   4.425  14.282 -0.2208  0.1305 -2.0266
19560TIP3   OH280094   2.023   4.990  12.632  0.2420 -0.2207 -0.0670
19560TIP3    H180095   1.989   4.959  12.716  1.1434 -1.0929 -0.0130
19560TIP3    H280096   2.118   4.990  12.643  0.3219  1.2614 -0.5392
19561TIP3   OH280097   4.828   3.799  10.392  0.1761 -0.5395 -0.1000
19561TIP3    H180098   4.743   3.834  10.364 -0.2925 -0.2477  1.6274
19561TIP3    H280099   4.811   3.705  10.406  0.0964 -0.4616  0.3485
19562TIP3   OH280100   2.048   1.127  15.864  0.0526 -0.2272 -0.7792
19562TIP3    H180101   2.062   1.051  15.920 -0.9951  0.3377  0.2665
19562TIP3    H280102   1.953   1.131  15.852  0.1563  0.5282 -1.3752
19563TIP3   OH280103   0.880   0.888  14.115 -0.0635 -0.0162  0.1966
19563TIP3    H180104   0.961   0.846  14.086  0.6964  1.3074  0.3608
19563TIP3    H280105   0.811   0.827  14.090  0.7264  0.1229 -2.5064
19564TIP3   OH280106   1.287   5.439   4.792 -0.3421 -0.0312  1.1263
19564TIP3    H180107   1.215   5.396   4.747 -0.6553 -0.7949  2.3441
19564TIP3    H280108   1.364   5.388   4.768 -0.3665  0.1408  0.6858
19565TIP3   OH280109   6.026   0.889   0.234 -0.5493 -0.0406 -0.7256
19565TIP3    H180110   6.065   0.809   0.198  0.8407  0.2345  0.1421
19565TIP3    H280111   6.016   0.947   0.159 -0.5576 -0.6389 -1.1858
19566TIP3   OH280112   2.924   4.768   2.430  0.4647  0.1889 -0.0421
19566TIP3    H180113   2.886   4.732   2.510  2.6754  0.7341  1.2826
19566TIP3    H280114   3.011   4.798   2.455  1.9780 -1.3774 -3.0834
19567TIP3   OH280115   0.708   2.342  13.612  0.3533 -0.3422 -0.3261
19567TIP3    H180116   0.620   2.322  13.643  0.7539 -1.8717 -0.1347
19567TIP3    H280117   0.751   2.384  13.686  0.2971 -1.0854  0.1295
19568TIP3   OH280118   3.534   5.631   4.578  0.2123 -0.2377  0.3485
19568TIP3    H180119   3.509   5.539   4.571  0.1975 -0.2126  0.0484
19568TIP3    H280120   3.474   5.676   4.520  2.9110 -0.5337 -2.8285
19569TIP3   OH280121   1.388   6.382   3.001  0.3128  0.6660 -0.3151
19569TIP3    H180122   1.365   6.430   2.922 -0.9607  1.8478  0.7483
19569TIP3    H280123   1.334   6.303   2.998 -1.0209  1.5548  0.2376
19570TIP3   OH280124   0.360   0.560  11.619 -0.7452  0.0876  0.1037
19570TIP3    H180125   0.362   0.606  11.703 -0.1194 -0.4153  0.3627
19570TIP3    H280126   0.452   0.546  11.597 -0.9334 -1.1162  0.0657
19571TIP3   OH280127   4.310   2.811   1.876 -0.3158  0.4344 -0.2966
19571TIP3    H180128   4.320   2.879   1.809  1.0492 -0.3659 -0.9272
19571TIP3    H280129   4.269   2.738   1.831  2.0640 -0.6975 -0.6928
19572TIP3   OH280130   4.921   6.707   5.692  0.8552 -0.0643  0.3166
19572TIP3    H180131   4.937   6.736   5.603 -0.3282 -0.9289 -0.1955
19572TIP3    H280132   4.826   6.700   5.699  0.8324  1.4528  2.1328
19573TIP3   OH280133   2.497   3.365   4.136 -0.2859 -0.5005 -0.1940
19573TIP3    H180134   2.436   3.430   4.169  1.0282  1.2490 -1.1555
19573TIP3    H280135   2.544   3.409   4.066  1.3612 -2.1552 -0.1673
19574TIP3   OH280136   4.955   0.383  16.129  0.1512  0.5400  0.3245
19574TIP3    H180137   5.048   0.396  16.111  0.1641  0.7565  0.5315
19574TIP3    H280138   4.913   0.392  16.043  0.4514 -0.9076  0.0107
19575TIP3   OH280139   5.668   4.144   3.149 -0.0102  0.5864 -0.0220
19575TIP3    H180140   5.734   4.213   3.143 -0.3672  1.0277  1.0160
19575TIP3    H280141   5.619   4.165   3.228 -0.0119 -0.9606  0.3967
19576TIP3   OH280142   1.467   5.362   5.474 -0.2304  0.0857  0.1311
19576TIP3    H180143   1.441   5.275   5.443 -0.0182 -0.0308  0.2760
19576TIP3    H280144   1.405   5.382   5.544 -0.4471  0.1669 -0.0840
19577TIP3   OH280145   2.338   3.176   3.646 -0.2009  0.5608  0.3371
19577TIP3    H180146   2.406   3.242   3.661  0.7670 -0.2326 -0.5127
19577TIP3    H280147   2.279   3.185   3.721  1.7555  0.1375  1.9783
19578TIP3   OH280148   2.500   1.268  11.158 -0.1966 -0.6597  0.0179
19578TIP3    H180149   2.584   1.257  11.115  0.5792 -0.5435  1.4573
19578TIP3    H280150   2.436   1.275  11.087  1.2251  1.1329 -1.1093
19579TIP3   OH280151   4.113   5.171  12.724 -0.5901 -0.7205 -0.3953
19579TIP3    H180152   4.041   5.125  12.681  0.1548 -2.7684  0.4459
19579TIP3    H280153   4.100   5.153  12.817  1.1451 -1.3400 -0.2495
19580TIP3   OH280154   2.396   1.171  16.545 -0.0352 -0.0763  0.2914
19580TIP3    H180155   2.392   1.104  16.476 -1.0621  0.6611 -0.3754
19580TIP3    H280156   2.456   1.237  16.510  0.9500 -0.6160  0.9346
19581TIP3   OH280157   5.545   2.871  17.060  0.4845 -0.0399 -0.0240
19581TIP3    H180158   5.620   2.841  17.111  0.2567 -1.2572 -0.4024
19581TIP3    H280159   5.581   2.888  16.972  0.3050 -0.6673 -0.2189
19582TIP3   OH280160   0.219   6.292  17.017  0.5137  0.3794 -0.6167
19582TIP3    H180161   0.149   6.242  17.060  2.3790 -0.4755  1.5333
19582TIP3    H280162   0.210   6.271  16.924 -0.1476 -2.1830 -0.0109
19583TIP3   OH280163   2.508   3.730  12.940  0.2569  0.3358 -0.5550
19583TIP3    H180164   2.592   3.711  12.898 -0.1669 -2.1502 -0.3588
19583TIP3    H280165   2.531   3.777  13.020  1.4672 -0.2683 -0.5413
19584TIP3   OH280166   3.098   1.327   1.629  0.0773 -0.2665  0.3469
19584TIP3    H180167   3.190   1.326   1.603 -0.0352  0.0961 -0.0746
19584TIP3    H280168   3.088   1.252   1.687  0.5483 -0.5388  0.0750
19585TIP3   OH280169   4.941   2.128   0.746 -0.6333  0.1608  0.3428
19585TIP3    H180170   4.868   2.084   0.790 -1.4106  0.8679 -0.2032
19585TIP3    H280171   4.963   2.201   0.803  0.8492 -1.0833  1.3916
19586TIP3   OH280172   1.502   2.429   0.524 -0.2148 -0.3313 -0.2582
19586TIP3    H180173   1.461   2.510   0.555  0.2122 -0.4556  0.6474
19586TIP3    H280174   1.480   2.425   0.431  2.0562  2.2641 -0.9630
19587TIP3   OH280175   4.024   5.121  12.974 -0.2580  0.0584  0.5957
19587TIP3    H180176   4.044   5.208  13.008  0.6508 -0.0437  0.3421
19587TIP3    H280177   3.929   5.119  12.967 -0.2828  1.0237  0.6058
19588TIP3   OH280178   4.859   1.142   2.179 -0.3182 -0.6675 -0.1559
19588TIP3    H180179   4.853   1.213   2.115  0.8137  0.3633  0.8619
19588TIP3    H280180   4.833   1.182   2.262 -2.7272 -2.2235 -0.0943
19589TIP3   OH280181   2.982   2.193   4.537  0.2736  0.1920 -0.3542
19589TIP3    H180182   2.990   2.158   4.448  0.6486 -0.4746 -0.0556
19589TIP3    H280183   3.021   2.280   4.531 -1.7995  1.0934 -1.4049
19590TIP3   OH280184   0.896   4.131   0.022  0.0559  0.8554  0.0799
19590TIP3    H180185   0.909   4.218  -0.017  0.9380  0.9068  0.4780
19590TIP3    H280186   0.805   4.109   0.002  0.7031  0.5292 -2.7124
19591TIP3   OH280187   5.624   5.099   4.645 -0.2356  0.4971 -0.4853
19591TIP3    H180188   5.568   5.050   4.585 -0.2717 -0.5891  0.4259
19591TIP3    H280189   5.564   5.142   4.706 -0.1500  0.7024 -0.5449
19592TIP3   OH280190   0.380   3.085  14.046  0.0831 -0.7928 -0.4438
19592TIP3    H180191   0.412   3.067  14.135  1.2304 -0.9517 -0.8766
19592TIP3    H280192   0.400   3.177  14.032  0.7957 -1.0117 -0.8910
19593TIP3   OH280193   6.022   4.453   3.677 -0.5333  0.1646  0.1596
19593TIP3    H180194   6.091   4.496   3.727  0.6514  1.0753 -2.1749
19593TIP3    H280195   6.057   4.447   3.588 -1.9704 -2.7812 -0.2593
19594TIP3   OH280196   2.586   2.126   0.046 -0.6367 -0.3017 -0.0953
19594TIP3    H180197   2.504   2.075   0.050  0.5250 -2.3190 -0.9503
19594TIP3    H280198   2.653   2.061   0.025  0.9849  1.5553 -0.7883
19595TIP3   OH280199   1.737   0.788  16.316 -0.3014 -0.0268  0.6291
19595TIP3    H180200   1.701   0.855  16.258  2.1193  0.2111 -0.6599
19595TIP3    H280201   1.739   0.830  16.402 -0.0840  1.0716  0.1006
19596TIP3   OH280202   5.966   0.541   2.043  1.0258 -0.0920 -0.0785
19596TIP3    H180203   6.010   0.475   2.097  0.2944 -0.8077 -0.3282
19596TIP3    H280204   5.900   0.579   2.101  0.9584 -0.0983 -0.1516
19597TIP3   OH280205   2.055   5.408   4.773  0.1463 -0.1046  0.0545
19597TIP3    H180206   1.960   5.395   4.771 -0.1661  2.1676 -0.8352
19597TIP3    H280207   2.073   5.437   4.863  0.2380 -2.0382  0.6853
19598TIP3   OH280208   0.588   5.571  11.195 -0.4790 -0.5904  0.3970
19598TIP3    H180209   0.639   5.535  11.123  2.0463 -0.2842  1.9749
19598TIP3    H280210   0.613   5.519  11.271 -0.5910  1.2201  1.7065
19599TIP3   OH280211   0.158   2.185  13.717  0.0195 -0.6484  0.2082
19599TIP3    H180212   0.079   2.201  13.770 -0.6163  0.4801 -1.0563
19599TIP3    H280213   0.125   2.146  13.636  0.7561 -0.2241 -0.3004
19600TIP3   OH280214   1.945   0.460   2.536  0.7144  0.3929 -0.0780
19600TIP3    H180215   1.901   0.375   2.525 -0.7933  0.8638  1.9955
19600TIP3    H280216   1.891   0.521   2.484  1.1461  0.2949 -0.6467
19601TIP3   OH280217   6.310   3.316  16.076 -0.1229 -0.2259  0.2773
19601TIP3    H180218   6.267   3.398  16.100 -3.3455 -1.1377 -1.9490
19601TIP3    H280219   6.305   3.263  16.156  0.0325  0.9719  1.0961
19602TIP3   OH280220   2.726   6.733  16.213  0.2399  0.3048  0.7602
19602TIP3    H180221   2.810   6.689  16.197 -0.1358 -0.1976  0.1190
19602TIP3    H280222   2.723   6.746  16.307  0.7367 -0.2907  0.8629
19603TIP3   OH280223   2.541   6.653   4.383  0.2629 -0.0489 -0.2616
19603TIP3    H180224   2.499   6.575   4.348 -0.8187  0.3743  0.0699
19603TIP3    H280225   2.605   6.678   4.316 -0.9049  0.0235 -1.3809
19604TIP3   OH280226   5.521   0.235  13.288  0.2681 -0.5229  0.0221
19604TIP3    H180227   5.579   0.187  13.347  0.2865 -2.4277 -1.4697
19604TIP3    H280228   5.566   0.233  13.204  0.7484  3.0541  0.1068
19605TIP3   OH280229   1.551   3.778   5.746  0.6316  0.2777  0.8080
19605TIP3    H180230   1.645   3.767   5.729  0.0057 -1.9513 -1.6141
19605TIP3    H280231   1.535   3.730   5.827  1.4669  0.1072  0.8732
19606TIP3   OH280232   6.683   5.089  14.401  0.0332  0.4519 -0.0702
19606TIP3    H180233   6.700   5.178  14.368  0.0955  0.4492 -0.0459
19606TIP3    H280234   6.770   5.056  14.424 -0.0220  0.4937  0.1977
19607TIP3   OH280235   6.718   2.812   0.073 -0.0868 -0.2934  0.0530
19607TIP3    H180236   6.630   2.791   0.042  0.6690 -1.4895 -1.3608
19607TIP3    H280237   6.748   2.731   0.115  0.5000 -0.0107  0.1816
19608TIP3   OH280238   3.707   3.489   0.999  0.3396 -0.2989 -0.9334
19608TIP3    H180239   3.645   3.541   0.947  1.7873  1.9312 -0.5127
19608TIP3    H280240   3.699   3.525   1.087  0.0733 -2.0420 -0.2363
19609TIP3   OH280241   6.642   5.311  12.053  0.0358  0.3512  0.3121
19609TIP3    H180242   6.663   5.399  12.023 -0.2180  0.1029 -0.6219
19609TIP3    H280243   6.587   5.324  12.130 -4.0007  1.0905 -2.5310
19610TIP3   OH280244   1.496   1.946   1.379  0.0199  0.2551  0.3760
19610TIP3    H180245   1.517   2.039   1.386 -0.1670  0.1904  1.7996
19610TIP3    H280246   1.527   1.921   1.291 -1.1344  1.9586 -0.5328
19611TIP3   OH280247   3.065   4.460  10.583 -0.3153 -0.5116 -0.2920
19611TIP3    H180248   2.987   4.483  10.531 -0.1843  0.0545 -0.2416
19611TIP3    H280249   3.107   4.391  10.532 -1.2658 -1.3696  0.0655
19612TIP3   OH280250   5.241   0.548  16.919 -0.2567 -0.1851  0.6969
19612TIP3    H180251   5.322   0.574  16.963 -0.1366 -0.3261  0.5617
19612TIP3    H280252   5.171   0.571  16.980 -0.1068 -0.1759  0.8647
19613TIP3   OH280253   0.107   3.021  14.539 -0.1115  0.0266  0.4045
19613TIP3    H180254   0.026   3.063  14.567 -0.7933 -0.1885 -1.2008
19613TIP3    H280255   0.156   3.090  14.494 -0.7069 -0.5508 -1.1765
19614TIP3   OH280256   1.701   2.589  14.959 -0.0763  0.0939  0.3075
19614TIP3    H180257   1.635   2.633  14.905 -1.0046 -1.5541  0.0464
19614TIP3    H280258   1.652   2.558  15.035  0.6047 -0.2308  0.6198
19615TIP3   OH280259   1.886   3.801   5.711 -0.3945  0.2465  0.2101
19615TIP3    H180260   1.893   3.881   5.660 -0.8703 -0.5337 -1.0975
19615TIP3    H280261   1.934   3.819   5.792  1.3853  1.0642 -1.0210
19616TIP3   OH280262   3.128   2.370  16.365  0.1143  0.0554 -0.0468
19616TIP3    H180263   3.052   2.318  16.390 -0.5706  0.6033 -0.9611
19616TIP3    H280264   3.196   2.344  16.426 -0.6197 -0.9263  0.3610
19617TIP3   OH280265   0.226   5.814   0.628  0.1165 -0.0705 -0.1994
19617TIP3    H180266   0.172   5.814   0.549 -0.5400  0.5986  0.2387
19617TIP3    H280267   0.177   5.868   0.690  0.9334 -0.0742  0.4538
19618TIP3   OH280268   5.541   2.535  13.080  0.1088 -0.0127  0.0724
19618TIP3    H180269   5.538   2.536  12.985 -1.5853 -0.6696  0.0951
19618TIP3    H280270   5.473   2.473  13.106  1.9888 -1.4968  1.6669
19619TIP3   OH280271   6.140   3.184   4.990  0.2448 -0.3505 -1.0297
19619TIP3    H180272   6.075   3.147   4.931 -0.1671 -0.7577 -0.3248
19619TIP3    H280273   6.145   3.122   5.063  1.7190 -0.5321 -1.2753
19620TIP3   OH280274   6.246   3.001  12.516  0.2754  0.1437  1.0707
19620TIP3    H180275   6.291   2.925  12.480 -1.6415 -0.4501 -0.1350
19620TIP3    H280276   6.316   3.065  12.532  1.6737 -1.1598  0.3183
19621TIP3   OH280277   3.157   0.906  13.545  0.4235  1.0497  0.2281
19621TIP3    H180278   3.087   0.855  13.585  1.0724 -0.9535 -1.1338
19621TIP3    H280279   3.113   0.962  13.481  0.1944 -1.4020 -1.8237
19622TIP3   OH280280   5.711   5.267  13.951 -0.7971 -0.1994  0.4670
19622TIP3    H180281   5.701   5.207  13.877 -0.7894 -0.1245  0.4058
19622TIP3    H280282   5.641   5.331  13.939 -1.3394 -0.6803  0.9853
19623TIP3   OH280283   3.770   2.544  10.308  0.1701  0.2803 -0.2227
19623TIP3    H180284   3.784   2.451  10.326  1.1571  0.3137 -0.7619
19623TIP3    H280285   3.677   2.550  10.284  0.1524 -0.6024 -0.3956
19624TIP3   OH280286   0.729   6.003   5.366 -0.3805 -0.2542 -0.4279
19624TIP3    H180287   0.727   5.969   5.276  1.5785  1.5223 -1.1877
19624TIP3    H280288   0.785   5.942   5.413 -1.0657 -0.9508 -0.4961
19625TIP3   OH280289   1.496   6.342   1.818 -0.8613  0.0831 -0.5198
19625TIP3    H180290   1.407   6.318   1.789 -1.7262  3.4616 -0.9340
19625TIP3    H280291   1.532   6.392   1.745  0.4739  0.7488  0.5682
19626TIP3   OH280292   1.789   0.333  16.156 -0.1702 -0.0413  0.6044
19626TIP3    H180293   1.761   0.332  16.065  2.3628 -0.4901 -0.2075
19626TIP3    H280294   1.739   0.404  16.196 -0.8553  0.5540 -1.2716
19627TIP3   OH280295   0.648   3.047  12.641 -0.5592  0.3088  0.3166
19627TIP3    H180296   0.697   3.090  12.711 -0.4676  3.3527 -1.5629
19627TIP3    H280297   0.716   3.014  12.582 -0.6886  2.5716 -1.1365
19628TIP3   OH280298   0.951   2.213  16.107 -0.2956 -0.1503  1.2146
19628TIP3    H180299   0.972   2.121  16.124  2.1762  0.2636  0.6732
19628TIP3    H280300   1.012   2.262  16.162 -0.0889  1.1504 -0.1447
19629TIP3   OH280301   3.451   1.647   4.728 -0.7016 -0.3528  0.5609
19629TIP3    H180302   3.513   1.687   4.789 -2.8583 -0.4335  2.8887
19629TIP3    H280303   3.420   1.569   4.774 -3.0943  0.1036 -0.2582
19630TIP3   OH280304   5.531   4.702   0.652  0.3202  0.2970 -0.1977
19630TIP3    H180305   5.453   4.658   0.687  1.3974  0.5907  2.6927
19630TIP3    H280306   5.584   4.631   0.615 -1.0861  0.0481 -1.8268
19631TIP3   OH280307   2.738   0.253   2.933  0.2318  0.0780 -0.1265
19631TIP3    H180308   2.685   0.325   2.965  0.9111 -0.0302  1.2614
19631TIP3    H280309   2.726   0.183   2.997  1.9938  0.0351  0.1903
19632TIP3   OH280310   2.118   4.987  15.566 -0.2346  0.3526  0.3067
19632TIP3    H180311   2.209   5.008  15.586 -0.2579  0.5716  0.1842
19632TIP3    H280312   2.088   4.933  15.640 -0.4677  1.5459  1.0885
19633TIP3   OH280313   6.287   3.229  16.797  0.2351  0.2016  0.3914
19633TIP3    H180314   6.353   3.216  16.864 -0.0845 -0.7182  0.5287
19633TIP3    H280315   6.254   3.141  16.777 -1.8312  0.7327  1.2316
19634TIP3   OH280316   1.650   6.018  11.306 -0.2676 -0.0860 -0.5018
19634TIP3    H180317   1.582   5.951  11.308  0.8936 -1.2668  1.9472
19634TIP3    H280318   1.610   6.094  11.348 -0.4900 -0.3499 -0.2325
19635TIP3   OH280319   1.938   4.195  14.128  0.2554  0.5413  0.1954
19635TIP3    H180320   2.013   4.152  14.169 -0.1492  0.3911  0.7928
19635TIP3    H280321   1.864   4.173  14.185 -0.2382  0.6979 -0.3788
19636TIP3   OH280322   3.170   4.050   4.220  0.0062  0.3641 -0.2422
19636TIP3    H180323   3.109   3.999   4.273 -0.7244 -0.9270 -2.2657
19636TIP3    H280324   3.200   4.120   4.279  1.0482 -2.3482  2.6076
19637TIP3   OH280325   5.203   2.113  16.837  0.3795  0.4758  0.6000
19637TIP3    H180326   5.254   2.082  16.763  0.1186 -0.0087  0.6249
19637TIP3    H280327   5.130   2.161  16.797 -0.4353 -0.8204  0.5084
19638TIP3   OH280328   0.644   5.285  13.743  0.2329  0.0453  0.2560
19638TIP3    H180329   0.657   5.216  13.808 -0.8860 -2.3697 -2.0119
19638TIP3    H280330   0.713   5.272  13.679 -0.1602  0.8464 -0.3437
19639TIP3   OH280331   6.457   6.689   1.518 -0.2114  0.0485 -0.0137
19639TIP3    H180332   6.476   6.780   1.544 -0.7339  0.1279  0.1061
19639TIP3    H280333   6.521   6.670   1.450 -0.5098  0.7241 -0.4907
19640TIP3   OH280334   6.250   2.623   5.995 -0.2226 -0.2741  0.1711
19640TIP3    H180335   6.247   2.718   5.981 -1.6568 -0.3740 -0.2625
19640TIP3    H280336   6.244   2.586   5.907  0.4543 -0.7683  0.3319
19641TIP3   OH280337   5.543   6.236  13.487 -0.1581  0.3299 -0.4143
19641TIP3    H180338   5.519   6.328  13.498 -2.3775  0.0194 -2.0644
19641TIP3    H280339   5.531   6.220  13.393  0.3923 -1.5815 -0.1788
19642TIP3   OH280340   5.911   5.880  15.647  0.1009  0.0796  0.0939
19642TIP3    H180341   5.925   5.894  15.553  0.9524  0.6942  0.3092
19642TIP3    H280342   5.816   5.885  15.658  0.0588  0.8722 -0.5999
19643TIP3   OH280343   6.424   3.369  15.009 -0.4844 -0.1836  0.0691
19643TIP3    H180344   6.344   3.417  14.986 -0.7007 -0.3823  0.4027
19643TIP3    H280345   6.428   3.374  15.105 -0.4474 -0.7368  0.0944
19644TIP3   OH280346   5.468   2.843  13.987 -0.0114  0.0275  0.0010
19644TIP3    H180347   5.407   2.834  14.060  0.9841  0.8627  0.9556
19644TIP3    H280348   5.505   2.756  13.975 -1.3092 -0.4638 -0.5238
19645TIP3   OH280349   6.544   1.552   5.379 -0.0915  0.1138  0.2546
19645TIP3    H180350   6.465   1.605   5.364  1.1041  2.1517  0.9673
19645TIP3    H280351   6.591   1.598   5.449  1.1238 -1.7771  0.7297
19646TIP3   OH280352   5.813   4.428  14.951  0.1741 -0.5188  0.4781
19646TIP3    H180353   5.811   4.456  15.043 -1.1759 -1.0400  0.6185
19646TIP3    H280354   5.721   4.426  14.924  0.3441 -2.8426 -0.1107
19647TIP3   OH280355   6.076   3.835  15.784  0.5415 -0.4470  0.5612
19647TIP3    H180356   6.030   3.894  15.844  1.0326  0.7961 -0.2678
19647TIP3    H280357   6.017   3.761  15.774 -1.3433  1.1330 -0.5150
19648TIP3   OH280358   1.848   3.745  12.847 -0.6634 -0.1757 -0.3998
19648TIP3    H180359   1.866   3.839  12.841  0.1431 -0.2691  0.4665
19648TIP3    H280360   1.934   3.703  12.838 -0.9535 -0.8023 -0.2654
19649TIP3   OH280361   5.560   1.584  16.140  0.3823 -0.3039 -0.2301
19649TIP3    H180362   5.586   1.663  16.091 -2.0081  0.9666  0.5036
19649TIP3    H280363   5.471   1.566  16.111 -0.2047 -0.9428  1.9122
19650TIP3   OH280364   3.018   5.638  14.396  0.0530 -0.0033 -0.4248
19650TIP3    H180365   2.938   5.590  14.377  0.2158  0.5153 -2.5955
19650TIP3    H280366   2.992   5.730  14.397  0.5690  0.1612 -1.0431
19651TIP3   OH280367   2.794   5.062   1.646  0.8659 -0.0937  0.5615
19651TIP3    H180368   2.815   5.112   1.567  2.2328  0.0691  1.0172
19651TIP3    H280369   2.762   4.978   1.613 -1.0209  0.9046 -0.1990
19652TIP3   OH280370   4.952   4.887   3.114  0.1958  0.0720 -0.2206
19652TIP3    H180371   4.974   4.896   3.022  0.1166 -0.1814 -0.2652
19652TIP3    H280372   4.970   4.973   3.152  0.5379  0.0835 -0.4075
19653TIP3   OH280373   4.814   4.248   0.916 -0.4534 -0.6011 -0.2260
19653TIP3    H180374   4.834   4.320   0.857 -1.4769 -0.1525 -0.0248
19653TIP3    H280375   4.719   4.237   0.911 -0.5493 -0.5674  1.3202
19654TIP3   OH280376   4.403   2.262  16.282  0.4461 -0.6281  0.3604
19654TIP3    H180377   4.471   2.330  16.273 -1.2762  1.4230  2.1001
19654TIP3    H280378   4.367   2.253  16.194  1.0050  0.4313  0.0050
19655TIP3   OH280379   0.536   5.429  11.585 -0.3841 -0.5263 -0.6004
19655TIP3    H180380   0.586   5.366  11.637  1.2569  1.2107 -0.0215
19655TIP3    H280381   0.600   5.469  11.526 -1.1900  1.2901 -0.2945
19656TIP3   OH280382   0.011   2.964  12.458  0.5488  0.0083  0.3253
19656TIP3    H180383   0.008   2.901  12.530 -0.0481 -0.9197 -0.4993
19656TIP3    H280384   0.014   3.049  12.501  1.1143 -0.5746  1.4503
19657TIP3   OH280385   6.100   4.016   0.493 -0.0288  0.5863  0.2811
19657TIP3    H180386   6.066   3.930   0.470 -0.5266  0.3887  1.7375
19657TIP3    H280387   6.087   4.069   0.414  4.0481 -1.7046 -2.1012
19658TIP3   OH280388   2.220   5.817  12.286  0.6454 -0.2312  0.2538
19658TIP3    H180389   2.266   5.770  12.217  0.3225  0.7099 -0.6101
19658TIP3    H280390   2.168   5.883  12.240 -1.3696 -1.1012  1.2109
19659TIP3   OH280391   5.624   5.359  14.377  0.0753 -0.3131 -0.1067
19659TIP3    H180392   5.691   5.290  14.375 -1.1729 -1.4988 -1.3542
19659TIP3    H280393   5.578   5.345  14.460  0.3884 -0.4390  0.0457
19660TIP3   OH280394   5.256   0.029   1.379 -1.1943  0.1764 -0.1515
19660TIP3    H180395   5.283   0.056   1.291 -2.2494 -0.6715 -0.7526
19660TIP3    H280396   5.160   0.029   1.375 -1.2432 -0.0816  0.9356
19661TIP3   OH280397   6.592   2.738   4.362 -0.1634  0.1940  0.1715
19661TIP3    H180398   6.596   2.834   4.357  0.8722  0.1701  0.3367
19661TIP3    H280399   6.648   2.716   4.436 -2.8573 -0.3762  2.0824
19662TIP3   OH280400   0.990   1.319  14.630 -0.3568  0.2981  0.4711
19662TIP3    H180401   0.941   1.238  14.615 -0.8205  0.8711 -1.1892
19662TIP3    H280402   0.926   1.378  14.671 -0.7842  0.6994 -0.7493
19663TIP3   OH280403   0.586   6.339  15.872 -0.1552 -0.0339 -0.1636
19663TIP3    H180404   0.526   6.287  15.818  0.5498  1.9010 -2.9232
19663TIP3    H280405   0.549   6.427  15.871  0.8578  0.4237  1.0396
19664TIP3   OH280406   5.788   5.507   0.662  0.0362  0.7468 -0.0686
19664TIP3    H180407   5.832   5.475   0.583  0.0577 -0.0349  0.2613
19664TIP3    H280408   5.736   5.433   0.693  1.4995  0.4445  1.7092
19665TIP3   OH280409   1.423   3.489  13.906 -0.4052 -0.0482 -0.3361
19665TIP3    H180410   1.385   3.532  13.982  0.2007  0.8169 -0.5149
19665TIP3    H280411   1.487   3.552  13.872  0.0417 -0.8309 -0.9712
19666TIP3   OH280412   6.269   5.963  16.862 -0.6403 -0.1599  0.2593
19666TIP3    H180413   6.234   6.021  16.929 -1.2556 -0.1730 -0.0458
19666TIP3    H280414   6.280   5.879  16.907 -0.5480 -0.0296  0.4806
19667TIP3   OH280415   5.078   4.508  11.649  0.1084 -1.0396  0.0833
19667TIP3    H180416   5.031   4.428  11.676 -0.4626 -1.5742 -2.3899
19667TIP3    H280417   5.017   4.552  11.590  0.7257  0.8688  0.8652
19668TIP3   OH280418   0.675   1.293   6.652  0.3775  0.4113  0.1180
19668TIP3    H180419   0.627   1.232   6.596  0.0320  1.5386 -0.8283
19668TIP3    H280420   0.731   1.237   6.706 -1.3370 -0.8769  0.6303
19669TIP3   OH280421   6.710   3.617  15.010 -0.3133  0.5711 -0.3664
19669TIP3    H180422   6.682   3.533  14.976 -0.9305  0.1488  1.1216
19669TIP3    H280423   6.785   3.642  14.956  1.6372 -2.2489  0.9530
19670TIP3   OH280424   4.399   6.206  13.936 -0.3690  0.7291 -0.1579
19670TIP3    H180425   4.328   6.165  13.887 -0.3361  0.3109  0.1484
19670TIP3    H280426   4.476   6.196  13.879  0.3456 -2.4604  1.2661
19671TIP3   OH280427   2.405   0.925   4.907  0.1487 -0.2279  0.7943
19671TIP3    H180428   2.434   0.870   4.835  1.8003  2.4410 -0.6482
19671TIP3    H280429   2.482   0.933   4.963 -0.8070 -1.3711  2.3289
19672TIP3   OH280430   4.515   5.566   1.184  0.2564  0.2212  0.5286
19672TIP3    H180431   4.544   5.518   1.106  0.6119 -1.7029  1.8280
19672TIP3    H280432   4.421   5.577   1.171 -0.0422 -1.8765  0.7526
19673TIP3   OH280433   2.335   3.315   1.733  0.3854  0.1580  0.5146
19673TIP3    H180434   2.241   3.329   1.742  0.3574 -0.5078  1.3953
19673TIP3    H280435   2.347   3.283   1.644  0.0646  2.4708 -0.3869
19674TIP3   OH280436   0.239   6.673   0.554  0.3693 -0.1420  0.2577
19674TIP3    H180437   0.153   6.666   0.513  0.5924 -5.0952  0.3302
19674TIP3    H280438   0.225   6.727   0.631 -2.4940 -0.2223 -0.1618
19675TIP3   OH280439   5.857   5.901   0.937  0.1451  0.5054 -0.1995
19675TIP3    H180440   5.862   5.997   0.935 -2.1745  0.6351 -2.7148
19675TIP3    H280441   5.920   5.873   0.871  0.2370  0.3353 -0.0387
19676TIP3   OH280442   5.599   4.972   2.279  0.3330  0.1431  0.1728
19676TIP3    H180443   5.532   4.904   2.269  0.9384 -0.7573  1.9875
19676TIP3    H280444   5.682   4.924   2.279  0.7692  0.8739  1.4218
19677TIP3   OH280445   3.910   1.500  12.281 -0.4703 -0.1940 -0.0061
19677TIP3    H180446   3.859   1.474  12.357  0.4356  1.6454  1.2819
19677TIP3    H280447   3.996   1.524  12.317  0.1921  0.0324 -1.6917
19678TIP3   OH280448   0.776   3.669  13.944  0.1143 -0.1197 -0.1205
19678TIP3    H180449   0.829   3.664  13.865 -0.1889  1.3623 -0.4287
19678TIP3    H280450   0.788   3.584  13.986  1.4815 -0.3623 -0.9753
19679TIP3   OH280451   3.072   1.425   3.299  0.0269  0.4459  0.3017
19679TIP3    H180452   3.044   1.490   3.364 -1.6448 -1.1188  1.2052
19679TIP3    H280453   3.121   1.476   3.235  1.0870  2.1671  2.3870
19680TIP3   OH280454   4.000   3.278  13.341 -0.5259 -0.3167  0.2243
19680TIP3    H180455   3.998   3.233  13.426  1.6383  0.3640  0.6635
19680TIP3    H280456   4.002   3.207  13.277 -0.2623 -0.8409  0.7998
19681TIP3   OH280457   6.629   2.811  13.838  0.0445  0.0361  0.2456
19681TIP3    H180458   6.613   2.900  13.809  2.1212  0.4156  0.1594
19681TIP3    H280459   6.549   2.763  13.817 -0.3753  1.4575 -1.4364
19682TIP3   OH280460   5.807   2.464  13.636  0.1182 -0.1509 -0.0459
19682TIP3    H180461   5.833   2.376  13.607 -0.3671 -0.9377  1.7960
19682TIP3    H280462   5.880   2.521  13.610  3.0621 -2.0204  3.6027
19683TIP3   OH280463   2.874   4.979   1.344 -0.3421 -0.4419  0.7256
19683TIP3    H180464   2.929   4.954   1.418 -1.7985 -0.0071  1.9647
19683TIP3    H280465   2.889   5.073   1.333 -0.4835 -0.4153  0.7620
19684TIP3   OH280466   3.559   1.229   1.516  0.3328 -0.1912  0.6275
19684TIP3    H180467   3.487   1.272   1.469  1.4887 -0.7363 -1.6681
19684TIP3    H280468   3.565   1.143   1.476  2.9732  0.2305  0.0693
19685TIP3   OH280469   0.019   4.779   6.603  0.0528  0.0801  0.0623
19685TIP3    H180470   0.027   4.822   6.518  0.5140  0.4451  0.2881
19685TIP3    H280471   0.086   4.821   6.657 -1.8036  1.4860  1.3043
19686TIP3   OH280472   5.571   0.103   0.427 -0.6541  0.0878  0.4389
19686TIP3    H180473   5.617   0.019   0.438 -1.7188 -0.3292  1.9322
19686TIP3    H280474   5.535   0.099   0.339  0.3887 -0.4706  0.0254
19687TIP3   OH280475   2.684   3.251  16.897  0.3356 -0.1641  0.0360
19687TIP3    H180476   2.686   3.156  16.906  0.1664 -0.1928 -0.2314
19687TIP3    H280477   2.592   3.275  16.910  0.2775 -0.0952 -0.4736
19688TIP3   OH280478   4.162   6.567  15.971 -1.3550  0.0494 -0.0863
19688TIP3    H180479   4.160   6.582  15.877  1.0611 -0.7687 -0.3044
19688TIP3    H280480   4.124   6.646  16.010 -2.1115  0.4997 -1.7172
19689TIP3   OH280481   0.471   3.425  12.282  0.5236 -0.4582 -0.3579
19689TIP3    H180482   0.552   3.420  12.332 -0.0346 -1.7866  0.4460
19689TIP3    H280483   0.470   3.345  12.229  0.3039  0.1236 -1.2525
19690TIP3   OH280484   1.663   3.448   0.669  0.0973 -0.4896 -0.6211
19690TIP3    H180485   1.576   3.437   0.630 -0.9747 -0.9376  1.7730
19690TIP3    H280486   1.673   3.542   0.681  0.2560 -0.3832 -1.5895
19691TIP3   OH280487   1.590   2.454  11.870  0.3372  0.2764  0.2038
19691TIP3    H180488   1.563   2.438  11.779  0.9166  1.1517 -0.1306
19691TIP3    H280489   1.645   2.532  11.865 -0.7552  1.1592  1.4894
19692TIP3   OH280490   4.988   6.674  11.480 -0.3303  0.5011 -0.4128
19692TIP3    H180491   5.079   6.701  11.484 -0.4762  1.4041 -2.4553
19692TIP3    H280492   4.943   6.746  11.435 -1.8962 -0.2672 -0.1156
19693TIP3   OH280493   4.366   3.735  12.570  0.3872  0.5071  0.0441
19693TIP3    H180494   4.335   3.740  12.480 -0.4085  0.9731  0.3407
19693TIP3    H280495   4.343   3.646  12.598 -0.9859  0.9584  0.3670
19694TIP3   OH280496   5.925   3.520  16.902 -0.0003 -0.3435  0.3611
19694TIP3    H180497   5.833   3.501  16.924 -0.4252  1.1891 -0.0073
19694TIP3    H280498   5.922   3.606  16.859  1.7153  0.1209  1.1320
19695TIP3   OH280499   0.845   5.927  14.641  0.7459 -0.1724  0.3542
19695TIP3    H180500   0.835   5.904  14.734 -0.4003  0.2759  0.3477
19695TIP3    H280501   0.889   5.851  14.603 -0.1210 -1.0039  0.9794
19696TIP3   OH280502   4.861   4.365   5.898 -0.9653  0.1132 -0.3453
19696TIP3    H180503   4.862   4.350   5.993 -0.6039 -0.3639 -0.4190
19696TIP3    H280504   4.892   4.455   5.887  2.6987 -1.0716 -0.2167
19697TIP3   OH280505   4.358   0.321  16.357  0.2530 -0.0636  0.7212
19697TIP3    H180506   4.266   0.324  16.381 -0.1734 -0.2026 -0.8230
19697TIP3    H280507   4.404   0.357  16.433 -1.1473  1.0131  1.0751
19698TIP3   OH280508   1.212   0.076   6.906  0.5539  0.3200 -0.0161
19698TIP3    H180509   1.255   0.042   6.985 -2.3062 -1.4524  0.8431
19698TIP3    H280510   1.241   0.017   6.836  1.0003  0.2801  0.1980
19699TIP3   OH280511   3.925   1.779  14.315  0.2381 -0.1508 -0.0166
19699TIP3    H180512   3.999   1.840  14.311  0.4256 -0.4104 -0.5619
19699TIP3    H280513   3.944   1.723  14.391  1.7123 -1.6253 -1.4345
19700TIP3   OH280514   5.795   6.191  15.550  0.2727 -0.3663  0.4166
19700TIP3    H180515   5.757   6.190  15.462 -0.7757  0.9158  0.8403
19700TIP3    H280516   5.889   6.201  15.535  0.2898 -1.8219 -0.5909
19701TIP3   OH280517   6.756   1.448  16.583  0.2604  0.2652  0.0430
19701TIP3    H180518   6.826   1.467  16.521  0.1630  0.8871  0.1155
19701TIP3    H280519   6.686   1.410  16.529 -1.7828  5.2734 -1.1502
19702TIP3   OH280520   3.763   1.682  12.541  0.3798  0.1805 -0.0296
19702TIP3    H180521   3.773   1.587  12.531 -0.7726  0.2039 -1.5695
19702TIP3    H280522   3.852   1.717  12.532  0.8702 -0.7777  0.9719
19703TIP3   OH280523   4.961   1.204   6.037  0.1883 -0.2779  0.1575
19703TIP3    H180524   4.869   1.191   6.012  0.2023 -1.3904  0.6560
19703TIP3    H280525   4.956   1.241   6.126  0.2456 -1.5262  0.6822
19704TIP3   OH280526   4.810   4.842  12.052  0.4846  0.2809 -0.1052
19704TIP3    H180527   4.786   4.927  12.013 -0.7867  0.3085  0.7122
19704TIP3    H280528   4.828   4.862  12.144 -0.0503 -0.3795  0.1410
19705TIP3   OH280529   4.167   4.671   1.086 -0.8917 -0.7097 -0.1388
19705TIP3    H180530   4.206   4.730   1.022  0.5352 -1.1297  0.3233
19705TIP3    H280531   4.193   4.707   1.171  0.0104 -1.9812  0.1513
19706TIP3   OH280532   6.582   2.037   0.125  0.1381  0.2858 -0.4706
19706TIP3    H180533   6.654   2.026   0.063  0.1687  0.8217 -0.5307
19706TIP3    H280534   6.539   2.118   0.098  1.0741  1.3458  1.1142
19707TIP3   OH280535   0.070   0.686  15.333  0.6729 -0.3454  0.5902
19707TIP3    H180536   0.067   0.781  15.347  1.0451 -0.1805 -0.4185
19707TIP3    H280537   0.136   0.674  15.265 -0.3931 -1.2253 -0.2982
19708TIP3   OH280538   2.759   6.582   4.174 -0.2425  0.0953  0.0928
19708TIP3    H180539   2.685   6.524   4.189 -0.4878 -0.1564 -1.8861
19708TIP3    H280540   2.806   6.541   4.101  0.6324  1.3865 -0.0810
19709TIP3   OH280541   3.488   3.740  16.191 -0.3183  0.3788  0.5910
19709TIP3    H180542   3.518   3.822  16.152  0.2787  0.7239  1.7572
19709TIP3    H280543   3.486   3.678  16.119 -0.6321  1.3815 -0.2675
19710TIP3   OH280544   6.083   2.112   0.169 -0.4495  0.0905 -0.0078
19710TIP3    H180545   6.136   2.177   0.123  1.7051  0.3118  2.5955
19710TIP3    H280546   6.101   2.129   0.262 -1.8719 -2.5562  0.8012
19711TIP3   OH280547   5.893   2.928   1.212  0.0226  0.1070  0.4780
19711TIP3    H180548   5.891   2.904   1.120 -0.9034 -0.3827  0.6225
19711TIP3    H280549   5.946   2.859   1.253 -3.5451 -2.4103  1.0717
19712TIP3   OH280550   1.227   3.345   4.071 -0.0388  0.1560 -0.2458
19712TIP3    H180551   1.246   3.438   4.054  1.5512 -0.0891  0.0778
19712TIP3    H280552   1.309   3.300   4.048 -0.7160 -1.1403 -0.1481
19713TIP3   OH280553   3.703   6.344  15.600  0.0631 -0.8135 -0.2019
19713TIP3    H180554   3.660   6.291  15.532  0.5322 -0.9947 -0.3576
19713TIP3    H280555   3.790   6.306  15.608  0.3866 -0.0904 -0.2798
19714TIP3   OH280556   3.126   1.449   1.391 -0.3025  0.1617  0.0892
19714TIP3    H180557   3.100   1.530   1.347 -1.0445  0.6039  1.3494
19714TIP3    H280558   3.044   1.401   1.404  0.0209 -0.3615  0.2110
19715TIP3   OH280559   2.049   1.160  13.708  0.1081  0.6753  0.1078
19715TIP3    H180560   2.083   1.079  13.669 -1.3655  1.0491 -2.0054
19715TIP3    H280561   2.115   1.226  13.685 -0.0292  0.6042 -0.5101
19716TIP3   OH280562   6.325   3.364   3.622  0.3417 -0.0953  0.3416
19716TIP3    H180563   6.380   3.421   3.568 -0.1777 -0.3498 -0.4604
19716TIP3    H280564   6.254   3.422   3.652 -0.6507 -0.4996 -1.1603
19717TIP3   OH280565   4.433   1.419   0.129 -0.4629 -0.4832 -1.2766
19717TIP3    H180566   4.460   1.343   0.077 -1.2584  0.2572 -2.7800
19717TIP3    H280567   4.403   1.381   0.212 -1.9100 -1.9158 -2.4204
19718TIP3   OH280568   5.938   5.091   2.685 -0.4833  0.2759 -0.2818
19718TIP3    H180569   5.937   5.096   2.590 -2.4570  1.4055 -0.2240
19718TIP3    H280570   5.950   5.181   2.714 -1.5644  0.1501  0.5566
19719TIP3   OH280571   2.437   1.754  11.161 -0.3974  0.7010 -0.0385
19719TIP3    H180572   2.393   1.711  11.088  0.2441 -1.9461  1.0821
19719TIP3    H280573   2.446   1.686  11.227  2.2818  2.0925  1.1108
19720TIP3   OH280574   1.411   6.203  11.107  0.4848  0.1508 -0.5613
19720TIP3    H180575   1.471   6.188  11.180  0.5668 -0.8178 -0.8233
19720TIP3    H280576   1.464   6.185  11.029 -0.0819 -0.5166 -0.7991
19721TIP3   OH280577   4.980   6.698  16.289  0.5780  0.0195 -0.3232
19721TIP3    H180578   4.886   6.679  16.288  0.6026 -0.1206  0.1380
19721TIP3    H280579   4.986   6.792  16.272  0.2417  0.4552  1.8792
19722TIP3   OH280580   1.600   4.594  10.467 -0.2111  0.1630  0.3241
19722TIP3    H180581   1.596   4.518  10.526 -1.2170  0.1864  0.2946
19722TIP3    H280582   1.624   4.556  10.382 -2.3462 -0.3770 -0.0843
19723TIP3   OH280583   0.423   1.597   5.493  0.2709  0.9721 -0.0168
19723TIP3    H180584   0.359   1.525   5.487 -0.2799  1.5155 -0.6677
19723TIP3    H280585   0.501   1.564   5.449 -0.0243  0.8186 -0.4212
19724TIP3   OH280586   1.430   5.403   2.089  0.0735 -0.0093 -0.1304
19724TIP3    H180587   1.492   5.451   2.144 -0.2308  0.8878 -0.5591
19724TIP3    H280588   1.428   5.315   2.126  1.8105 -0.1318 -0.2856
19725TIP3   OH280589   1.283   4.473  14.931 -0.0269 -0.8903 -0.2557
19725TIP3    H180590   1.343   4.528  14.981  0.5544 -2.5064  0.8497
19725TIP3    H280591   1.201   4.522  14.928  0.5308  0.0994  0.5764
19726TIP3   OH280592   1.202   0.674   5.213 -0.0725  0.6007 -0.1155
19726TIP3    H180593   1.132   0.734   5.239 -1.1911 -0.3644 -0.8125
19726TIP3    H280594   1.271   0.731   5.177 -1.1091  1.4662 -0.7699
19727TIP3   OH280595   1.689   1.200   0.957 -0.5892 -0.2955  0.4152
19727TIP3    H180596   1.624   1.270   0.958 -1.1009 -0.7710  0.9768
19727TIP3    H280597   1.645   1.126   0.915 -1.1274 -1.2691  2.6130
19728TIP3   OH280598   0.801   3.111   2.068 -0.3551 -0.0291 -0.2864
19728TIP3    H180599   0.784   3.205   2.076  2.8003  0.7499 -1.6378
19728TIP3    H280600   0.740   3.080   2.002 -0.6815  1.3166 -0.6155
19729TIP3   OH280601   3.682   6.139   2.769 -0.1400  0.1360 -0.5513
19729TIP3    H180602   3.633   6.057   2.766  1.3772 -0.7350 -1.8755
19729TIP3    H280603   3.732   6.134   2.851 -0.8206  0.1935 -0.1307
19730TIP3   OH280604   2.194   6.767  14.842 -0.2410 -0.4784  0.1980
19730TIP3    H180605   2.142   6.824  14.898 -0.8036 -0.0767 -0.7274
19730TIP3    H280606   2.285   6.791  14.861 -0.2862 -2.3091  3.0167
19731TIP3   OH280607   0.666   0.330   1.430  0.0301 -0.1487 -0.0904
19731TIP3    H180608   0.573   0.353   1.426 -0.2627 -1.3446 -0.5912
19731TIP3    H280609   0.711   0.404   1.388 -0.7294  0.2668 -0.1852
19732TIP3   OH280610   6.572   1.563  12.472  0.0283 -0.1964  0.5830
19732TIP3    H180611   6.532   1.637  12.426 -1.1425  0.1233  2.0879
19732TIP3    H280612   6.506   1.494  12.468  0.8594 -0.9616 -0.2380
19733TIP3   OH280613   1.654   4.184   3.168 -0.4353  0.0281  0.6519
19733TIP3    H180614   1.589   4.248   3.138 -0.8373 -0.0196  1.4178
19733TIP3    H280615   1.694   4.225   3.245  0.0475 -0.1892  0.5177
19734TIP3   OH280616   2.795   1.527   4.488 -0.1013 -0.1397 -0.5074
19734TIP3    H180617   2.796   1.490   4.576  1.8019  1.3987  0.1684
19734TIP3    H280618   2.769   1.455   4.431  0.0891 -1.5384  1.1561
19735TIP3   OH280619   1.635   0.814  13.488 -0.3204 -0.0809 -0.0016
19735TIP3    H180620   1.564   0.830  13.426  1.1271  0.0417 -1.6898
19735TIP3    H280621   1.675   0.900  13.501  1.2247 -0.5933 -1.2357
19736TIP3   OH280622   0.309   0.190  14.642 -0.1267  0.6714  0.3318
19736TIP3    H180623   0.251   0.266  14.641 -3.1700 -1.5162 -1.9458
19736TIP3    H280624   0.343   0.186  14.731 -1.2202  3.7132  0.9227
19737TIP3   OH280625   1.311   1.478   2.821  0.1470  0.1294 -0.6123
19737TIP3    H180626   1.352   1.558   2.854 -1.2447  0.7023 -0.2578
19737TIP3    H280627   1.290   1.428   2.900 -0.3080  0.0690 -0.7727
19738TIP3   OH280628   4.576   4.080   1.260 -0.9045  0.1124 -0.2423
19738TIP3    H180629   4.541   4.169   1.258 -1.4009 -0.0824 -0.3293
19738TIP3    H280630   4.625   4.074   1.341  0.4445  0.9688 -0.9830
19739TIP3   OH280631   5.673   1.271  12.240  0.9205 -0.3505 -0.2202
19739TIP3    H180632   5.706   1.337  12.178 -0.1195  0.0066 -0.4077
19739TIP3    H280633   5.591   1.240  12.200  0.5384 -0.5342  0.7037
19740TIP3   OH280634   3.043   4.437   0.297  0.4290 -0.1783  0.6085
19740TIP3    H180635   3.113   4.459   0.235 -0.8722 -2.7336 -1.8933
19740TIP3    H280636   2.979   4.507   0.285  1.5179  0.9503  1.2662
19741TIP3   OH280637   5.640   3.924   4.202  0.1641  0.4167 -0.1032
19741TIP3    H180638   5.583   3.969   4.264 -1.0002 -0.6010 -0.4269
19741TIP3    H280639   5.728   3.951   4.227 -0.3139  0.3159  1.7455
19742TIP3   OH280640   3.631   4.255   0.735  0.1130 -0.2248  0.0201
19742TIP3    H180641   3.692   4.303   0.790 -0.6818  1.8833 -0.8721
19742TIP3    H280642   3.545   4.278   0.771 -0.1883 -2.9814  1.1311
19743TIP3   OH280643   1.313   6.050   1.907 -0.9676 -0.0324 -0.3938
19743TIP3    H180644   1.404   6.071   1.927 -1.2175  0.5757  0.1012
19743TIP3    H280645   1.319   5.978   1.844 -0.1586 -1.5554  1.3568
19744TIP3   OH280646   5.405   0.626  11.503  0.4462 -0.1460  0.2739
19744TIP3    H180647   5.350   0.601  11.428  1.6508 -2.4609  0.1006
19744TIP3    H280648   5.478   0.674  11.464 -1.0638  2.3396  0.4355
19745TIP3   OH280649   2.512   6.472   6.009  0.6298 -0.3590 -0.3055
19745TIP3    H180650   2.589   6.510   6.050  0.5677  0.1281 -0.6354
19745TIP3    H280651   2.477   6.411   6.074  1.5064 -0.8553 -0.3072
19746TIP3   OH280652   2.617   0.290   3.303 -0.0916  0.6959 -0.1149
19746TIP3    H180653   2.572   0.284   3.388 -3.2584  1.0696 -1.7104
19746TIP3    H280654   2.547   0.295   3.239  2.2619 -0.9697 -2.9113
19747TIP3   OH280655   4.996   2.439   2.368 -0.0613  0.5737  0.6869
19747TIP3    H180656   4.939   2.434   2.291  1.1356  0.1588 -0.1771
19747TIP3    H280657   5.078   2.474   2.335  0.4888  0.3209  1.7718
19748TIP3   OH280658   3.075   1.956  15.169  0.0765  0.6086 -0.3523
19748TIP3    H180659   3.122   2.031  15.134 -0.4831  1.3856  0.5378
19748TIP3    H280660   3.124   1.880  15.137  2.2972  1.4075  1.0238
19749TIP3   OH280661   6.359   3.623   0.649  0.3331 -0.1482  0.1258
19749TIP3    H180662   6.338   3.714   0.669  0.8596  0.1514 -0.6548
19749TIP3    H280663   6.378   3.623   0.555 -0.2712 -1.1715 -0.0045
19750TIP3   OH280664   4.256   0.016  16.192  0.0551  0.3710  0.3183
19750TIP3    H180665   4.331   0.076  16.195  0.3701  0.2335 -2.6457
19750TIP3    H280666   4.295  -0.070  16.208  0.8314  0.1335 -2.4805
19751TIP3   OH280667   2.497   1.433  17.172  1.0113  0.2515 -0.3074
19751TIP3    H180668   2.483   1.463  17.083  0.1885  0.3355 -0.1522
19751TIP3    H280669   2.447   1.351  17.178 -1.9800  2.1044  1.1729
19752TIP3   OH280670   4.907   2.698  17.171 -0.0687  0.0344 -0.2448
19752TIP3    H180671   4.905   2.781  17.123  1.1464  1.7760  2.5900
19752TIP3    H280672   4.841   2.708  17.240  1.0858 -0.7681  1.0102
19753TIP3   OH280673   0.040   3.677  13.521 -0.1253 -0.2518  0.3755
19753TIP3    H180674   0.056   3.759  13.567 -1.4628 -0.4945  1.2865
19753TIP3    H280675   0.103   3.678  13.448  2.8699 -0.4318  2.8762
19754TIP3   OH280676   0.527   2.356   2.870  0.0549 -0.7039 -0.1827
19754TIP3    H180677   0.518   2.265   2.895 -1.5600 -0.4769  0.1336
19754TIP3    H280678   0.490   2.406   2.943  3.4454  0.3637  0.9151
19755TIP3   OH280679   2.982   5.244  14.570  0.3069 -0.4925 -0.0853
19755TIP3    H180680   3.062   5.277  14.611  0.3080  1.5066 -1.6162
19755TIP3    H280681   2.974   5.153  14.601  2.6752 -0.4262  0.7717
19756TIP3   OH280682   5.495   2.364  16.552  0.0992  0.0971 -0.1120
19756TIP3    H180683   5.531   2.448  16.581  0.7303 -0.8495  1.9369
19756TIP3    H280684   5.405   2.363  16.586  0.3418 -0.3654  0.5310
19757TIP3   OH280685   4.517   2.561   1.161  0.3477  0.0657 -0.1095
19757TIP3    H180686   4.518   2.529   1.252 -1.1549 -0.8749 -0.4073
19757TIP3    H280687   4.572   2.499   1.113 -1.9762 -1.7449 -0.5459
19758TIP3   OH280688   0.013   3.984   1.563  0.2232  0.0819  0.2100
19758TIP3    H180689   0.077   3.973   1.633 -1.0821 -1.8483  1.1674
19758TIP3    H280690   0.063   3.981   1.482  1.5404  0.5503  0.9958
19759TIP3   OH280691   6.501   3.308  14.707 -0.3090  0.6286 -0.4992
19759TIP3    H180692   6.517   3.299  14.801 -0.7880  0.5678 -0.4258
19759TIP3    H280693   6.555   3.240  14.667 -1.2598 -0.3118 -0.1729
19760TIP3   OH280694   4.581   5.537   6.774  0.0871  0.5743 -0.2271
19760TIP3    H180695   4.491   5.531   6.804 -0.3838 -0.5717 -1.7813
19760TIP3    H280696   4.584   5.483   6.695  2.0706  0.7924 -0.3473
19761TIP3   OH280697   0.685   3.246   4.306 -0.4120 -0.3090  1.0219
19761TIP3    H180698   0.764   3.296   4.328 -0.0470 -1.2069  1.8056
19761TIP3    H280699   0.700   3.214   4.217  0.3522 -0.9289  1.3692
19762TIP3   OH280700   3.047   5.061  11.530 -0.2288  0.6651  0.9037
19762TIP3    H180701   3.108   5.129  11.560 -0.0796  1.0704 -0.2960
19762TIP3    H280702   3.024   5.087  11.441  1.2006 -1.7777 -0.2420
19763TIP3   OH280703   2.406   2.024  12.255  0.4555  0.2856  0.4941
19763TIP3    H180704   2.410   2.119  12.248  0.8065  0.1148 -2.6023
19763TIP3    H280705   2.313   2.004  12.270 -0.5021  0.9627 -3.8420
19764TIP3   OH280706   6.371   6.079  14.014  0.2592  0.5161 -0.1971
19764TIP3    H180707   6.452   6.081  14.066  0.7471 -1.1745 -0.8585
19764TIP3    H280708   6.396   6.118  13.930  0.7421 -1.2010 -0.8633
19765TIP3   OH280709   3.785   2.861  13.192  0.2959 -0.0612 -0.2932
19765TIP3    H180710   3.868   2.871  13.238  0.1038  0.4097 -0.0425
19765TIP3    H280711   3.807   2.811  13.113  0.8812  0.3666 -0.4069
19766TIP3   OH280712   2.235   3.585   3.293 -0.0197  0.2448 -0.3487
19766TIP3    H180713   2.241   3.673   3.255  0.9958 -0.2171 -1.2867
19766TIP3    H280714   2.321   3.547   3.279 -0.7870 -1.3091 -0.9592
19767TIP3   OH280715   1.427   4.743  10.250 -0.1918 -0.1642  0.6256
19767TIP3    H180716   1.408   4.777  10.338  1.3481  2.5739 -0.0324
19767TIP3    H280717   1.492   4.674  10.264  0.7384  0.8845  1.5697
19768TIP3   OH280718   5.579   1.397  15.172 -0.0009  0.0396  0.4339
19768TIP3    H180719   5.622   1.403  15.257 -0.3987 -0.6334  0.6931
19768TIP3    H280720   5.648   1.420  15.109 -0.2929  2.7379  1.0363
19769TIP3   OH280721   4.223   2.410   2.887 -0.3692 -0.3061 -0.4480
19769TIP3    H180722   4.157   2.343   2.905 -2.2867  2.0161  1.5229
19769TIP3    H280723   4.175   2.481   2.845  1.2953  0.5146 -1.0045
19770TIP3   OH280724   1.828   5.090   1.229  0.4093 -0.1200 -0.1695
19770TIP3    H180725   1.774   5.076   1.307  0.0921  0.0792 -0.3517
19770TIP3    H280726   1.907   5.040   1.246  0.1360 -0.4795  0.0682
19771TIP3   OH280727   2.416   3.152  14.182  0.2581  0.2373 -0.4258
19771TIP3    H180728   2.376   3.088  14.240  0.3006  0.1520 -0.4880
19771TIP3    H280729   2.510   3.148  14.203  0.2717  0.2166 -0.4871
19772TIP3   OH280730   4.714   4.751   3.031 -0.0893  0.6803 -0.2601
19772TIP3    H180731   4.798   4.791   3.053  0.2238 -0.6332  1.0483
19772TIP3    H280732   4.664   4.821   2.990  1.4080  1.6589 -0.4489
19773TIP3   OH280733   1.978   6.512  12.705 -0.2170  0.2692  0.0521
19773TIP3    H180734   2.048   6.519  12.639  0.0424  1.0389  0.4077
19773TIP3    H280735   1.976   6.419  12.727  1.5055  0.4130  0.9090
19774TIP3   OH280736   5.006   3.030   3.873 -0.2523  0.1545  0.1711
19774TIP3    H180737   4.985   2.945   3.911 -1.6334 -0.2811 -1.5102
19774TIP3    H280738   5.089   3.015   3.827 -1.3095 -0.7540 -1.5029
19775TIP3   OH280739   2.015   4.802   3.264 -0.4340  0.2312  0.0965
19775TIP3    H180740   1.972   4.717   3.271  0.3042 -0.1566 -0.0071
19775TIP3    H280741   2.071   4.807   3.342 -0.3114  0.5266 -0.0093
19776TIP3   OH280742   6.580   1.142  12.409  0.0747  0.3990  0.3392
19776TIP3    H180743   6.540   1.145  12.322 -0.0232  1.3612  0.4061
19776TIP3    H280744   6.612   1.053  12.418 -0.2079  0.2002 -0.5529
19777TIP3   OH280745   0.598   3.184  14.461 -0.2616 -0.3355 -0.7006
19777TIP3    H180746   0.652   3.195  14.382 -1.0820 -3.5386 -1.7821
19777TIP3    H280747   0.642   3.115  14.510 -0.4452  0.7898  1.0682
19778TIP3   OH280748   6.245   5.071   1.895 -0.2118 -0.3512 -0.0494
19778TIP3    H180749   6.176   5.015   1.929 -1.2161  1.8584  1.6942
19778TIP3    H280750   6.323   5.047   1.945 -0.9050  0.5449  1.4982
19779TIP3   OH280751   4.534   4.652   1.624 -0.0764  0.2707 -0.0200
19779TIP3    H180752   4.453   4.691   1.589  0.0476  0.2127 -0.3774
19779TIP3    H280753   4.599   4.667   1.555 -0.3363 -1.7125 -0.7332
19780TIP3   OH280754   2.928   1.020   2.143  0.1927 -0.1898  0.2628
19780TIP3    H180755   2.989   0.981   2.081  0.7423 -1.0005  1.2971
19780TIP3    H280756   2.842   0.992   2.112  0.3618  0.6225 -0.9673
19781TIP3   OH280757   1.657   3.226  14.781  0.7285  0.4767 -0.2389
19781TIP3    H180758   1.706   3.254  14.858 -0.2629 -0.0603  0.6010
19781TIP3    H280759   1.597   3.298  14.762 -0.4499 -0.2297  0.7349
19782TIP3   OH280760   5.911   1.881  13.786  0.4792  0.4523 -0.2880
19782TIP3    H180761   5.897   1.879  13.691  3.5563  1.4579 -0.8358
19782TIP3    H280762   5.900   1.791  13.814 -0.2527  0.1012 -1.6413
19783TIP3   OH280763   5.069   5.258  13.786 -0.6809 -0.3561  0.3402
19783TIP3    H180764   5.004   5.253  13.855 -2.5955  0.0293 -1.3935
19783TIP3    H280765   5.110   5.344  13.798 -0.8981 -0.3524  1.0737
19784TIP3   OH280766   3.098   6.722  11.331  0.0294  0.1514  0.2339
19784TIP3    H180767   3.111   6.696  11.240 -1.2842  0.1313  0.0482
19784TIP3    H280768   3.157   6.665  11.381 -0.8831 -1.3744 -0.4112
19785TIP3   OH280769   6.549   0.023   4.267 -1.2849  0.0498  0.0329
19785TIP3    H180770   6.618   0.090   4.275  0.5207 -1.7749  0.3375
19785TIP3    H280771   6.498   0.032   4.348 -0.3366  0.2849  0.6160
19786TIP3   OH280772   2.755   2.594  13.577 -0.9667  0.3078 -0.1974
19786TIP3    H180773   2.845   2.565  13.585 -1.4644 -0.9358  1.1710
19786TIP3    H280774   2.732   2.577  13.486  0.4858  1.6102 -0.8279
19787TIP3   OH280775   6.073   0.679   0.665 -0.4441  0.2204 -0.1922
19787TIP3    H180776   6.113   0.599   0.701  0.3938  0.4641 -0.5769
19787TIP3    H280777   5.981   0.673   0.691  0.0487  0.1830  1.6405
19788TIP3   OH280778   3.274   3.372   0.214 -0.3888  0.2401 -0.1606
19788TIP3    H180779   3.286   3.428   0.137  0.8241 -2.3908 -1.9776
19788TIP3    H280780   3.215   3.303   0.184  0.9631 -1.4222  0.9277
19789TIP3   OH280781   1.333   2.771  11.978 -0.3547  0.4434  0.2587
19789TIP3    H180782   1.258   2.763  11.920  0.6815  0.8661 -1.1959
19789TIP3    H280783   1.322   2.702  12.043 -1.2795 -0.3718 -0.7540
19790TIP3   OH280784   4.810   3.314   4.965  0.6215 -0.5268 -0.0807
19790TIP3    H180785   4.855   3.266   4.896  1.0607 -0.7774  0.3713
19790TIP3    H280786   4.798   3.250   5.035  0.4799 -0.1876  0.2063
19791TIP3   OH280787   1.917   6.262   6.084 -0.7690  0.2263 -0.0126
19791TIP3    H180788   1.855   6.249   6.156 -1.9589  1.0575 -0.8582
19791TIP3    H280789   1.918   6.356   6.070  0.2913  0.1652 -0.3592
19792TIP3   OH280790   5.453   1.696  15.771  0.1583 -0.0604 -0.3955
19792TIP3    H180791   5.360   1.678  15.760  0.2790 -0.1826 -1.2606
19792TIP3    H280792   5.484   1.629  15.831 -0.1995 -0.3619 -0.5478
19793TIP3   OH280793   5.318   6.016   0.567 -0.7549 -0.1015  0.4095
19793TIP3    H180794   5.373   5.939   0.555 -0.5230  0.1690 -0.2616
19793TIP3    H280795   5.358   6.083   0.512 -0.7978  0.5823  1.2040
19794TIP3   OH280796   0.319   2.776   1.398  0.1610  0.2014  0.0607
19794TIP3    H180797   0.340   2.870   1.400  1.2007  0.0079 -1.3382
19794TIP3    H280798   0.223   2.773   1.397  0.0593  1.1854  2.3783
19795TIP3   OH280799   3.614   5.330   4.189 -0.0581  0.0970 -0.1157
19795TIP3    H180800   3.646   5.269   4.122  1.2943  0.5556  0.1028
19795TIP3    H280801   3.637   5.417   4.155 -1.4270  0.4625 -0.1358
19796TIP3   OH280802   0.748   3.617   5.686  0.5337 -0.2049  0.2592
19796TIP3    H180803   0.655   3.611   5.707  0.0345  0.9885 -1.4642
19796TIP3    H280804   0.772   3.530   5.655 -0.0012 -0.5349  0.7837
19797TIP3   OH280805   2.535   1.752  17.133  0.4414  0.4828 -0.1351
19797TIP3    H180806   2.446   1.752  17.167  0.5660 -0.8775  0.1915
19797TIP3    H280807   2.591   1.745  17.210  0.7531 -1.7072 -0.5404
19798TIP3   OH280808   3.742   2.279  12.258  0.2365  0.4852  0.2782
19798TIP3    H180809   3.698   2.194  12.253  0.4608  0.3665  0.3208
19798TIP3    H280810   3.771   2.296  12.168  0.4910  0.3560  0.3336
19799TIP3   OH280811   6.727   3.439  13.411  0.0614 -0.7423  0.2065
19799TIP3    H180812   6.773   3.501  13.468  1.1690 -1.5487  0.1960
19799TIP3    H280813   6.658   3.402  13.467  0.6740 -0.9877  0.8100
19800TIP3   OH280814   3.879   6.748  16.455 -0.3073 -0.1495 -0.1496
19800TIP3    H180815   3.949   6.689  16.427  0.4299  1.6371 -2.2359
19800TIP3    H280816   3.871   6.732  16.549  1.7695 -1.5704 -0.1631
19801TIP3   OH280817   5.388   4.535   6.433  0.0602 -0.1933 -0.3524
19801TIP3    H180818   5.383   4.493   6.519  2.6187 -0.3519 -0.2520
19801TIP3    H280819   5.419   4.624   6.452  3.1543 -1.0061 -1.2725
19802TIP3   OH280820   4.669   3.170  10.585  0.3793 -0.6092 -0.1346
19802TIP3    H180821   4.749   3.218  10.567  0.5383 -0.6689  0.3953
19802TIP3    H280822   4.698   3.087  10.622  0.0910 -0.9069 -0.5747
19803TIP3   OH280823   5.838   5.384  16.116  0.9045  0.3377  0.0615
19803TIP3    H180824   5.844   5.306  16.060 -1.7107  0.7615 -0.8516
19803TIP3    H280825   5.929   5.400  16.143  1.6490 -2.3837 -0.5817
19804TIP3   OH280826   0.814   3.950   1.454  0.3512  0.0752 -0.0108
19804TIP3    H180827   0.790   3.863   1.485 -0.6512 -0.1430 -1.3520
19804TIP3    H280828   0.880   3.935   1.387  0.6168  0.3942  0.1735
19805TIP3   OH280829   2.312   5.784  11.990 -0.2231 -0.0119 -0.1545
19805TIP3    H180830   2.267   5.863  11.960  1.8359 -0.1511 -3.8899
19805TIP3    H280831   2.401   5.812  12.007 -0.1481 -1.0107  1.1789
19806TIP3   OH280832   5.213   5.739   2.981  0.4255  0.3566  0.5215
19806TIP3    H180833   5.174   5.655   3.004  0.3718  0.4736  0.8712
19806TIP3    H280834   5.173   5.801   3.042  0.8589  0.5451  0.6172
19807TIP3   OH280835   6.734   0.485   3.554 -0.3903 -0.2834 -0.0297
19807TIP3    H180836   6.800   0.491   3.484 -0.7946 -0.7588 -0.4545
19807TIP3    H280837   6.784   0.462   3.632  0.0857  0.3928 -0.1240
19808TIP3   OH280838   6.041   2.404  11.295 -0.2986 -0.0816  0.1172
19808TIP3    H180839   6.132   2.379  11.281 -0.5299  0.3417 -2.2819
19808TIP3    H280840   5.990   2.328  11.265 -0.7786  0.3653 -0.2011
19809TIP3   OH280841   6.288   4.937   6.337  0.2626  0.0715 -0.1084
19809TIP3    H180842   6.200   4.901   6.341 -0.9014  2.8598  0.2722
19809TIP3    H280843   6.305   4.949   6.243 -0.1833  0.5681 -0.1238
19810TIP3   OH280844   2.388   6.105   5.755  1.0943  1.0893 -0.0323
19810TIP3    H180845   2.440   6.080   5.679 -0.3949 -1.0698 -0.3948
19810TIP3    H280846   2.432   6.064   5.830  0.3495 -0.1107 -0.2443
19811TIP3   OH280847   2.367   3.423  14.250 -0.6772 -0.7721  0.2076
19811TIP3    H180848   2.342   3.332  14.232 -3.2029  0.2201 -1.6062
19811TIP3    H280849   2.437   3.441  14.187 -1.1632 -1.0149 -0.4044
19812TIP3   OH280850   1.417   3.672  12.867  0.1254  0.3887  0.3703
19812TIP3    H180851   1.484   3.739  12.859  1.2536 -0.5866  1.3557
19812TIP3    H280852   1.435   3.631  12.952 -0.7275 -0.9400 -0.0746
19813TIP3   OH280853   0.893   4.371  14.933 -0.4625 -0.0588  0.0689
19813TIP3    H180854   0.924   4.435  14.869 -0.2403  0.2087  0.4402
19813TIP3    H280855   0.971   4.321  14.958 -0.7268 -0.8076 -0.5879
19814TIP3   OH280856   4.568   1.314  16.901 -0.4812 -0.2013  0.0396
19814TIP3    H180857   4.650   1.362  16.917 -0.9457  0.8626 -0.7375
19814TIP3    H280858   4.509   1.344  16.970 -0.4773 -0.3647  0.1148
19815TIP3   OH280859   1.624   0.724  15.386  0.1765 -0.4743 -0.2000
19815TIP3    H180860   1.637   0.804  15.336  0.9553 -0.7271 -0.4020
19815TIP3    H280861   1.706   0.676  15.378 -0.7009 -1.8784 -1.1120
19816TIP3   OH280862   0.655   3.724   5.271  0.0868 -0.1676 -0.3882
19816TIP3    H180863   0.606   3.754   5.194  0.6696 -3.4435 -2.1512
19816TIP3    H280864   0.617   3.638   5.291  1.9540 -0.6685  1.1202
19817TIP3   OH280865   1.694   5.615   1.033 -0.2783 -0.4959 -0.2351
19817TIP3    H180866   1.757   5.648   1.098 -0.1641 -1.9069  0.3824
19817TIP3    H280867   1.746   5.604   0.953 -0.0527 -0.3370 -0.1135
19818TIP3   OH280868   0.332   2.277   6.070  0.2038 -0.8428 -0.4459
19818TIP3    H180869   0.331   2.214   5.998  0.4950 -0.6011 -0.6660
19818TIP3    H280870   0.258   2.252   6.125  2.0934 -3.2768  1.0995
19819TIP3   OH280871   0.829   3.490  11.015 -0.0191 -0.6912  0.0699
19819TIP3    H180872   0.832   3.430  10.940 -1.1913  0.2777 -0.7733
19819TIP3    H280873   0.817   3.577  10.976  0.6379 -0.0201  1.3246
19820TIP3   OH280874   3.966   5.693   2.803  0.3039  0.0972  0.0391
19820TIP3    H180875   4.027   5.619   2.797 -0.6180 -0.5311 -1.8685
19820TIP3    H280876   3.944   5.714   2.713 -1.4024  1.0678  0.6553
19821TIP3   OH280877   5.852   4.069  16.977 -0.3144 -0.3559  0.2966
19821TIP3    H180878   5.784   4.057  16.911  1.1023 -0.8849 -1.1036
19821TIP3    H280879   5.835   4.156  17.012 -1.2848 -0.1900 -0.5359
19822TIP3   OH280880   1.379   5.955  11.342  0.0349  0.0498  0.8474
19822TIP3    H180881   1.335   5.887  11.291 -1.3821  1.1818  0.5360
19822TIP3    H280882   1.388   5.917  11.430  0.9577 -1.2422  0.2158
19823TIP3   OH280883   6.044   5.916  13.285 -0.0604  0.0599 -0.3397
19823TIP3    H180884   6.123   5.862  13.294  0.3251  0.8011  0.8343
19823TIP3    H280885   6.070   5.987  13.227 -0.0543 -0.0333 -0.4523
19824TIP3   OH280886   0.696   1.209  13.790  0.4798  0.2022 -0.1022
19824TIP3    H180887   0.784   1.194  13.824  0.0562 -0.1218  0.8873
19824TIP3    H280888   0.641   1.212  13.868 -0.3716  0.5041 -0.7057
19825TIP3   OH280889   6.504   0.839   5.416  0.6448 -0.6264 -0.2233
19825TIP3    H180890   6.425   0.824   5.468  0.0521 -0.1302 -0.9534
19825TIP3    H280891   6.576   0.829   5.478  0.0786 -2.2451  0.1984
19826TIP3   OH280892   5.631   5.273   0.714 -0.2178  0.0886 -0.2568
19826TIP3    H180893   5.623   5.216   0.637 -1.8397  0.2391 -0.2245
19826TIP3    H280894   5.547   5.319   0.717 -0.6994 -0.8917  2.3768
19827TIP3   OH280895   6.747   3.633  11.983  0.7020  0.6530 -0.1290
19827TIP3    H180896   6.674   3.653  11.925 -0.0575 -0.2770  0.4833
19827TIP3    H280897   6.706   3.595  12.061  1.7926  0.7347  0.5022
19828TIP3   OH280898   4.402   4.073  16.929  0.1099  0.2922  0.2834
19828TIP3    H180899   4.350   4.153  16.934  0.5090  0.5030  1.0041
19828TIP3    H280900   4.341   4.003  16.955 -0.0180  0.4444  0.3916
19829TIP3   OH280901   3.609   1.002  15.902  0.1808  0.2385 -0.1750
19829TIP3    H180902   3.655   0.919  15.890 -0.2879 -0.1690  0.7443
19829TIP3    H280903   3.568   0.993  15.988 -0.4498  1.1520 -0.3839
19830TIP3   OH280904   2.896   4.511   1.701 -0.0025 -0.2753 -0.3264
19830TIP3    H180905   2.833   4.493   1.631 -0.2133 -0.7519 -0.0158
19830TIP3    H280906   2.845   4.553   1.770  0.7368  2.8790 -1.5971
19831TIP3   OH280907   2.617   1.095  14.004  0.0196  0.3285  0.0049
19831TIP3    H180908   2.586   1.176  14.045 -0.5725  0.3232 -0.4247
19831TIP3    H280909   2.564   1.086  13.925 -2.2572 -2.2056  1.7017
19832TIP3   OH280910   1.026   3.967   3.306 -0.0290  0.0008  0.1073
19832TIP3    H180911   1.030   3.987   3.213 -0.0049  0.0603  0.1212
19832TIP3    H280912   0.977   3.885   3.311 -1.3925  0.8122  0.1557
19833TIP3   OH280913   4.198   6.667   0.677 -0.0859  0.2483 -0.5880
19833TIP3    H180914   4.166   6.621   0.599 -0.6434  1.4558 -1.0800
19833TIP3    H280915   4.283   6.702   0.651  0.0593  0.0325 -0.4094
19834TIP3   OH280916   2.377   5.040   3.380 -0.8180 -0.0951 -0.0745
19834TIP3    H180917   2.387   4.968   3.319  1.6467  0.3322 -0.2454
19834TIP3    H280918   2.423   5.012   3.459 -0.5139  0.9588  0.1407
19835TIP3   OH280919   2.089   5.785   0.305  0.1475 -0.1003  0.3452
19835TIP3    H180920   2.138   5.703   0.313 -0.0532 -0.3266 -0.6641
19835TIP3    H280921   2.136   5.834   0.238  0.4689  0.7657  1.1978
19836TIP3   OH280922   0.330   4.354   0.378 -0.3685 -1.0572  0.1039
19836TIP3    H180923   0.282   4.406   0.313 -0.4507 -2.2874 -0.8316
19836TIP3    H280924   0.399   4.414   0.410 -0.0797 -0.5637 -1.3977
19837TIP3   OH280925   0.822   2.160   5.356  0.1086 -0.5436  0.8402
19837TIP3    H180926   0.773   2.221   5.301 -0.1671  0.4471  2.1434
19837TIP3    H280927   0.791   2.073   5.329 -1.3556  0.0096  0.6745
19838TIP3   OH280928   5.257   3.709  16.146 -0.4177 -0.0165 -1.1980
19838TIP3    H180929   5.257   3.791  16.195  1.1958  0.6884 -2.3420
19838TIP3    H280930   5.222   3.732  16.060 -2.4848 -1.0824 -0.6603
19839TIP3   OH280931   0.343   5.651  16.168  0.2541 -0.2608  0.3895
19839TIP3    H180932   0.301   5.566  16.156 -1.9261  0.8916 -0.3356
19839TIP3    H280933   0.309   5.705  16.096 -2.3363  2.7179  3.6678
19840TIP3   OH280934   0.530   6.391  14.156  0.1270 -0.6143  0.6157
19840TIP3    H180935   0.480   6.468  14.128  0.3808 -1.0453 -1.0176
19840TIP3    H280936   0.465   6.322  14.163 -0.0550 -0.3337  1.8187
19841TIP3   OH280937   4.441   1.838  11.827 -0.2390  0.1637 -0.5132
19841TIP3    H180938   4.507   1.890  11.780 -0.1139  1.8058  1.4258
19841TIP3    H280939   4.383   1.903  11.867 -0.2419 -1.1891  1.7328
19842TIP3   OH280940   5.852   5.420  15.562 -1.0403 -0.2844 -0.2373
19842TIP3    H180941   5.868   5.365  15.486 -0.6533 -1.2665  0.5342
19842TIP3    H280942   5.935   5.418  15.610 -1.7698 -1.0185  1.0308
19843TIP3   OH280943   5.045   5.405   4.600  0.0444  0.1847 -0.6027
19843TIP3    H180944   4.965   5.357   4.582 -0.1011 -0.1380  0.8443
19843TIP3    H280945   5.040   5.482   4.544 -0.9539 -0.1772 -1.0178
19844TIP3   OH280946   0.401   5.312  13.984  0.3807  0.2105 -0.0195
19844TIP3    H180947   0.472   5.248  13.984 -0.5323 -0.8390 -1.0215
19844TIP3    H280948   0.399   5.345  13.895 -0.6655 -0.0998 -0.1185
19845TIP3   OH280949   2.996   1.532  11.993  0.6300 -0.3865  0.4666
19845TIP3    H180950   3.016   1.441  11.972  0.8345 -0.1971 -0.1832
19845TIP3    H280951   2.918   1.552  11.941  0.2216 -0.3737  1.0804
19846TIP3   OH280952   5.187   1.121   2.832 -0.0101 -0.4100 -0.3327
19846TIP3    H180953   5.108   1.139   2.882 -0.9158 -2.5071 -0.9687
19846TIP3    H280954   5.156   1.094   2.746  1.4689  0.5879 -1.2084
19847TIP3   OH280955   2.317   1.534  11.051 -0.3225 -0.1791 -0.3793
19847TIP3    H180956   2.329   1.447  11.013  0.4576 -0.7009  1.0175
19847TIP3    H280957   2.248   1.522  11.116  0.3571  0.0654  0.3872
19848TIP3   OH280958   3.349   1.294   3.763 -0.2392 -0.1765  0.0702
19848TIP3    H180959   3.291   1.222   3.787  1.8889 -2.0794 -0.3744
19848TIP3    H280960   3.294   1.372   3.770 -2.4125 -1.7579  1.1664
19849TIP3   OH280961   5.771   2.677  14.785 -0.5585  0.3134  0.3500
19849TIP3    H180962   5.851   2.726  14.764 -0.8472  0.2905 -0.8764
19849TIP3    H280963   5.787   2.589  14.750 -1.1985  0.3679 -0.0913
19850TIP3   OH280964   4.968   1.685   1.345 -0.2473 -0.3257  0.0356
19850TIP3    H180965   4.957   1.596   1.379 -3.1420 -0.0235 -0.0008
19850TIP3    H280966   5.024   1.729   1.410 -1.0244 -1.3965  1.4377
19851TIP3   OH280967   3.623   1.376   3.777  0.5992  0.0442  0.6764
19851TIP3    H180968   3.531   1.357   3.755  0.3338 -0.5035  2.1612
19851TIP3    H280969   3.648   1.446   3.717 -0.4652 -0.5503 -0.4719
19852TIP3   OH280970   0.668   4.367  13.671  0.0265 -0.2141 -0.0461
19852TIP3    H180971   0.746   4.319  13.645  0.0777 -0.4723  0.6000
19852TIP3    H280972   0.689   4.459  13.651  1.0384 -0.1022  1.4317
19853TIP3   OH280973   6.477   5.075  13.351 -0.2469  0.0655  0.0613
19853TIP3    H180974   6.499   5.093  13.260  0.9037 -0.2178  0.2828
19853TIP3    H280975   6.386   5.105  13.359 -0.3775  0.0597 -1.1810
19854TIP3   OH280976   4.613   4.667   2.459 -0.4077 -0.1282 -0.2629
19854TIP3    H180977   4.681   4.689   2.523  1.5647 -2.5738 -1.4313
19854TIP3    H280978   4.568   4.750   2.442  2.9319  1.7826 -0.1633
19855TIP3   OH280979   4.244   2.446   0.339  0.5645  0.5392 -0.1404
19855TIP3    H180980   4.233   2.471   0.431  1.5653  3.1170 -0.6907
19855TIP3    H280981   4.331   2.408   0.335 -0.6032 -2.3779  0.5092
19856TIP3   OH280982   3.891   2.106   1.849 -0.6036  0.2874 -0.7086
19856TIP3    H180983   3.825   2.104   1.918  0.7997 -1.9347  0.6291
19856TIP3    H280984   3.894   2.017   1.815 -1.5786  1.4492 -3.9959
19857TIP3   OH280985   4.827   5.868  15.288  0.0011 -0.3774  0.0712
19857TIP3    H180986   4.825   5.846  15.195  0.0730  0.2603 -0.0859
19857TIP3    H280987   4.834   5.963  15.290  0.4728 -0.4196  0.7306
19858TIP3   OH280988   3.976   6.467  12.316  0.0501 -0.1378 -0.1390
19858TIP3    H180989   3.887   6.461  12.350  0.0075  1.2217  0.0126
19858TIP3    H280990   4.029   6.492  12.391  0.1712  1.5016 -0.7504
19859TIP3   OH280991   1.823   5.012  15.640 -0.2371 -0.8233 -0.2407
19859TIP3    H180992   1.840   4.936  15.585  1.4012 -0.7060  0.0831
19859TIP3    H280993   1.900   5.068  15.629  0.8850 -1.4811  3.2857
19860TIP3   OH280994   3.668   0.857   0.706  0.5941 -0.4087 -0.3951
19860TIP3    H180995   3.698   0.948   0.700  0.8249 -0.4915 -0.5133
19860TIP3    H280996   3.602   0.850   0.638  1.9466 -0.8519 -1.6960
19861TIP3   OH280997   0.654   4.841   4.944 -0.2947 -0.1202  0.1931
19861TIP3    H180998   0.730   4.892   4.917 -1.5450  2.0655  0.6960
19861TIP3    H280999   0.582   4.904   4.946 -1.6883 -1.7105  1.7138
19862TIP3   OH281000   5.803   6.535  11.970 -0.1435  0.1754  0.2502
19862TIP3    H181001   5.779   6.628  11.970  0.7185  0.4318 -2.8441
19862TIP3    H281002   5.766   6.501  12.052 -2.2999  2.7570  0.4111
19863TIP3   OH281003   0.701   2.935  12.109  0.5306 -0.0128  0.6436
19863TIP3    H181004   0.731   3.026  12.109  1.0243 -0.1598  1.9238
19863TIP3    H281005   0.613   2.939  12.148  1.1092 -0.2374  2.0078
19864TIP3   OH281006   3.483   4.460   1.379 -0.5166  0.5104  0.1707
19864TIP3    H181007   3.393   4.487   1.395  0.0291  1.4306  1.8358
19864TIP3    H281008   3.537   4.527   1.421  0.9706  0.3179 -1.3514
19865TIP3   OH281009   1.905   6.303  13.017  0.2146 -0.9052 -0.3781
19865TIP3    H181010   1.911   6.242  12.944  1.3090  0.7831 -1.7724
19865TIP3    H281011   1.828   6.356  12.998 -0.2214 -1.2833  0.3470
19866TIP3   OH281012   1.266   6.146  15.615 -0.0371 -0.2267  0.3454
19866TIP3    H181013   1.335   6.200  15.654  1.2833 -0.9069 -0.9680
19866TIP3    H281014   1.236   6.089  15.686  0.4417  0.3983  1.0489
19867TIP3   OH281015   4.454   1.385   3.669  0.0702  0.6251  0.1343
19867TIP3    H181016   4.502   1.465   3.647 -0.4879  0.9613  0.1366
19867TIP3    H281017   4.429   1.348   3.585  0.4457  0.3799  0.1299
19868TIP3   OH281018   4.195   2.953  12.002 -0.4071  0.2972  0.0292
19868TIP3    H181019   4.270   2.916  11.956  0.3901  0.3444  1.2478
19868TIP3    H281020   4.195   3.046  11.978  0.1739  0.3787  0.3279
19869TIP3   OH281021   1.337   5.372   0.129 -0.5216 -0.1302  0.1700
19869TIP3    H181022   1.331   5.281   0.159 -2.3520 -0.1316 -0.0966
19869TIP3    H281023   1.364   5.422   0.206 -0.1103 -0.8265  0.4771
19870TIP3   OH281024   1.208   5.490  12.444 -0.3959  0.6145 -0.7578
19870TIP3    H181025   1.186   5.398  12.433  1.5378 -0.0904  0.7611
19870TIP3    H281026   1.194   5.507  12.537 -1.7797  2.1621 -1.2331
19871TIP3   OH281027   5.477   1.548  11.727  1.2155 -0.2015  0.4131
19871TIP3    H181028   5.395   1.534  11.775  0.2122  0.5901 -1.0078
19871TIP3    H281029   5.541   1.492  11.771 -0.0653 -0.7447  1.6247
19872TIP3   OH281030   0.897   5.596   6.417 -0.2818 -0.2689 -0.1769
19872TIP3    H181031   0.981   5.614   6.374  0.3288  0.7472  1.4200
19872TIP3    H281032   0.831   5.617   6.350  0.7051 -0.3334 -1.1822
19873TIP3   OH281033   2.506   3.776  11.141 -0.3677  0.0874 -0.8658
19873TIP3    H181034   2.547   3.838  11.080 -1.7497 -0.2402 -2.1693
19873TIP3    H281035   2.428   3.822  11.173 -0.7893 -0.5296 -0.9803
19874TIP3   OH281036   2.721   1.253   0.365 -0.2153 -0.0657 -0.3119
19874TIP3    H181037   2.790   1.231   0.427 -0.7872 -0.1122  0.3154
19874TIP3    H281038   2.749   1.214   0.283  0.4871 -0.1140 -0.0530
19875TIP3   OH281039   3.989   0.348   2.608 -0.3178 -0.4286 -0.5975
19875TIP3    H181040   3.900   0.323   2.634  0.6020 -1.9496  1.1579
19875TIP3    H281041   4.014   0.417   2.669  0.0249 -0.5883 -0.5565
19876TIP3   OH281042   3.713   1.912  15.798  0.1578  0.5125  0.0455
19876TIP3    H181043   3.749   1.973  15.862  2.7637  1.5711 -2.3384
19876TIP3    H281044   3.713   1.827  15.843  1.9284  1.2469  1.4785
19877TIP3   OH281045   0.920   2.184  16.609  0.1388  0.0199 -0.3245
19877TIP3    H181046   0.977   2.134  16.667 -0.8663 -1.0979 -0.2778
19877TIP3    H281047   0.966   2.268  16.597 -0.1506  0.7290  2.9390
19878TIP3   OH281048   2.022   3.949   2.455 -0.1161 -0.3715  0.8453
19878TIP3    H181049   1.926   3.951   2.450 -0.0062  2.4741 -1.4493
19878TIP3    H281050   2.042   3.968   2.546 -1.7059  2.5997  0.6329
19879TIP3   OH281051   1.877   4.011  16.661  1.1474  0.1715 -0.1601
19879TIP3    H181052   1.884   4.062  16.580 -1.1230  0.8146  0.0123
19879TIP3    H281053   1.857   4.075  16.729  1.8515 -0.5156  0.7097
19880TIP3   OH281054   6.611   2.081   4.193 -0.0454  0.2451 -0.0329
19880TIP3    H181055   6.693   2.130   4.189  0.0034  0.2600  0.8613
19880TIP3    H281056   6.622   2.011   4.129  0.7867  0.0843  0.2751
19881TIP3   OH281057   4.908   0.408  11.806 -0.2565 -0.4015 -0.1616
19881TIP3    H181058   4.887   0.498  11.778 -1.9095 -0.8108 -0.3146
19881TIP3    H281059   4.874   0.404  11.896 -0.8618 -1.0986 -0.4197
19882TIP3   OH281060   4.791   1.098  14.771  0.8135 -0.3230 -0.0428
19882TIP3    H181061   4.710   1.083  14.724  1.4327 -0.2721 -1.1380
19882TIP3    H281062   4.840   1.017  14.761  1.0691 -0.2126  0.2824
19883TIP3   OH281063   6.407   1.250   4.783 -0.3314 -0.0297  0.0399
19883TIP3    H181064   6.485   1.195   4.775 -0.0239  0.4891 -0.6163
19883TIP3    H281065   6.336   1.196   4.747 -0.5302 -1.0152  1.8823
19884TIP3   OH281066   1.208   3.917   0.943  0.1540  0.1542 -0.3365
19884TIP3    H181067   1.139   3.983   0.943 -0.3005 -0.3220 -0.3968
19884TIP3    H281068   1.182   3.854   1.011  0.4398 -0.1208 -0.4799
19885TIP3   OH281069   6.290   0.514  16.884 -0.2892 -0.2747  0.3848
19885TIP3    H181070   6.334   0.471  16.957  1.3210 -1.7935 -1.4312
19885TIP3    H281071   6.223   0.452  16.856  1.1917 -1.1320 -1.4141
19886TIP3   OH281072   2.314   0.637  14.784 -0.1796 -0.1103  0.0373
19886TIP3    H181073   2.284   0.718  14.743 -0.3389 -0.1736  0.0297
19886TIP3    H281074   2.404   0.656  14.811 -0.6433  0.4768  1.1808
19887TIP3   OH281075   5.347   3.678   4.546 -0.9042 -0.0561 -0.5310
19887TIP3    H181076   5.302   3.680   4.631  0.2701  0.5674  0.0860
19887TIP3    H281077   5.402   3.756   4.546  1.3730 -1.6082 -0.6117
19888TIP3   OH281078   0.617   6.230   4.697 -0.2616  0.4246 -0.0373
19888TIP3    H181079   0.582   6.310   4.657 -0.7216  0.4469  0.4186
19888TIP3    H281080   0.565   6.160   4.659 -0.8339  0.4624  0.6825
19889TIP3   OH281081   4.774   2.898   3.595  0.2347  0.1998 -0.8068
19889TIP3    H181082   4.714   2.841   3.643  0.0979  0.2303 -0.9415
19889TIP3    H281083   4.807   2.843   3.524 -0.4098  0.4918 -1.3368
19890TIP3   OH281084   4.812   6.484   1.257  0.5248 -0.1905  0.1540
19890TIP3    H181085   4.745   6.490   1.325  1.3178  1.5734  0.7986
19890TIP3    H281086   4.886   6.441   1.299  0.3857 -0.6786 -0.0978
19891TIP3   OH281087   3.620   1.577   1.249  0.0884 -0.1614  0.1972
19891TIP3    H181088   3.649   1.574   1.340 -0.0134 -0.9590  0.2053
19891TIP3    H281089   3.599   1.486   1.227  0.1368  0.0231 -0.6311
19892TIP3   OH281090   0.960   1.479   3.739  0.5972  0.3915 -0.0367
19892TIP3    H181091   0.992   1.533   3.666  0.8461 -0.7723 -0.8031
19892TIP3    H281092   1.036   1.469   3.796  1.1888 -1.0186 -1.0387
19893TIP3   OH281093   2.339   2.133  15.914  0.4066  0.1973 -0.0119
19893TIP3    H181094   2.247   2.116  15.933  0.5755  0.3424  0.9410
19893TIP3    H281095   2.345   2.228  15.906  0.5902  0.2331  0.5402
19894TIP3   OH281096   4.825   0.912   4.049 -0.5554  0.1730  0.1143
19894TIP3    H181097   4.864   0.977   4.109  1.5167 -0.1491 -0.8501
19894TIP3    H281098   4.735   0.942   4.039 -0.6507  0.8691  2.5197
19895TIP3   OH281099   2.055   3.023   5.893 -0.1334  0.0339 -0.4886
19895TIP3    H181100   2.032   3.049   5.804  0.3326  0.7657 -0.3937
19895TIP3    H281101   2.109   2.945   5.882  0.3760  0.4378 -0.8769
19896TIP3   OH281102   4.550   2.383  14.991 -0.4068 -0.4567 -0.9412
19896TIP3    H181103   4.534   2.348  15.079 -0.1944 -1.4999 -1.3033
19896TIP3    H281104   4.642   2.363  14.974 -0.2112  0.5426 -1.0491
19897TIP3   OH281105   3.372   1.563   5.601 -0.2979  0.2660 -0.5340
19897TIP3    H181106   3.340   1.643   5.560  0.6309  0.8112 -0.2246
19897TIP3    H281107   3.346   1.571   5.692  0.9092  0.8327 -0.2256
19898TIP3   OH281108   5.589   0.180  13.016 -0.1497 -0.1618 -0.6597
19898TIP3    H181109   5.669   0.157  12.967 -0.0112  1.3584 -1.1644
19898TIP3    H281110   5.566   0.268  12.985 -0.7303  0.3400  1.1507
19899TIP3   OH281111   3.987   1.816  16.443  0.5890  0.6123 -0.0587
19899TIP3    H181112   4.049   1.835  16.514 -0.3706  0.5955  0.7847
19899TIP3    H281113   3.920   1.884  16.449 -0.0540  0.0108 -0.3011
19900TIP3   OH281114   1.209   6.100   1.529  0.1172  0.7279 -0.2276
19900TIP3    H181115   1.185   6.149   1.608 -0.4555  0.0659  0.0099
19900TIP3    H281116   1.170   6.014   1.541  2.7350 -0.4403  0.2260
19901TIP3   OH281117   1.495   6.333   0.667  0.3689 -0.3346  0.2134
19901TIP3    H181118   1.426   6.323   0.602 -1.0281 -0.4640  1.6615
19901TIP3    H281119   1.566   6.378   0.621 -0.4116 -0.8150 -1.4882
19902TIP3   OH281120   5.591   1.658  13.756 -0.3373  0.1376  0.4552
19902TIP3    H181121   5.672   1.700  13.726  0.8919 -1.2538  1.6997
19902TIP3    H281122   5.557   1.613  13.678 -1.4233  2.9760 -0.7663
19903TIP3   OH281123   6.182   0.533   1.871 -0.1215 -0.3416  0.4208
19903TIP3    H181124   6.148   0.479   1.800  0.9363 -1.2200  0.5767
19903TIP3    H281125   6.108   0.543   1.931 -0.2127 -1.9183  0.5756
19904TIP3   OH281126   0.464   0.819   3.443 -0.2120  0.2915 -0.2072
19904TIP3    H181127   0.377   0.841   3.409  0.1672  0.0793 -1.3549
19904TIP3    H281128   0.450   0.796   3.534 -1.4628 -0.4421 -0.5810
19905TIP3   OH281129   5.416   2.885  15.182  0.1981  0.0150 -0.6465
19905TIP3    H181130   5.396   2.942  15.109  4.0763 -0.6424 -2.3311
19905TIP3    H281131   5.511   2.877  15.182  0.2114 -1.4400  3.3928
19906TIP3   OH281132   5.087   1.201   5.434 -0.4953  0.6522 -0.0629
19906TIP3    H181133   5.180   1.208   5.413 -0.9457  1.2259 -1.9171
19906TIP3    H281134   5.068   1.280   5.485  0.7073 -0.9940  3.0867
19907TIP3   OH281135   3.999   3.941  16.847  0.0896 -0.2175  0.0439
19907TIP3    H181136   4.064   3.951  16.777  1.3904 -0.5096  1.1876
19907TIP3    H281137   3.914   3.945  16.802  0.9046 -0.5281 -1.5530
19908TIP3   OH281138   4.416   1.734   3.040 -0.5356  0.1039 -0.7378
19908TIP3    H181139   4.401   1.705   2.950 -2.0763 -0.2625 -0.3686
19908TIP3    H281140   4.329   1.747   3.077  0.0792  1.4405  0.3339
19909TIP3   OH281141   0.988   4.653  14.846 -0.6164 -0.8707 -0.6178
19909TIP3    H181142   0.924   4.695  14.903 -0.0428  1.0034 -1.3162
19909TIP3    H281143   0.955   4.666  14.758 -0.3207 -1.7062 -0.8567
19910TIP3   OH281144   2.762   5.473  15.979 -0.0131  0.3127  0.1662
19910TIP3    H181145   2.683   5.476  16.032  0.4445 -1.9744  1.0742
19910TIP3    H281146   2.733   5.439  15.894 -0.4011  1.9612 -0.3807
19911TIP3   OH281147   2.459   5.824   1.325  0.4445  0.6918 -0.1697
19911TIP3    H181148   2.414   5.901   1.290  0.3010  0.7743  0.1895
19911TIP3    H281149   2.494   5.853   1.409  0.6521  0.4515 -0.1719
19912TIP3   OH281150   2.876   6.594  11.461 -0.2770  0.1381 -0.4737
19912TIP3    H181151   2.860   6.656  11.533 -0.8615 -0.0695 -0.4206
19912TIP3    H281152   2.948   6.633  11.412  0.7993 -0.2200  0.7964
19913TIP3   OH281153   3.684   1.763   2.902 -0.0587  0.1888  0.3539
19913TIP3    H181154   3.661   1.782   2.993  0.5079  1.2246  0.2940
19913TIP3    H281155   3.719   1.674   2.904  0.3143  0.3468  1.2210
19914TIP3   OH281156   2.692   4.144  14.952  0.2524  0.3394 -0.7456
19914TIP3    H181157   2.643   4.063  14.950 -2.4973  1.8987  0.7852
19914TIP3    H281158   2.764   4.131  14.890 -0.4530 -3.0233 -0.9052
19915TIP3   OH281159   4.340   6.256  12.505  0.1529  0.1207  0.1426
19915TIP3    H181160   4.264   6.200  12.489  0.8007 -1.0907  1.2435
19915TIP3    H281161   4.412   6.212  12.459  0.0962  1.5483 -1.3541
19916TIP3   OH281162   1.698   4.678  14.667 -0.0530  0.2826  0.4044
19916TIP3    H181163   1.747   4.752  14.630  0.5008 -0.4885 -0.4129
19916TIP3    H281164   1.615   4.717  14.695 -1.1832  0.6297 -3.1306
19917TIP3   OH281165   0.242   3.715   0.141 -0.4600  0.3506  0.6616
19917TIP3    H181166   0.252   3.759   0.057 -0.7838 -2.2129 -0.7506
19917TIP3    H281167   0.148   3.715   0.157 -0.4157  0.6372  0.9301
19918TIP3   OH281168   3.167   4.570   4.303 -0.1311  0.3492 -0.2747
19918TIP3    H181169   3.198   4.607   4.220 -1.0150  0.2019 -0.6769
19918TIP3    H281170   3.072   4.582   4.300 -0.3290 -1.0616  0.0265
19919TIP3   OH281171   1.818   2.189  12.615  0.0394  0.7675  0.0601
19919TIP3    H181172   1.810   2.208  12.522 -2.3620  2.0538  0.5110
19919TIP3    H281173   1.745   2.235  12.656  0.0293 -1.2116  2.3748
19920TIP3   OH281174   3.455   1.756   2.770  0.1830  0.2392 -0.5028
19920TIP3    H181175   3.464   1.672   2.725 -0.3562 -1.6862  2.8419
19920TIP3    H281176   3.542   1.774   2.806 -0.1305  0.2432  0.2542
19921TIP3   OH281177   0.728   3.561  11.558 -0.4160 -0.1191 -0.7018
19921TIP3    H181178   0.734   3.652  11.589 -0.3606 -0.2800 -0.2396
19921TIP3    H281179   0.816   3.526  11.568 -1.0104 -1.0533  1.7103
19922TIP3   OH281180   4.964   5.210   2.771 -0.7586  0.1964 -0.3539
19922TIP3    H181181   5.016   5.166   2.838 -0.8413  2.8477  1.5269
19922TIP3    H281182   5.015   5.200   2.691  1.2495  0.3041  0.8759
19923TIP3   OH281183   1.956   0.858   6.099 -0.3052 -0.6779 -0.2679
19923TIP3    H181184   1.902   0.887   6.172 -0.3101  0.3124 -0.6567
19923TIP3    H281185   1.909   0.888   6.021 -0.7658 -2.5221 -0.7216
19924TIP3   OH281186   2.443   5.048   2.701  0.2244  0.3817 -0.2441
19924TIP3    H181187   2.539   5.050   2.710  0.0454 -0.2280  2.1042
19924TIP3    H281188   2.411   5.052   2.791 -1.9396 -0.9467 -0.9370
19925TIP3   OH281189   4.502   3.800   5.462 -0.4396  0.3054 -0.3847
19925TIP3    H181190   4.490   3.889   5.497  1.0364  0.4796 -0.2752
19925TIP3    H281191   4.536   3.814   5.374 -1.7985 -0.1569 -0.9961
19926TIP3   OH281192   3.074   5.510  11.596  0.3610 -0.3687 -0.1078
19926TIP3    H181193   3.032   5.538  11.515 -0.2733  1.3433  0.7841
19926TIP3    H281194   3.019   5.438  11.627 -0.8748  0.6299  0.0839
19927TIP3   OH281195   5.160   5.039  11.700  0.3264  0.2534  0.4847
19927TIP3    H181196   5.069   5.012  11.693  0.0554  1.4564 -0.9899
19927TIP3    H281197   5.161   5.102  11.773 -0.1280  0.6779  0.1243
19928TIP3   OH281198   2.019   3.185   3.421 -0.4812  0.2205  0.1826
19928TIP3    H181199   1.946   3.171   3.480 -0.3820  1.0780  0.5192
19928TIP3    H281200   2.086   3.228   3.475  1.2964 -2.8367  0.5693
19929TIP3   OH281201   1.818   2.003   4.274  0.0036 -0.4086  0.4417
19929TIP3    H181202   1.880   2.033   4.208  0.0547 -3.5402 -1.0000
19929TIP3    H281203   1.776   2.084   4.306  3.5026  1.5975  0.2099
19930TIP3   OH281204   4.618   5.748  13.024  0.5742  0.5790 -0.0986
19930TIP3    H181205   4.630   5.663  13.067 -0.8755  0.0666 -0.6872
19930TIP3    H281206   4.630   5.812  13.094 -2.1797 -0.2621  1.2186
19931TIP3   OH281207   3.994   5.027  17.163 -0.0635  0.9332 -0.2195
19931TIP3    H181208   4.054   5.045  17.091 -0.5316  2.1209 -0.3107
19931TIP3    H281209   4.028   4.947  17.203  1.6475  1.6662 -0.1915
19932TIP3   OH281210   2.123   4.795   0.219  0.4188  0.1767 -0.0594
19932TIP3    H181211   2.135   4.814   0.126 -0.4464 -0.6196 -0.3311
19932TIP3    H281212   2.029   4.788   0.231  0.5496 -0.2276  0.7779
19933TIP3   OH281213   4.408   1.709  12.495  0.1773  0.0849  0.6774
19933TIP3    H181214   4.434   1.715  12.403 -0.6449  0.5830  0.4707
19933TIP3    H281215   4.454   1.781  12.538  3.2427 -2.1644  1.3199
19934TIP3   OH281216   0.914   0.874   0.621  0.3179  0.5092 -0.3025
19934TIP3    H181217   0.936   0.958   0.582 -1.5753  0.6285 -1.1832
19934TIP3    H281218   0.919   0.812   0.549  0.2837  0.1244  0.0227
19935TIP3   OH281219   2.569   4.370   5.523 -0.0240 -0.0431 -0.0441
19935TIP3    H181220   2.621   4.327   5.591 -0.9853 -0.3632  0.5016
19935TIP3    H281221   2.587   4.463   5.534  0.3609 -0.1495  0.2049
19936TIP3   OH281222   4.615   5.195  13.757 -0.4046  0.0567 -0.4141
19936TIP3    H181223   4.610   5.255  13.683  0.2704  0.7783  0.1247
19936TIP3    H281224   4.554   5.124  13.734 -0.2536  0.3078 -1.6189
19937TIP3   OH281225   4.649   1.976  13.116 -0.7335  0.2688  0.2095
19937TIP3    H181226   4.636   1.942  13.027 -1.4342 -1.4070  0.9355
19937TIP3    H281227   4.582   2.044  13.125 -2.9946 -1.9582  0.6556
19938TIP3   OH281228   3.168   1.614  11.390 -0.0168 -0.9014  0.1268
19938TIP3    H181229   3.080   1.651  11.390  0.5767  0.5457  1.0462
19938TIP3    H281230   3.213   1.659  11.318  0.6419  0.0300  1.1076
19939CLA    CLA81231   0.078   0.400   3.828 -0.5899 -0.5074  0.0212
19940LIG     O181232   3.607   3.334  16.689  0.1429 -0.2894  0.3543
19940LIG     O281233   3.833   3.347  16.729 -0.0885 -0.3058  0.2327
19940LIG     O381234   3.690   3.682  16.771 -0.6451 -0.0626  0.2745
19940LIG     O481235   3.036   3.531  16.234  0.3268  0.0187  0.4011
19940LIG      N81236   3.413   2.995  16.692 -0.0223 -0.2705  0.0463
19940LIG     C181237   3.561   2.967  16.679  0.2550 -0.2665 -0.2081
19940LIG     C281238   3.414   3.061  16.826  0.5326 -0.1316  0.0363
19940LIG     C381239   3.600   2.899  16.811 -1.1839  0.5300 -0.0304
19940LIG     C481240   3.516   2.979  16.909  0.4653 -0.7404 -0.0485
19940LIG     C581241   3.630   3.104  16.659 -0.6041  0.0745  0.0955
19940LIG     C681242   3.454   3.205  16.814  0.3229 -0.0814  0.2677
19940LIG     C781243   3.602   3.214  16.761  0.1785  0.0455  0.1695
19940LIG     C881244   3.356   3.083  16.576  0.5729  0.1128 -0.4382
19940LIG     C981245   3.333   2.868  16.701 -0.1799  0.8276  0.6860
19940LIG    C1081246   3.205   3.108  16.579  0.0747  0.0272  0.6511
19940LIG    C1181247   3.159   3.214  16.487  0.6789 -0.3079 -0.0483
19940LIG    C1281248   3.728   3.396  16.680 -0.4447 -0.7384  0.6700
19940LIG    C1381249   3.123   3.189  16.355 -0.2429  0.6369 -0.1809
19940LIG    C1481250   3.149   3.346  16.536 -0.9700 -0.2440 -0.5162
19940LIG    C1581251   3.715   3.519  16.596  0.0455 -0.1459 -1.2403
19940LIG    C1681252   3.092   3.295  16.268  0.5665  0.4050  0.5932
19940LIG    C1781253   3.106   3.452  16.456 -0.1485  0.5880 -0.5871
19940LIG    C1881254   3.617   3.618  16.669  0.5118 -0.2684  0.0320
19940LIG    C1981255   3.658   3.489  16.457  0.1590 -0.0275  0.2220
19940LIG    C2081256   3.077   3.424  16.318  0.1270  0.4542 -0.2648
19940LIG    C2181257   3.747   3.501  16.350 -0.2101  0.1806 -0.4823
19940LIG    C2281258   3.530   3.447  16.431  0.8735  0.0121 -0.1225
19940LIG    C2381259   3.708   3.485  16.218 -0.7026 -0.4025 -0.0847
19940LIG    C2481260   3.490   3.412  16.302  0.3549 -0.1507 -0.2716
19940LIG    C2581261   3.118   3.526  16.120  0.0130  1.1740 -0.7379
19940LIG    C2681262   3.577   3.433  16.199  0.0487  0.4309 -0.5432
19940LIG    C2781263   3.098   3.659  16.039 -0.4886 -0.3656 -0.2634
19940LIG    C2881264   3.139   3.778  16.128 -0.6245 -0.4664 -0.1522
19940LIG    C2981265   3.070   3.910  16.076  0.7077  0.4756  0.4806
19940LIG     H181266   3.594   2.906  16.592  0.1536  1.2900 -1.3580
19940LIG     H281267   3.314   3.051  16.874 -0.7605 -0.7831 -2.7021
19940LIG     H381268   3.708   2.914  16.828 -1.7244  2.6572  1.6878
19940LIG     H481269   3.582   2.790  16.816  1.5286 -0.1099 -2.8431
19940LIG     H581270   3.458   2.918  16.980 -1.0826 -0.9642 -1.4754
19940LIG     H681271   3.585   3.035  16.973 -1.3846  0.7519  0.6917
19940LIG     H781272   3.610   3.130  16.552  0.1628 -1.6114 -0.4791
19940LIG     H881273   3.738   3.078  16.659 -0.3917  0.9384  0.9927
19940LIG     H981274   3.457   3.232  16.922 -3.6454  0.8158  0.2580
19940LIG    H1081275   3.378   3.268  16.763 -0.5089 -0.5709  0.8903
19940LIG    H1181276   3.678   3.212  16.842 -0.0862 -2.8266  0.3797
19940LIG    H1281277   3.381   3.037  16.481  3.9458 -0.5820  0.7016
19940LIG    H1381278   3.410   3.177  16.572  1.7858 -0.4832  1.1895
19940LIG    H1481279   3.231   2.890  16.732 -1.0252 -0.3902 -1.1976
19940LIG    H1581280   3.380   2.792  16.762 -0.9334 -2.1563 -2.3284
19940LIG    H1681281   3.322   2.829  16.601 -1.3072  1.4729  0.5368
19940LIG    H1781282   3.170   3.138  16.681  2.4520  0.5499  1.3387
19940LIG    H1881283   3.149   3.015  16.555 -2.2987  1.7530 -0.7318
19940LIG    H1981284   3.153   3.090  16.324  2.9431  1.9527 -1.5381
19940LIG    H2081285   3.178   3.360  16.639 -0.6694  3.4479 -1.0209
19940LIG    H2181286   3.815   3.567  16.598  1.1492 -2.4333  1.1207
19940LIG    H2281287   3.070   3.275  16.164  2.2435  0.8641  0.1314
19940LIG    H2381288   3.090   3.549  16.500  1.1347  0.8408 -0.6391
19940LIG    H2481289   3.596   3.705  16.603 -0.0143  0.0899  0.6594
19940LIG    H2581290   3.522   3.575  16.705  0.0227 -1.4125 -2.5190
19940LIG    H2681291   3.849   3.535  16.366 -0.3308  0.5398 -0.4745
19940LIG    H2781292   3.455   3.422  16.503  0.1721  0.8969 -0.5336
19940LIG    H2881293   3.663   3.639  16.853  1.2741  1.8847  2.0046
19940LIG    H2981294   3.780   3.508  16.141 -1.2273  0.6168 -0.2730
19940LIG    H3081295   3.391   3.372  16.287  0.0205  1.0158 -1.2713
19940LIG    H3181296   3.088   3.450  16.045 -0.0059  1.9520 -1.5396
19940LIG    H3281297   3.225   3.513  16.146 -0.7562 -0.0235  1.9966
19940LIG    H3381298   3.561   3.414  16.094 -0.3343 -0.9873 -0.2286
19940LIG    H3481299   2.992   3.663  16.006 -1.3556  0.1486  2.4733
19940LIG    H3581300   3.153   3.667  15.943 -1.1911 -0.0249 -0.6353
19940LIG    H3681301   3.248   3.797  16.115 -0.5301  0.5216  1.9473
19940LIG    H3781302   3.108   3.760  16.233  0.8435 -0.1367  0.3555
19940LIG    H3881303   3.121   3.999  16.118  0.1792  0.8594  0.3196
19940LIG    H3981304   2.965   3.930  16.108  0.3154 -1.2682  0.3273
19940LIG    H4081305   3.070   3.923  15.965 -0.7333  0.1809  0.4299
   6.78697   6.78697  17.23950
